 Entering Gaussian System, Link 0=g98
 Initial command:
 /usr/local/apps/g98/g98/l1.exe /tmp/Gau-14753431.inp -scrdir=/tmp/
 Entering Link 1 = /usr/local/apps/g98/g98/l1.exe PID=  14808185.
  
 Copyright (c) 1988,1990,1992,1993,1995,1998 Gaussian, Inc.
                  All Rights Reserved.
  
 This is part of the Gaussian(R) 98 program.  It is based on
 the Gaussian 94(TM) system (copyright 1995 Gaussian, Inc.),
 the Gaussian 92(TM) system (copyright 1992 Gaussian, Inc.),
 the Gaussian 90(TM) system (copyright 1990 Gaussian, Inc.),
 the Gaussian 88(TM) system (copyright 1988 Gaussian, Inc.),
 the Gaussian 86(TM) system (copyright 1986 Carnegie Mellon
 University), and the Gaussian 82(TM) system (copyright 1983
 Carnegie Mellon University). Gaussian is a federally registered
 trademark of Gaussian, Inc.
  
 This software contains proprietary and confidential information,
 including trade secrets, belonging to Gaussian, Inc.
  
 This software is provided under written license and may be
 used, copied, transmitted, or stored only in accord with that
 written license.
  
 The following legend is applicable only to US Government
 contracts under DFARS:
  
                    RESTRICTED RIGHTS LEGEND
  
 Use, duplication or disclosure by the US Government is subject
 to restrictions as set forth in subparagraph (c)(1)(ii) of the
 Rights in Technical Data and Computer Software clause at DFARS
 252.227-7013.
  
 Gaussian, Inc.
 Carnegie Office Park, Building 6, Pittsburgh, PA 15106 USA
  
 The following legend is applicable only to US Government
 contracts under FAR:
  
                    RESTRICTED RIGHTS LEGEND
  
 Use, reproduction and disclosure by the US Government is subject
 to restrictions as set forth in subparagraph (c) of the
 Commercial Computer Software - Restricted Rights clause at FAR
 52.227-19.
  
 Gaussian, Inc.
 Carnegie Office Park, Building 6, Pittsburgh, PA 15106 USA
  
  
 ---------------------------------------------------------------
 Warning -- This program may not be used in any manner that
 competes with the business of Gaussian, Inc. or will provide
 assistance to any competitor of Gaussian, Inc.  The licensee
 of this program is prohibited from giving any competitor of
 Gaussian, Inc. access to this program.  By using this program,
 the user acknowledges that Gaussian, Inc. is engaged in the
 business of creating and licensing software in the field of
 computational chemistry and represents and warrants to the
 licensee that it is not a competitor of Gaussian, Inc. and that
 it will not use this program in any manner prohibited above.
 ---------------------------------------------------------------
  

 Cite this work as:
 Gaussian 98, Revision A.7,
 M. J. Frisch, G. W. Trucks, H. B. Schlegel, G. E. Scuseria, 
 M. A. Robb, J. R. Cheeseman, V. G. Zakrzewski, J. A. Montgomery, Jr., 
 R. E. Stratmann, J. C. Burant, S. Dapprich, J. M. Millam, 
 A. D. Daniels, K. N. Kudin, M. C. Strain, O. Farkas, J. Tomasi, 
 V. Barone, M. Cossi, R. Cammi, B. Mennucci, C. Pomelli, C. Adamo, 
 S. Clifford, J. Ochterski, G. A. Petersson, P. Y. Ayala, Q. Cui, 
 K. Morokuma, D. K. Malick, A. D. Rabuck, K. Raghavachari, 
 J. B. Foresman, J. Cioslowski, J. V. Ortiz, A. G. Baboul, 
 B. B. Stefanov, G. Liu, A. Liashenko, P. Piskorz, I. Komaromi, 
 R. Gomperts, R. L. Martin, D. J. Fox, T. Keith, M. A. Al-Laham, 
 C. Y. Peng, A. Nanayakkara, C. Gonzalez, M. Challacombe, 
 P. M. W. Gill, B. Johnson, W. Chen, M. W. Wong, J. L. Andres, 
 C. Gonzalez, M. Head-Gordon, E. S. Replogle, and J. A. Pople, 
 Gaussian, Inc., Pittsburgh PA, 1998.

 *****************************************
 Gaussian 98:  SGI64-G98RevA.7 11-Apr-1999
                 7-Mar-2000 
 *****************************************
 %NProc=4
 Will use up to    4 processors via shared memory.
 %mem=24000000
 --------------------
 #BLYP/3-21G opt freq
 --------------------
 1/14=-1,18=20,26=3,38=1/1,3;
 2/9=110,17=6,18=5/2;
 3/5=5,11=2,25=1,30=1/1,2,3;
 4//1;
 5/5=2,38=4,42=402/2;
 6/7=2,8=2,9=2,10=2,28=1/1;
 7//1,2,3,16;
 1/14=-1,18=20/3(1);
 99//99;
 2/9=110/2;
 3/5=5,11=2,25=1,30=1/1,2,3;
 4/5=5,16=2/1;
 5/5=2,38=4,42=402/2;
 7//1,2,3,16;
 1/14=-1,18=20/3(-5);
 2/9=110/2;
 6/7=2,8=2,9=2,10=2,19=2,28=1/1;
 99/9=1/99;
 ----------------------------------------
 1H tetrazole c CH-NH-N=N-N= casno=288948
 ----------------------------------------
 Symbolic Z-matrix:
 Charge =  0 Multiplicity = 1
 7                    -1.12329  -0.25456   0. 
 7                    -0.67158   0.91328   0. 
 7                     0.65055   0.80984   0. 
 1                     1.224     1.62189   0. 
 7                    -0.13465  -1.16105   0. 
 6                     0.96218  -0.48332   0. 
 1                     1.95569  -0.87454   0. 

 GradGradGradGradGradGradGradGradGradGradGradGradGradGradGradGradGradGrad
 Berny optimization.
 Initialization pass.
                         ----------------------------
                         !    Initial Parameters    !
                         ! (Angstroms and Degrees)  !
 ------------------------                            -------------------------
 ! Name  Definition              Value          Derivative Info.             !
 -----------------------------------------------------------------------------
 ! R1    R(1,2)                  1.2522         estimate D2E/DX2             !
 ! R2    R(1,5)                  1.3413         estimate D2E/DX2             !
 ! R3    R(2,3)                  1.3262         estimate D2E/DX2             !
 ! R4    R(3,4)                  0.9941         estimate D2E/DX2             !
 ! R5    R(3,6)                  1.3302         estimate D2E/DX2             !
 ! R6    R(5,6)                  1.2893         estimate D2E/DX2             !
 ! R7    R(6,7)                  1.0678         estimate D2E/DX2             !
 ! A1    A(2,1,5)              111.3714         estimate D2E/DX2             !
 ! A2    A(1,2,3)              106.673          estimate D2E/DX2             !
 ! A3    A(2,3,4)              120.7559         estimate D2E/DX2             !
 ! A4    A(2,3,6)              108.0227         estimate D2E/DX2             !
 ! A5    A(4,3,6)              131.2214         estimate D2E/DX2             !
 ! A6    A(1,5,6)              105.77           estimate D2E/DX2             !
 ! A7    A(3,6,5)              108.1628         estimate D2E/DX2             !
 ! A8    A(3,6,7)              125.0426         estimate D2E/DX2             !
 ! A9    A(5,6,7)              126.7945         estimate D2E/DX2             !
 ! D1    D(5,1,2,3)              0.             estimate D2E/DX2             !
 ! D2    D(2,1,5,6)              0.             estimate D2E/DX2             !
 ! D3    D(1,2,3,4)            180.             estimate D2E/DX2             !
 ! D4    D(1,2,3,6)              0.             estimate D2E/DX2             !
 ! D5    D(2,3,6,5)              0.             estimate D2E/DX2             !
 ! D6    D(2,3,6,7)            180.             estimate D2E/DX2             !
 ! D7    D(4,3,6,5)            180.             estimate D2E/DX2             !
 ! D8    D(4,3,6,7)              0.             estimate D2E/DX2             !
 ! D9    D(1,5,6,3)              0.             estimate D2E/DX2             !
 ! D10   D(1,5,6,7)            180.             estimate D2E/DX2             !
 -----------------------------------------------------------------------------
 Trust Radius=3.00D-01 FncErr=1.00D-07 GrdErr=1.00D-06
 Number of steps in this run=  36 maximum allowed number of steps= 100.
 GradGradGradGradGradGradGradGradGradGradGradGradGradGradGradGradGradGrad

                          Input orientation:                          
 ---------------------------------------------------------------------
 Center     Atomic     Atomic              Coordinates (Angstroms)
 Number     Number      Type              X           Y           Z
 ---------------------------------------------------------------------
    1          7             0       -1.123293   -0.254560    0.000000
    2          7             0       -0.671576    0.913277    0.000000
    3          7             0        0.650545    0.809842    0.000000
    4          1             0        1.224004    1.621891    0.000000
    5          7             0       -0.134646   -1.161053    0.000000
    6          6             0        0.962183   -0.483316    0.000000
    7          1             0        1.955691   -0.874535    0.000000
 ---------------------------------------------------------------------
                    Distance matrix (angstroms):
                    1          2          3          4          5
     1  N    0.000000
     2  N    1.252155   0.000000
     3  N    2.068684   1.326161   0.000000
     4  H    3.005141   2.023699   0.994122   0.000000
     5  N    1.341325   2.142694   2.121545   3.096887   0.000000
     6  C    2.097985   2.149335   1.330179   2.121426   1.289326
     7  H    3.140782   3.177861   2.130852   2.601444   2.109882
                    6          7
     6  C    0.000000
     7  H    1.067760   0.000000
 Stoichiometry    CH2N4
 Framework group  CS[SG(CH2N4)]
 Deg. of freedom   11
 Full point group                 CS      NOp   2
 Largest Abelian subgroup         CS      NOp   2
 Largest concise Abelian subgroup C1      NOp   1
                         Standard orientation:                         
 ---------------------------------------------------------------------
 Center     Atomic     Atomic              Coordinates (Angstroms)
 Number     Number      Type              X           Y           Z
 ---------------------------------------------------------------------
    1          7             0       -0.716312   -0.901934    0.000000
    2          7             0       -1.095520    0.291420    0.000000
    3          7             0        0.000000    1.038775    0.000000
    4          1             0       -0.061479    2.030994    0.000000
    5          7             0        0.622151   -0.989495    0.000000
    6          6             0        1.052813    0.225779    0.000000
    7          1             0        2.072370    0.542976    0.000000
 ---------------------------------------------------------------------
 Rotational constants (GHZ):     10.9198679     10.7343949      5.4131685
 Isotopes: N-14,N-14,N-14,H-1,N-14,C-12,H-1
 Standard basis: 3-21G (6D, 7F)
 There are    39 symmetry adapted basis functions of A'  symmetry.
 There are    10 symmetry adapted basis functions of A"  symmetry.
 Crude estimate of integral set expansion from redundant integrals=1.000.
 Integral buffers will be    131072 words long.
 Raffenetti 2 integral format.
 Two-electron integral symmetry is turned on.
    49 basis functions       81 primitive gaussians
    18 alpha electrons       18 beta electrons
       nuclear repulsion energy       169.8288422228 Hartrees.
 One-electron integrals computed using PRISM.
 NBasis=    49 RedAO= T  NBF=    39    10
 NBsUse=    49 1.00D-04 NBFU=    39    10
 Projected INDO Guess.
 Initial guess orbital symmetries:
       Occupied  (A') (A') (A') (A') (A') (A') (A') (A') (A') (A')
                 (A') (A") (A') (A') (A") (A") (A') (A')
       Virtual   (A") (A') (A") (A') (A') (A') (A') (A') (A') (A')
                 (A') (A') (A') (A') (A') (A') (A') (A') (A') (A')
                 (A') (A') (A') (A') (A') (A') (A") (A") (A") (A")
                 (A")
 Requested convergence on RMS density matrix=1.00D-08 within  64 cycles.
 Requested convergence on MAX density matrix=1.00D-06.
 Keep R1 and R2 integrals in memory in canonical form, NReq=     2315124.
 Integral accuracy reduced to 1.0D-05 until final iterations.
 Initial convergence to 1.0D-05 achieved.  Increase integral accuracy.
 SCF Done:  E(RB-LYP) =  -256.708329750     A.U. after   15 cycles
             Convg  =    0.8052D-08             -V/T =  2.0037
             S**2   =   0.0000

 **********************************************************************

            Population analysis using the SCF density.

 **********************************************************************

 Orbital Symmetries:
       Occupied  (A') (A') (A') (A') (A') (A') (A') (A') (A') (A')
                 (A') (A") (A') (A') (A") (A") (A') (A')
       Virtual   (A") (A") (A') (A') (A') (A') (A') (A') (A') (A')
                 (A") (A') (A') (A') (A") (A') (A") (A') (A') (A")
                 (A') (A") (A') (A') (A') (A') (A') (A') (A') (A')
                 (A')
  The electronic state is 1-A'.
 Alpha  occ. eigenvalues --  -14.05688 -14.01142 -13.99179 -13.96656  -9.94985
 Alpha  occ. eigenvalues --   -1.10979  -0.88814  -0.84449  -0.62816  -0.61960
 Alpha  occ. eigenvalues --   -0.55272  -0.45986  -0.45589  -0.30873  -0.29453
 Alpha  occ. eigenvalues --   -0.27850  -0.22894  -0.20819
 Alpha virt. eigenvalues --   -0.03384   0.00382   0.05191   0.09978   0.17620
 Alpha virt. eigenvalues --    0.20628   0.29655   0.34341   0.41677   0.63477
 Alpha virt. eigenvalues --    0.63857   0.76341   0.78338   0.86476   0.95348
 Alpha virt. eigenvalues --    0.98780   1.01276   1.02179   1.06061   1.09185
 Alpha virt. eigenvalues --    1.12886   1.14329   1.19806   1.30822   1.32913
 Alpha virt. eigenvalues --    1.39895   1.61010   2.05866   2.32994   2.61716
 Alpha virt. eigenvalues --    2.68719
          Condensed to atoms (all electrons):
              1          2          3          4          5          6
  1  N    6.913020   0.190137  -0.129654   0.005287   0.222498  -0.117677
  2  N    0.190137   7.000885   0.105154  -0.019542  -0.120760  -0.132327
  3  N   -0.129654   0.105154   7.188994   0.310585  -0.085593   0.164728
  4  H    0.005287  -0.019542   0.310585   0.367657   0.004175  -0.014206
  5  N    0.222498  -0.120760  -0.085593   0.004175   7.007532   0.345809
  6  C   -0.117677  -0.132327   0.164728  -0.014206   0.345809   5.020995
  7  H    0.004813   0.002117  -0.046724   0.001529  -0.033312   0.359065
              7
  1  N    0.004813
  2  N    0.002117
  3  N   -0.046724
  4  H    0.001529
  5  N   -0.033312
  6  C    0.359065
  7  H    0.468716
 Total atomic charges:
              1
  1  N   -0.088424
  2  N   -0.025664
  3  N   -0.507489
  4  H    0.344515
  5  N   -0.340348
  6  C    0.373614
  7  H    0.243796
 Sum of Mulliken charges=   0.00000
 Atomic charges with hydrogens summed into heavy atoms:
              1
  1  N   -0.088424
  2  N   -0.025664
  3  N   -0.162974
  4  H    0.000000
  5  N   -0.340348
  6  C    0.617410
  7  H    0.000000
 Sum of Mulliken charges=   0.00000
 Electronic spatial extent (au):  <R**2>=   244.4703
 Charge=     0.0000 electrons
 Dipole moment (Debye):
    X=     2.4132    Y=     4.7638    Z=     0.0000  Tot=     5.3402
 Quadrupole moment (Debye-Ang):
   XX=   -29.1993   YY=   -26.5187   ZZ=   -27.7899
   XY=     1.6113   XZ=     0.0000   YZ=     0.0000
 Octapole moment (Debye-Ang**2):
  XXX=    10.5216  YYY=    21.2438  ZZZ=     0.0000  XYY=    -0.7039
  XXY=     4.1955  XXZ=     0.0000  XZZ=    -1.0467  YZZ=     0.2172
  YYZ=     0.0000  XYZ=     0.0000
 Hexadecapole moment (Debye-Ang**3):
 XXXX=  -134.7779 YYYY=  -111.9792 ZZZZ=   -22.2843 XXXY=     5.4334
 XXXZ=     0.0000 YYYX=    -0.9719 YYYZ=     0.0000 ZZZX=     0.0000
 ZZZY=     0.0000 XXYY=   -50.1442 XXZZ=   -28.1853 YYZZ=   -26.1730
 XXYZ=     0.0000 YYXZ=     0.0000 ZZXY=    -0.3642
 N-N= 1.698288422228D+02 E-N=-9.388780115520D+02  KE= 2.557509940189D+02
 Symmetry A'   KE= 2.461852549227D+02
 Symmetry A"   KE= 9.565739096172D+00
 ***** Axes restored to original set *****
 -------------------------------------------------------------------
 Center     Atomic                   Forces (Hartrees/Bohr)
 Number     Number              X              Y              Z
 -------------------------------------------------------------------
    1          7          -0.106635665   -0.047909297    0.000000000
    2          7          -0.046586372    0.111416587    0.000000000
    3          7           0.061098618    0.027811425    0.000000000
    4          1           0.013640289    0.018248444    0.000000000
    5          7           0.005055407   -0.092022860    0.000000000
    6          6           0.065253278   -0.014202117    0.000000000
    7          1           0.008174445   -0.003342182    0.000000000
 -------------------------------------------------------------------
 Cartesian Forces:  Max     0.111416587 RMS     0.046958663

 GradGradGradGradGradGradGradGradGradGradGradGradGradGradGradGradGradGrad
 Berny optimization.
 Internal  Forces:  Max     0.107151017 RMS     0.037215955
 Search for a local minimum.
 Step number   1 out of a maximum of  36
 All quantities printed in internal units (Hartrees-Bohrs-Radians)
 Second derivative matrix not updated -- first step.
     Eigenvalues ---    0.02505   0.02639   0.02674   0.02834   0.16000
     Eigenvalues ---    0.16000   0.22605   0.24688   0.37515   0.48737
     Eigenvalues ---    0.50885   0.56605   0.58506   0.66912   0.78894
     Eigenvalues --- 1000.000001000.000001000.000001000.000001000.00000
     Eigenvalues --- 1000.000001000.000001000.000001000.000001000.00000
     Eigenvalues --- 1000.00000
 RFO step:  Lambda=-5.05781675D-02.
 Linear search not attempted -- first point.
 Iteration  1 RMS(Cart)=  0.05361284 RMS(Int)=  0.00026884
 Iteration  2 RMS(Cart)=  0.00014942 RMS(Int)=  0.00020563
 Iteration  3 RMS(Cart)=  0.00000004 RMS(Int)=  0.00020563
 Variable       Old X    -DE/DX   Delta X   Delta X   Delta X     New X
                                 (Linear)    (Quad)   (Total)
    R1        2.36623   0.10715   0.00000   0.12679   0.12708   2.49331
    R2        2.53474   0.08318   0.00000   0.13738   0.13753   2.67227
    R3        2.50608   0.08802   0.00000   0.13520   0.13523   2.64131
    R4        1.87862   0.02277   0.00000   0.04234   0.04234   1.92095
    R5        2.51367   0.05967   0.00000   0.08712   0.08685   2.60052
    R6        2.43647   0.07320   0.00000   0.09368   0.09348   2.52995
    R7        2.01777   0.00883   0.00000   0.02074   0.02074   2.03852
    A1        1.94380  -0.01184   0.00000  -0.01879  -0.01828   1.92552
    A2        1.86179  -0.00655   0.00000  -0.00595  -0.00557   1.85622
    A3        2.10759  -0.00198   0.00000  -0.00080  -0.00066   2.10692
    A4        1.88535   0.00510   0.00000   0.00704   0.00678   1.89213
    A5        2.29025  -0.00312   0.00000  -0.00625  -0.00611   2.28413
    A6        1.84604   0.00535   0.00000   0.01045   0.01029   1.85633
    A7        1.88780   0.00794   0.00000   0.00725   0.00677   1.89457
    A8        2.18241  -0.00386   0.00000  -0.00310  -0.00286   2.17955
    A9        2.21298  -0.00408   0.00000  -0.00415  -0.00391   2.20907
    D1        0.00000   0.00000   0.00000   0.00000   0.00000   0.00000
    D2        0.00000   0.00000   0.00000   0.00000   0.00000   0.00000
    D3        3.14159   0.00000   0.00000   0.00000   0.00000   3.14159
    D4        0.00000   0.00000   0.00000   0.00000   0.00000   0.00000
    D5        0.00000   0.00000   0.00000   0.00000   0.00000   0.00000
    D6        3.14159   0.00000   0.00000   0.00000   0.00000   3.14159
    D7        3.14159   0.00000   0.00000   0.00000   0.00000   3.14159
    D8        0.00000   0.00000   0.00000   0.00000   0.00000   0.00000
    D9        0.00000   0.00000   0.00000   0.00000   0.00000   0.00000
   D10        3.14159   0.00000   0.00000   0.00000   0.00000   3.14159
         Item               Value     Threshold  Converged?
 Maximum Force            0.107151     0.000450     NO 
 RMS     Force            0.037216     0.000300     NO 
 Maximum Displacement     0.143906     0.001800     NO 
 RMS     Displacement     0.053612     0.001200     NO 
 Predicted change in Energy=-2.346860D-02
 GradGradGradGradGradGradGradGradGradGradGradGradGradGradGradGradGradGrad

                          Input orientation:                          
 ---------------------------------------------------------------------
 Center     Atomic     Atomic              Coordinates (Angstroms)
 Number     Number      Type              X           Y           Z
 ---------------------------------------------------------------------
    1          7             0       -1.199445   -0.274184    0.000000
    2          7             0       -0.721305    0.955535    0.000000
    3          7             0        0.671324    0.836309    0.000000
    4          1             0        1.263227    1.662732    0.000000
    5          7             0       -0.141514   -1.212517    0.000000
    6          6             0        0.992994   -0.501704    0.000000
    7          1             0        1.997626   -0.894626    0.000000
 ---------------------------------------------------------------------
                    Distance matrix (angstroms):
                    1          2          3          4          5
     1  N    0.000000
     2  N    1.319404   0.000000
     3  N    2.175540   1.397723   0.000000
     4  H    3.133113   2.106773   1.016525   0.000000
     5  N    1.414102   2.244238   2.204176   3.200055   0.000000
     6  C    2.204212   2.249970   1.376136   2.181240   1.338792
     7  H    3.256718   3.288720   2.180645   2.660718   2.162632
                    6          7
     6  C    0.000000
     7  H    1.078737   0.000000
 Stoichiometry    CH2N4
 Framework group  CS[SG(CH2N4)]
 Deg. of freedom   11
 Full point group                 CS      NOp   2
 Largest Abelian subgroup         CS      NOp   2
 Largest concise Abelian subgroup C1      NOp   1
                         Standard orientation:                         
 ---------------------------------------------------------------------
 Center     Atomic     Atomic              Coordinates (Angstroms)
 Number     Number      Type              X           Y           Z
 ---------------------------------------------------------------------
    1          7             0       -0.746088   -0.959842    0.000000
    2          7             0       -1.153873    0.294964    0.000000
    3          7             0        0.000000    1.083764    0.000000
    4          1             0       -0.064521    2.098240    0.000000
    5          7             0        0.666854   -1.017116    0.000000
    6          6             0        1.095669    0.251143    0.000000
    7          1             0        2.122252    0.582507    0.000000
 ---------------------------------------------------------------------
 Rotational constants (GHZ):     10.0116885      9.8009425      4.9525973
 Isotopes: N-14,N-14,N-14,H-1,N-14,C-12,H-1
 Standard basis: 3-21G (6D, 7F)
 There are    39 symmetry adapted basis functions of A'  symmetry.
 There are    10 symmetry adapted basis functions of A"  symmetry.
 Crude estimate of integral set expansion from redundant integrals=1.000.
 Integral buffers will be    131072 words long.
 Raffenetti 2 integral format.
 Two-electron integral symmetry is turned on.
    49 basis functions       81 primitive gaussians
    18 alpha electrons       18 beta electrons
       nuclear repulsion energy       162.5052262296 Hartrees.
 One-electron integrals computed using PRISM.
 NBasis=    49 RedAO= T  NBF=    39    10
 NBsUse=    49 1.00D-04 NBFU=    39    10
 Initial guess read from the read-write file:
 Initial guess orbital symmetries:
       Occupied  (A') (A') (A') (A') (A') (A') (A') (A') (A') (A')
                 (A') (A") (A') (A') (A") (A") (A') (A')
       Virtual   (A") (A") (A') (A') (A') (A') (A') (A') (A') (A')
                 (A") (A') (A') (A') (A") (A') (A") (A') (A') (A")
                 (A') (A") (A') (A') (A') (A') (A') (A') (A') (A')
                 (A')
 Requested convergence on RMS density matrix=1.00D-08 within  64 cycles.
 Requested convergence on MAX density matrix=1.00D-06.
 Keep R1 and R2 integrals in memory in canonical form, NReq=     2315124.
 Integral accuracy reduced to 1.0D-05 until final iterations.
 Initial convergence to 1.0D-05 achieved.  Increase integral accuracy.
 SCF Done:  E(RB-LYP) =  -256.738294744     A.U. after   15 cycles
             Convg  =    0.7488D-08             -V/T =  2.0073
             S**2   =   0.0000
 ***** Axes restored to original set *****
 -------------------------------------------------------------------
 Center     Atomic                   Forces (Hartrees/Bohr)
 Number     Number              X              Y              Z
 -------------------------------------------------------------------
    1          7          -0.022986191   -0.009861684    0.000000000
    2          7          -0.015124370    0.036868104    0.000000000
    3          7           0.022067347   -0.003882888    0.000000000
    4          1           0.001786700    0.003915748    0.000000000
    5          7           0.014686118   -0.031095012    0.000000000
    6          6          -0.001252782    0.004705344    0.000000000
    7          1           0.000823178   -0.000649612    0.000000000
 -------------------------------------------------------------------
 Cartesian Forces:  Max     0.036868104 RMS     0.013700161

 GradGradGradGradGradGradGradGradGradGradGradGradGradGradGradGradGradGrad
 Berny optimization.
 Internal  Forces:  Max     0.029581088 RMS     0.009692466
 Search for a local minimum.
 Step number   2 out of a maximum of  36
 All quantities printed in internal units (Hartrees-Bohrs-Radians)
 Update second derivatives using information from points  1  2
 Trust test= 1.28D+00 RLast= 2.69D-01 DXMaxT set to 4.24D-01
     Eigenvalues ---    0.02504   0.02634   0.02677   0.02834   0.16000
     Eigenvalues ---    0.16002   0.22571   0.24406   0.37546   0.46919
     Eigenvalues ---    0.49097   0.53884   0.58152   0.68459   0.74868
     Eigenvalues --- 1000.000001000.000001000.000001000.000001000.00000
     Eigenvalues --- 1000.000001000.000001000.000001000.000001000.00000
     Eigenvalues --- 1000.00000
 RFO step:  Lambda=-2.61877667D-03.
 Quartic linear search produced a step of  0.40886.
 Iteration  1 RMS(Cart)=  0.02645795 RMS(Int)=  0.00043138
 Iteration  2 RMS(Cart)=  0.00045566 RMS(Int)=  0.00010259
 Iteration  3 RMS(Cart)=  0.00000010 RMS(Int)=  0.00010259
 Variable       Old X    -DE/DX   Delta X   Delta X   Delta X     New X
                                 (Linear)    (Quad)   (Total)
    R1        2.49331   0.02958   0.05196   0.01411   0.06622   2.55953
    R2        2.67227   0.02549   0.05623   0.02484   0.08115   2.75342
    R3        2.64131   0.02188   0.05529   0.01069   0.06599   2.70730
    R4        1.92095   0.00422   0.01731  -0.00001   0.01730   1.93825
    R5        2.60052   0.00676   0.03551  -0.01518   0.02020   2.62072
    R6        2.52995   0.00796   0.03822  -0.01626   0.02186   2.55181
    R7        2.03852   0.00100   0.00848  -0.00176   0.00672   2.04523
    A1        1.92552   0.00264  -0.00747   0.03943   0.03221   1.95774
    A2        1.85622  -0.00949  -0.00228  -0.03638  -0.03847   1.81776
    A3        2.10692  -0.00238  -0.00027  -0.00979  -0.01000   2.09693
    A4        1.89213   0.00316   0.00277   0.00503   0.00767   1.89980
    A5        2.28413  -0.00078  -0.00250   0.00476   0.00233   2.28646
    A6        1.85633  -0.00650   0.00421  -0.04696  -0.04283   1.81350
    A7        1.89457   0.01019   0.00277   0.03888   0.04141   1.93598
    A8        2.17955  -0.00478  -0.00117  -0.01683  -0.01788   2.16166
    A9        2.20907  -0.00540  -0.00160  -0.02205  -0.02353   2.18554
    D1        0.00000   0.00000   0.00000   0.00000   0.00000   0.00000
    D2        0.00000   0.00000   0.00000   0.00000   0.00000   0.00000
    D3        3.14159   0.00000   0.00000   0.00000   0.00000   3.14159
    D4        0.00000   0.00000   0.00000   0.00000   0.00000   0.00000
    D5        0.00000   0.00000   0.00000   0.00000   0.00000   0.00000
    D6        3.14159   0.00000   0.00000   0.00000   0.00000   3.14159
    D7        3.14159   0.00000   0.00000   0.00000   0.00000   3.14159
    D8        0.00000   0.00000   0.00000   0.00000   0.00000   0.00000
    D9        0.00000   0.00000   0.00000   0.00000   0.00000   0.00000
   D10        3.14159   0.00000   0.00000   0.00000   0.00000   3.14159
         Item               Value     Threshold  Converged?
 Maximum Force            0.029581     0.000450     NO 
 RMS     Force            0.009692     0.000300     NO 
 Maximum Displacement     0.088481     0.001800     NO 
 RMS     Displacement     0.026433     0.001200     NO 
 Predicted change in Energy=-4.533952D-03
 GradGradGradGradGradGradGradGradGradGradGradGradGradGradGradGradGradGrad

                          Input orientation:                          
 ---------------------------------------------------------------------
 Center     Atomic     Atomic              Coordinates (Angstroms)
 Number     Number      Type              X           Y           Z
 ---------------------------------------------------------------------
    1          7             0       -1.196278   -0.277149    0.000000
    2          7             0       -0.731762    0.995149    0.000000
    3          7             0        0.693273    0.847700    0.000000
    4          1             0        1.296912    1.676939    0.000000
    5          7             0       -0.117358   -1.256391    0.000000
    6          6             0        1.003895   -0.503888    0.000000
    7          1             0        2.014901   -0.890181    0.000000
 ---------------------------------------------------------------------
                    Distance matrix (angstroms):
                    1          2          3          4          5
     1  N    0.000000
     2  N    1.354444   0.000000
     3  N    2.199021   1.432643   0.000000
     4  H    3.167721   2.140176   1.025678   0.000000
     5  N    1.457047   2.333865   2.254845   3.256467   0.000000
     6  C    2.211826   2.293385   1.386823   2.200424   1.350358
     7  H    3.269171   3.331460   2.183330   2.665635   2.163478
                    6          7
     6  C    0.000000
     7  H    1.082292   0.000000
 Stoichiometry    CH2N4
 Framework group  CS[SG(CH2N4)]
 Deg. of freedom   11
 Full point group                 CS      NOp   2
 Largest Abelian subgroup         CS      NOp   2
 Largest concise Abelian subgroup C1      NOp   1
                         Standard orientation:                         
 ---------------------------------------------------------------------
 Center     Atomic     Atomic              Coordinates (Angstroms)
 Number     Number      Type              X           Y           Z
 ---------------------------------------------------------------------
    1          7             0       -0.747689   -0.969099    0.000000
    2          7             0       -1.195353    0.309226    0.000000
    3          7             0        0.000000    1.098908    0.000000
    4          1             0       -0.059126    2.122880    0.000000
    5          7             0        0.707530   -1.042056    0.000000
    6          6             0        1.097289    0.250831    0.000000
    7          1             0        2.123975    0.593279    0.000000
 ---------------------------------------------------------------------
 Rotational constants (GHZ):      9.7772817      9.3158118      4.7704850
 Isotopes: N-14,N-14,N-14,H-1,N-14,C-12,H-1
 Standard basis: 3-21G (6D, 7F)
 There are    39 symmetry adapted basis functions of A'  symmetry.
 There are    10 symmetry adapted basis functions of A"  symmetry.
 Crude estimate of integral set expansion from redundant integrals=1.000.
 Integral buffers will be    131072 words long.
 Raffenetti 2 integral format.
 Two-electron integral symmetry is turned on.
    49 basis functions       81 primitive gaussians
    18 alpha electrons       18 beta electrons
       nuclear repulsion energy       159.5433013583 Hartrees.
 One-electron integrals computed using PRISM.
 NBasis=    49 RedAO= T  NBF=    39    10
 NBsUse=    49 1.00D-04 NBFU=    39    10
 Initial guess read from the read-write file:
 Initial guess orbital symmetries:
       Occupied  (A') (A') (A') (A') (A') (A') (A') (A') (A') (A')
                 (A') (A') (A") (A') (A") (A") (A') (A')
       Virtual   (A") (A") (A') (A') (A') (A') (A') (A') (A') (A')
                 (A") (A') (A') (A') (A") (A') (A") (A') (A') (A")
                 (A") (A') (A') (A') (A') (A') (A') (A') (A') (A')
                 (A')
 Requested convergence on RMS density matrix=1.00D-08 within  64 cycles.
 Requested convergence on MAX density matrix=1.00D-06.
 Keep R1 and R2 integrals in memory in canonical form, NReq=     2315124.
 Integral accuracy reduced to 1.0D-05 until final iterations.
 Initial convergence to 1.0D-05 achieved.  Increase integral accuracy.
 SCF Done:  E(RB-LYP) =  -256.741471220     A.U. after   15 cycles
             Convg  =    0.3270D-08             -V/T =  2.0084
             S**2   =   0.0000
 ***** Axes restored to original set *****
 -------------------------------------------------------------------
 Center     Atomic                   Forces (Hartrees/Bohr)
 Number     Number              X              Y              Z
 -------------------------------------------------------------------
    1          7          -0.016482442    0.000824317    0.000000000
    2          7           0.000540177   -0.006277047    0.000000000
    3          7           0.010824395   -0.006879618    0.000000000
    4          1          -0.000584337   -0.002383515    0.000000000
    5          7           0.009551051    0.007066774    0.000000000
    6          6          -0.003667648    0.006908210    0.000000000
    7          1          -0.000181195    0.000740880    0.000000000
 -------------------------------------------------------------------
 Cartesian Forces:  Max     0.016482442 RMS     0.005713315

 GradGradGradGradGradGradGradGradGradGradGradGradGradGradGradGradGradGrad
 Berny optimization.
 Internal  Forces:  Max     0.013466288 RMS     0.004605193
 Search for a local minimum.
 Step number   3 out of a maximum of  36
 All quantities printed in internal units (Hartrees-Bohrs-Radians)
 Update second derivatives using information from points  1  2  3
 Trust test= 7.01D-01 RLast= 1.54D-01 DXMaxT set to 4.24D-01
     Eigenvalues ---    0.02506   0.02635   0.02679   0.02832   0.16000
     Eigenvalues ---    0.16032   0.21586   0.27527   0.33321   0.37602
     Eigenvalues ---    0.48983   0.53483   0.61820   0.68363   0.77440
     Eigenvalues --- 1000.000001000.000001000.000001000.000001000.00000
     Eigenvalues --- 1000.000001000.000001000.000001000.000001000.00000
     Eigenvalues --- 1000.00000
 RFO step:  Lambda=-1.32021730D-03.
 Quartic linear search produced a step of -0.09124.
 Iteration  1 RMS(Cart)=  0.01325802 RMS(Int)=  0.00015631
 Iteration  2 RMS(Cart)=  0.00012420 RMS(Int)=  0.00005886
 Iteration  3 RMS(Cart)=  0.00000001 RMS(Int)=  0.00005886
 Variable       Old X    -DE/DX   Delta X   Delta X   Delta X     New X
                                 (Linear)    (Quad)   (Total)
    R1        2.55953  -0.00050  -0.00604   0.01691   0.01094   2.57047
    R2        2.75342   0.00519  -0.00740   0.02915   0.02181   2.77523
    R3        2.70730   0.00642  -0.00602   0.02611   0.02006   2.72736
    R4        1.93825  -0.00227  -0.00158  -0.00012  -0.00170   1.93655
    R5        2.62072  -0.01280  -0.00184  -0.01606  -0.01798   2.60273
    R6        2.55181  -0.00293  -0.00199   0.00094  -0.00108   2.55073
    R7        2.04523  -0.00043  -0.00061   0.00048  -0.00014   2.04510
    A1        1.95774  -0.01347  -0.00294  -0.03612  -0.03889   1.91885
    A2        1.81776   0.00693   0.00351   0.01994   0.02349   1.84125
    A3        2.09693   0.00168   0.00091   0.00742   0.00840   2.10532
    A4        1.89980  -0.00154  -0.00070  -0.00750  -0.00832   1.89148
    A5        2.28646  -0.00014  -0.00021   0.00007  -0.00008   2.28638
    A6        1.81350   0.00835   0.00391   0.01947   0.02340   1.83691
    A7        1.93598  -0.00028  -0.00378   0.00421   0.00031   1.93630
    A8        2.16166  -0.00050   0.00163  -0.00510  -0.00341   2.15825
    A9        2.18554   0.00077   0.00215   0.00089   0.00310   2.18864
    D1        0.00000   0.00000   0.00000   0.00000   0.00000   0.00000
    D2        0.00000   0.00000   0.00000   0.00000   0.00000   0.00000
    D3        3.14159   0.00000   0.00000   0.00000   0.00000   3.14159
    D4        0.00000   0.00000   0.00000   0.00000   0.00000   0.00000
    D5        0.00000   0.00000   0.00000   0.00000   0.00000   0.00000
    D6        3.14159   0.00000   0.00000   0.00000   0.00000   3.14159
    D7        3.14159   0.00000   0.00000   0.00000   0.00000   3.14159
    D8        0.00000   0.00000   0.00000   0.00000   0.00000   0.00000
    D9        0.00000   0.00000   0.00000   0.00000   0.00000   0.00000
   D10        3.14159   0.00000   0.00000   0.00000   0.00000   3.14159
         Item               Value     Threshold  Converged?
 Maximum Force            0.013466     0.000450     NO 
 RMS     Force            0.004605     0.000300     NO 
 Maximum Displacement     0.051036     0.001800     NO 
 RMS     Displacement     0.013282     0.001200     NO 
 Predicted change in Energy=-6.913444D-04
 GradGradGradGradGradGradGradGradGradGradGradGradGradGradGradGradGradGrad

                          Input orientation:                          
 ---------------------------------------------------------------------
 Center     Atomic     Atomic              Coordinates (Angstroms)
 Number     Number      Type              X           Y           Z
 ---------------------------------------------------------------------
    1          7             0       -1.219683   -0.281106    0.000000
    2          7             0       -0.730269    0.988031    0.000000
    3          7             0        0.706121    0.847390    0.000000
    4          1             0        1.311625    1.674150    0.000000
    5          7             0       -0.111825   -1.245163    0.000000
    6          6             0        1.010831   -0.495787    0.000000
    7          1             0        2.022000   -0.881453    0.000000
 ---------------------------------------------------------------------
                    Distance matrix (angstroms):
                    1          2          3          4          5
     1  N    0.000000
     2  N    1.360234   0.000000
     3  N    2.232090   1.443259   0.000000
     4  H    3.198523   2.154087   1.024777   0.000000
     5  N    1.468589   2.317246   2.246733   3.247861   0.000000
     6  C    2.240822   2.287607   1.377306   2.190686   1.349786
     7  H    3.296805   3.327154   2.172656   2.652497   2.164600
                    6          7
     6  C    0.000000
     7  H    1.082220   0.000000
 Stoichiometry    CH2N4
 Framework group  CS[SG(CH2N4)]
 Deg. of freedom   11
 Full point group                 CS      NOp   2
 Largest Abelian subgroup         CS      NOp   2
 Largest concise Abelian subgroup C1      NOp   1
                         Standard orientation:                         
 ---------------------------------------------------------------------
 Center     Atomic     Atomic              Coordinates (Angstroms)
 Number     Number      Type              X           Y           Z
 ---------------------------------------------------------------------
    1          7             0       -0.753969   -0.995861    0.000000
    2          7             0       -1.192330    0.291802    0.000000
    3          7             0        0.000000    1.105033    0.000000
    4          1             0       -0.065593    2.127709    0.000000
    5          7             0        0.714328   -1.025119    0.000000
    6          6             0        1.095171    0.269825    0.000000
    7          1             0        2.118362    0.622359    0.000000
 ---------------------------------------------------------------------
 Rotational constants (GHZ):      9.6056030      9.3806251      4.7458905
 Isotopes: N-14,N-14,N-14,H-1,N-14,C-12,H-1
 Standard basis: 3-21G (6D, 7F)
 There are    39 symmetry adapted basis functions of A'  symmetry.
 There are    10 symmetry adapted basis functions of A"  symmetry.
 Crude estimate of integral set expansion from redundant integrals=1.000.
 Integral buffers will be    131072 words long.
 Raffenetti 2 integral format.
 Two-electron integral symmetry is turned on.
    49 basis functions       81 primitive gaussians
    18 alpha electrons       18 beta electrons
       nuclear repulsion energy       159.1382280146 Hartrees.
 One-electron integrals computed using PRISM.
 NBasis=    49 RedAO= T  NBF=    39    10
 NBsUse=    49 1.00D-04 NBFU=    39    10
 Initial guess read from the read-write file:
 Initial guess orbital symmetries:
       Occupied  (A') (A') (A') (A') (A') (A') (A') (A') (A') (A')
                 (A') (A') (A") (A') (A") (A") (A') (A')
       Virtual   (A") (A") (A') (A') (A') (A') (A') (A') (A') (A')
                 (A") (A') (A') (A') (A") (A') (A") (A') (A') (A")
                 (A") (A') (A') (A') (A') (A') (A') (A') (A') (A')
                 (A')
 Requested convergence on RMS density matrix=1.00D-08 within  64 cycles.
 Requested convergence on MAX density matrix=1.00D-06.
 Keep R1 and R2 integrals in memory in canonical form, NReq=     2315124.
 Integral accuracy reduced to 1.0D-05 until final iterations.
 Initial convergence to 1.0D-05 achieved.  Increase integral accuracy.
 SCF Done:  E(RB-LYP) =  -256.741900523     A.U. after   13 cycles
             Convg  =    0.8835D-08             -V/T =  2.0086
             S**2   =   0.0000
 ***** Axes restored to original set *****
 -------------------------------------------------------------------
 Center     Atomic                   Forces (Hartrees/Bohr)
 Number     Number              X              Y              Z
 -------------------------------------------------------------------
    1          7           0.007738601    0.005789415    0.000000000
    2          7          -0.003068479    0.000988983    0.000000000
    3          7          -0.000370681   -0.005836698    0.000000000
    4          1          -0.001614357   -0.000920950    0.000000000
    5          7           0.006054412   -0.002180037    0.000000000
    6          6          -0.008165901    0.002620329    0.000000000
    7          1          -0.000573595   -0.000461043    0.000000000
 -------------------------------------------------------------------
 Cartesian Forces:  Max     0.008165901 RMS     0.003497984

 GradGradGradGradGradGradGradGradGradGradGradGradGradGradGradGradGradGrad
 Berny optimization.
 Internal  Forces:  Max     0.007284088 RMS     0.002782032
 Search for a local minimum.
 Step number   4 out of a maximum of  36
 All quantities printed in internal units (Hartrees-Bohrs-Radians)
 Update second derivatives using information from points  1  2  3  4
 Trust test= 6.21D-01 RLast= 6.40D-02 DXMaxT set to 4.24D-01
     Eigenvalues ---    0.02504   0.02631   0.02683   0.02834   0.16003
     Eigenvalues ---    0.16069   0.21973   0.25704   0.37555   0.46162
     Eigenvalues ---    0.48922   0.54138   0.58909   0.72919   0.79473
     Eigenvalues --- 1000.000001000.000001000.000001000.000001000.00000
     Eigenvalues --- 1000.000001000.000001000.000001000.000001000.00000
     Eigenvalues --- 1000.00000
 RFO step:  Lambda=-1.69854382D-04.
 Quartic linear search produced a step of -0.27525.
 Iteration  1 RMS(Cart)=  0.00482966 RMS(Int)=  0.00002132
 Iteration  2 RMS(Cart)=  0.00001217 RMS(Int)=  0.00001568
 Iteration  3 RMS(Cart)=  0.00000000 RMS(Int)=  0.00001568
 Variable       Old X    -DE/DX   Delta X   Delta X   Delta X     New X
                                 (Linear)    (Quad)   (Total)
    R1        2.57047  -0.00442  -0.00301  -0.00149  -0.00452   2.56595
    R2        2.77523   0.00066  -0.00600   0.00691   0.00089   2.77612
    R3        2.72736  -0.00234  -0.00552   0.00325  -0.00226   2.72510
    R4        1.93655  -0.00170   0.00047  -0.00342  -0.00296   1.93359
    R5        2.60273  -0.00333   0.00495  -0.01122  -0.00625   2.59648
    R6        2.55073  -0.00728   0.00030  -0.00791  -0.00760   2.54312
    R7        2.04510  -0.00037   0.00004  -0.00075  -0.00071   2.04438
    A1        1.91885   0.00568   0.01070  -0.00004   0.01062   1.92947
    A2        1.84125  -0.00580  -0.00647  -0.00449  -0.01097   1.83028
    A3        2.10532  -0.00197  -0.00231  -0.00265  -0.00498   2.10035
    A4        1.89148   0.00248   0.00229   0.00305   0.00537   1.89685
    A5        2.28638  -0.00051   0.00002  -0.00040  -0.00039   2.28599
    A6        1.83691  -0.00477  -0.00644  -0.00233  -0.00878   1.82812
    A7        1.93630   0.00241  -0.00009   0.00382   0.00377   1.94006
    A8        2.15825  -0.00055   0.00094  -0.00043   0.00049   2.15874
    A9        2.18864  -0.00186  -0.00085  -0.00339  -0.00426   2.18438
    D1        0.00000   0.00000   0.00000   0.00000   0.00000   0.00000
    D2        0.00000   0.00000   0.00000   0.00000   0.00000   0.00000
    D3        3.14159   0.00000   0.00000   0.00000   0.00000   3.14159
    D4        0.00000   0.00000   0.00000   0.00000   0.00000   0.00000
    D5        0.00000   0.00000   0.00000   0.00000   0.00000   0.00000
    D6        3.14159   0.00000   0.00000   0.00000   0.00000   3.14159
    D7        3.14159   0.00000   0.00000   0.00000   0.00000   3.14159
    D8        0.00000   0.00000   0.00000   0.00000   0.00000   0.00000
    D9        0.00000   0.00000   0.00000   0.00000   0.00000   0.00000
   D10        3.14159   0.00000   0.00000   0.00000   0.00000   3.14159
         Item               Value     Threshold  Converged?
 Maximum Force            0.007284     0.000450     NO 
 RMS     Force            0.002782     0.000300     NO 
 Maximum Displacement     0.015142     0.001800     NO 
 RMS     Displacement     0.004832     0.001200     NO 
 Predicted change in Energy=-1.571339D-04
 GradGradGradGradGradGradGradGradGradGradGradGradGradGradGradGradGradGrad

                          Input orientation:                          
 ---------------------------------------------------------------------
 Center     Atomic     Atomic              Coordinates (Angstroms)
 Number     Number      Type              X           Y           Z
 ---------------------------------------------------------------------
    1          7             0       -1.209143   -0.277262    0.000000
    2          7             0       -0.728333    0.992603    0.000000
    3          7             0        0.706164    0.845097    0.000000
    4          1             0        1.310653    1.670663    0.000000
    5          7             0       -0.105297   -1.246619    0.000000
    6          6             0        1.010814   -0.494703    0.000000
    7          1             0        2.021633   -0.880224    0.000000
 ---------------------------------------------------------------------
                    Distance matrix (angstroms):
                    1          2          3          4          5
     1  N    0.000000
     2  N    1.357842   0.000000
     3  N    2.219930   1.442062   0.000000
     4  H    3.184930   2.148774   1.023213   0.000000
     5  N    1.469058   2.324283   2.243601   3.242753   0.000000
     6  C    2.230581   2.288387   1.374000   2.186027   1.345764
     7  H    3.286560   3.327131   2.169606   2.648116   2.158258
                    6          7
     6  C    0.000000
     7  H    1.081842   0.000000
 Stoichiometry    CH2N4
 Framework group  CS[SG(CH2N4)]
 Deg. of freedom   11
 Full point group                 CS      NOp   2
 Largest Abelian subgroup         CS      NOp   2
 Largest concise Abelian subgroup C1      NOp   1
                         Standard orientation:                         
 ---------------------------------------------------------------------
 Center     Atomic     Atomic              Coordinates (Angstroms)
 Number     Number      Type              X           Y           Z
 ---------------------------------------------------------------------
    1          7             0       -0.751085   -0.988845    0.000000
    2          7             0       -1.195757    0.294121    0.000000
    3          7             0        0.000000    1.100165    0.000000
    4          1             0       -0.065003    2.121312    0.000000
    5          7             0        0.717513   -1.025610    0.000000
    6          6             0        1.092467    0.266864    0.000000
    7          1             0        2.115505    0.618681    0.000000
 ---------------------------------------------------------------------
 Rotational constants (GHZ):      9.6777776      9.3694170      4.7605506
 Isotopes: N-14,N-14,N-14,H-1,N-14,C-12,H-1
 Standard basis: 3-21G (6D, 7F)
 There are    39 symmetry adapted basis functions of A'  symmetry.
 There are    10 symmetry adapted basis functions of A"  symmetry.
 Crude estimate of integral set expansion from redundant integrals=1.000.
 Integral buffers will be    131072 words long.
 Raffenetti 2 integral format.
 Two-electron integral symmetry is turned on.
    49 basis functions       81 primitive gaussians
    18 alpha electrons       18 beta electrons
       nuclear repulsion energy       159.3891176143 Hartrees.
 One-electron integrals computed using PRISM.
 NBasis=    49 RedAO= T  NBF=    39    10
 NBsUse=    49 1.00D-04 NBFU=    39    10
 Initial guess read from the read-write file:
 Initial guess orbital symmetries:
       Occupied  (A') (A') (A') (A') (A') (A') (A') (A') (A') (A')
                 (A') (A') (A") (A') (A") (A") (A') (A')
       Virtual   (A") (A") (A') (A') (A') (A') (A') (A') (A') (A')
                 (A") (A') (A') (A') (A") (A') (A") (A') (A') (A")
                 (A") (A') (A') (A') (A') (A') (A') (A') (A') (A')
                 (A')
 Requested convergence on RMS density matrix=1.00D-08 within  64 cycles.
 Requested convergence on MAX density matrix=1.00D-06.
 Keep R1 and R2 integrals in memory in canonical form, NReq=     2315124.
 SCF Done:  E(RB-LYP) =  -256.742091512     A.U. after   10 cycles
             Convg  =    0.7420D-08             -V/T =  2.0085
             S**2   =   0.0000
 ***** Axes restored to original set *****
 -------------------------------------------------------------------
 Center     Atomic                   Forces (Hartrees/Bohr)
 Number     Number              X              Y              Z
 -------------------------------------------------------------------
    1          7           0.000725198    0.003588361    0.000000000
    2          7          -0.001143976   -0.002566585    0.000000000
    3          7           0.001661257   -0.001851232    0.000000000
    4          1          -0.000395848   -0.000209482    0.000000000
    5          7           0.003077231   -0.000701678    0.000000000
    6          6          -0.003845623    0.001918045    0.000000000
    7          1          -0.000078238   -0.000177429    0.000000000
 -------------------------------------------------------------------
 Cartesian Forces:  Max     0.003845623 RMS     0.001635218

 GradGradGradGradGradGradGradGradGradGradGradGradGradGradGradGradGradGrad
 Berny optimization.
 Internal  Forces:  Max     0.002803663 RMS     0.000951494
 Search for a local minimum.
 Step number   5 out of a maximum of  36
 All quantities printed in internal units (Hartrees-Bohrs-Radians)
 Update second derivatives using information from points  1  2  3  4  5

 Trust test= 1.22D+00 RLast= 2.30D-02 DXMaxT set to 4.24D-01
     Eigenvalues ---    0.02505   0.02631   0.02682   0.02833   0.15778
     Eigenvalues ---    0.16011   0.19759   0.27795   0.37551   0.44494
     Eigenvalues ---    0.46994   0.50542   0.55269   0.66817   0.76935
     Eigenvalues --- 1000.000001000.000001000.000001000.000001000.00000
     Eigenvalues --- 1000.000001000.000001000.000001000.000001000.00000
     Eigenvalues --- 1000.00000
 RFO step:  Lambda=-4.72554500D-05.
 Quartic linear search produced a step of  0.27560.
 Iteration  1 RMS(Cart)=  0.00239477 RMS(Int)=  0.00000665
 Iteration  2 RMS(Cart)=  0.00000614 RMS(Int)=  0.00000249
 Iteration  3 RMS(Cart)=  0.00000000 RMS(Int)=  0.00000249
 Variable       Old X    -DE/DX   Delta X   Delta X   Delta X     New X
                                 (Linear)    (Quad)   (Total)
    R1        2.56595  -0.00280  -0.00125  -0.00291  -0.00416   2.56179
    R2        2.77612   0.00103   0.00024   0.00449   0.00473   2.78085
    R3        2.72510  -0.00004  -0.00062   0.00210   0.00147   2.72657
    R4        1.93359  -0.00040  -0.00081  -0.00066  -0.00148   1.93212
    R5        2.59648  -0.00232  -0.00172  -0.00559  -0.00731   2.58917
    R6        2.54312  -0.00236  -0.00209  -0.00334  -0.00543   2.53770
    R7        2.04438  -0.00001  -0.00020   0.00019  -0.00001   2.04438
    A1        1.92947   0.00032   0.00293  -0.00216   0.00076   1.93022
    A2        1.83028  -0.00020  -0.00302   0.00277  -0.00026   1.83002
    A3        2.10035  -0.00005  -0.00137   0.00104  -0.00033   2.10002
    A4        1.89685  -0.00026   0.00148  -0.00379  -0.00231   1.89454
    A5        2.28599   0.00031  -0.00011   0.00274   0.00263   2.28863
    A6        1.82812  -0.00103  -0.00242  -0.00245  -0.00487   1.82325
    A7        1.94006   0.00117   0.00104   0.00564   0.00668   1.94675
    A8        2.15874  -0.00038   0.00014  -0.00162  -0.00149   2.15726
    A9        2.18438  -0.00079  -0.00117  -0.00402  -0.00519   2.17918
    D1        0.00000   0.00000   0.00000   0.00000   0.00000   0.00000
    D2        0.00000   0.00000   0.00000   0.00000   0.00000   0.00000
    D3        3.14159   0.00000   0.00000   0.00000   0.00000   3.14159
    D4        0.00000   0.00000   0.00000   0.00000   0.00000   0.00000
    D5        0.00000   0.00000   0.00000   0.00000   0.00000   0.00000
    D6        3.14159   0.00000   0.00000   0.00000   0.00000   3.14159
    D7        3.14159   0.00000   0.00000   0.00000   0.00000   3.14159
    D8        0.00000   0.00000   0.00000   0.00000   0.00000   0.00000
    D9        0.00000   0.00000   0.00000   0.00000   0.00000   0.00000
   D10        3.14159   0.00000   0.00000   0.00000   0.00000   3.14159
         Item               Value     Threshold  Converged?
 Maximum Force            0.002804     0.000450     NO 
 RMS     Force            0.000951     0.000300     NO 
 Maximum Displacement     0.005938     0.001800     NO 
 RMS     Displacement     0.002396     0.001200     NO 
 Predicted change in Energy=-3.293165D-05
 GradGradGradGradGradGradGradGradGradGradGradGradGradGradGradGradGradGrad

                          Input orientation:                          
 ---------------------------------------------------------------------
 Center     Atomic     Atomic              Coordinates (Angstroms)
 Number     Number      Type              X           Y           Z
 ---------------------------------------------------------------------
    1          7             0       -1.208841   -0.276791    0.000000
    2          7             0       -0.729179    0.991154    0.000000
    3          7             0        0.706097    0.843607    0.000000
    4          1             0        1.309831    1.668757    0.000000
    5          7             0       -0.103570   -1.248318    0.000000
    6          6             0        1.006844   -0.493111    0.000000
    7          1             0        2.017355   -0.879429    0.000000
 ---------------------------------------------------------------------
                    Distance matrix (angstroms):
                    1          2          3          4          5
     1  N    0.000000
     2  N    1.355640   0.000000
     3  N    2.218621   1.442840   0.000000
     4  H    3.182588   2.148652   1.022432   0.000000
     5  N    1.471561   2.325214   2.243147   3.241455   0.000000
     6  C    2.226221   2.284035   1.370132   2.182997   1.342892
     7  H    3.281998   3.323030   2.165236   2.644588   2.152765
                    6          7
     6  C    0.000000
     7  H    1.081837   0.000000
 Stoichiometry    CH2N4
 Framework group  CS[SG(CH2N4)]
 Deg. of freedom   11
 Full point group                 CS      NOp   2
 Largest Abelian subgroup         CS      NOp   2
 Largest concise Abelian subgroup C1      NOp   1
                         Standard orientation:                         
 ---------------------------------------------------------------------
 Center     Atomic     Atomic              Coordinates (Angstroms)
 Number     Number      Type              X           Y           Z
 ---------------------------------------------------------------------
    1          7             0       -0.750190   -0.988144    0.000000
    2          7             0       -1.195658    0.292214    0.000000
    3          7             0        0.000000    1.099796    0.000000
    4          1             0       -0.066230    2.120081    0.000000
    5          7             0        0.720926   -1.024345    0.000000
    6          6             0        1.088242    0.267335    0.000000
    7          1             0        2.111239    0.619257    0.000000
 ---------------------------------------------------------------------
 Rotational constants (GHZ):      9.6952465      9.3818987      4.7679996
 Isotopes: N-14,N-14,N-14,H-1,N-14,C-12,H-1
 Standard basis: 3-21G (6D, 7F)
 There are    39 symmetry adapted basis functions of A'  symmetry.
 There are    10 symmetry adapted basis functions of A"  symmetry.
 Crude estimate of integral set expansion from redundant integrals=1.000.
 Integral buffers will be    131072 words long.
 Raffenetti 2 integral format.
 Two-electron integral symmetry is turned on.
    49 basis functions       81 primitive gaussians
    18 alpha electrons       18 beta electrons
       nuclear repulsion energy       159.5214090823 Hartrees.
 One-electron integrals computed using PRISM.
 NBasis=    49 RedAO= T  NBF=    39    10
 NBsUse=    49 1.00D-04 NBFU=    39    10
 Initial guess read from the read-write file:
 Initial guess orbital symmetries:
       Occupied  (A') (A') (A') (A') (A') (A') (A') (A') (A') (A')
                 (A') (A') (A") (A') (A") (A") (A') (A')
       Virtual   (A") (A") (A') (A') (A') (A') (A') (A') (A') (A')
                 (A") (A') (A') (A') (A") (A') (A") (A') (A') (A")
                 (A") (A') (A') (A') (A') (A') (A') (A') (A') (A')
                 (A')
 Requested convergence on RMS density matrix=1.00D-08 within  64 cycles.
 Requested convergence on MAX density matrix=1.00D-06.
 Keep R1 and R2 integrals in memory in canonical form, NReq=     2315124.
 SCF Done:  E(RB-LYP) =  -256.742129763     A.U. after   10 cycles
             Convg  =    0.4341D-08             -V/T =  2.0084
             S**2   =   0.0000
 ***** Axes restored to original set *****
 -------------------------------------------------------------------
 Center     Atomic                   Forces (Hartrees/Bohr)
 Number     Number              X              Y              Z
 -------------------------------------------------------------------
    1          7          -0.000375798    0.002827916    0.000000000
    2          7          -0.001468973   -0.002143103    0.000000000
    3          7           0.000509034    0.000012347    0.000000000
    4          1           0.000055394    0.000132312    0.000000000
    5          7           0.000860421   -0.000472988    0.000000000
    6          6           0.000319606   -0.000259438    0.000000000
    7          1           0.000100315   -0.000097046    0.000000000
 -------------------------------------------------------------------
 Cartesian Forces:  Max     0.002827916 RMS     0.000881609

 GradGradGradGradGradGradGradGradGradGradGradGradGradGradGradGradGradGrad
 Berny optimization.
 Internal  Forces:  Max     0.002152317 RMS     0.000535748
 Search for a local minimum.
 Step number   6 out of a maximum of  36
 All quantities printed in internal units (Hartrees-Bohrs-Radians)
 Update second derivatives using information from points  1  2  3  4  5
                                                        6
 Trust test= 1.16D+00 RLast= 1.54D-02 DXMaxT set to 4.24D-01
     Eigenvalues ---    0.02505   0.02631   0.02683   0.02832   0.14655
     Eigenvalues ---    0.16012   0.18318   0.28786   0.37608   0.41087
     Eigenvalues ---    0.46098   0.49717   0.55166   0.65831   0.86073
     Eigenvalues --- 1000.000001000.000001000.000001000.000001000.00000
     Eigenvalues --- 1000.000001000.000001000.000001000.000001000.00000
     Eigenvalues --- 1000.00000
 RFO step:  Lambda=-1.33513668D-05.
 Quartic linear search produced a step of  0.17561.
 Iteration  1 RMS(Cart)=  0.00094945 RMS(Int)=  0.00000053
 Iteration  2 RMS(Cart)=  0.00000018 RMS(Int)=  0.00000050
 Variable       Old X    -DE/DX   Delta X   Delta X   Delta X     New X
                                 (Linear)    (Quad)   (Total)
    R1        2.56179  -0.00215  -0.00073  -0.00304  -0.00377   2.55802
    R2        2.78085   0.00124   0.00083   0.00352   0.00435   2.78520
    R3        2.72657   0.00085   0.00026   0.00215   0.00241   2.72898
    R4        1.93212   0.00014  -0.00026   0.00011  -0.00015   1.93197
    R5        2.58917   0.00014  -0.00128  -0.00048  -0.00177   2.58741
    R6        2.53770  -0.00006  -0.00095  -0.00068  -0.00164   2.53606
    R7        2.04438   0.00013   0.00000   0.00035   0.00035   2.04472
    A1        1.93022  -0.00005   0.00013  -0.00031  -0.00018   1.93005
    A2        1.83002   0.00039  -0.00005   0.00006   0.00001   1.83003
    A3        2.10002  -0.00001  -0.00006  -0.00071  -0.00076   2.09925
    A4        1.89454  -0.00003  -0.00040   0.00060   0.00019   1.89473
    A5        2.28863   0.00004   0.00046   0.00011   0.00057   2.28920
    A6        1.82325   0.00016  -0.00086   0.00030  -0.00055   1.82270
    A7        1.94675  -0.00046   0.00117  -0.00065   0.00052   1.94727
    A8        2.15726   0.00030  -0.00026   0.00100   0.00074   2.15800
    A9        2.17918   0.00017  -0.00091  -0.00035  -0.00127   2.17792
    D1        0.00000   0.00000   0.00000   0.00000   0.00000   0.00000
    D2        0.00000   0.00000   0.00000   0.00000   0.00000   0.00000
    D3        3.14159   0.00000   0.00000   0.00000   0.00000   3.14159
    D4        0.00000   0.00000   0.00000   0.00000   0.00000   0.00000
    D5        0.00000   0.00000   0.00000   0.00000   0.00000   0.00000
    D6        3.14159   0.00000   0.00000   0.00000   0.00000   3.14159
    D7        3.14159   0.00000   0.00000   0.00000   0.00000   3.14159
    D8        0.00000   0.00000   0.00000   0.00000   0.00000   0.00000
    D9        0.00000   0.00000   0.00000   0.00000   0.00000   0.00000
   D10        3.14159   0.00000   0.00000   0.00000   0.00000   3.14159
         Item               Value     Threshold  Converged?
 Maximum Force            0.002152     0.000450     NO 
 RMS     Force            0.000536     0.000300     NO 
 Maximum Displacement     0.002869     0.001800     NO 
 RMS     Displacement     0.000950     0.001200     YES
 Predicted change in Energy=-7.539134D-06
 GradGradGradGradGradGradGradGradGradGradGradGradGradGradGradGradGradGrad

                          Input orientation:                          
 ---------------------------------------------------------------------
 Center     Atomic     Atomic              Coordinates (Angstroms)
 Number     Number      Type              X           Y           Z
 ---------------------------------------------------------------------
    1          7             0       -1.209842   -0.275223    0.000000
    2          7             0       -0.730744    0.990804    0.000000
    3          7             0        0.705786    0.842984    0.000000
    4          1             0        1.308923    1.668473    0.000000
    5          7             0       -0.102776   -1.248199    0.000000
    6          6             0        1.006455   -0.492793    0.000000
    7          1             0        2.016885   -0.879831    0.000000
 ---------------------------------------------------------------------
                    Distance matrix (angstroms):
                    1          2          3          4          5
     1  N    0.000000
     2  N    1.353647   0.000000
     3  N    2.218112   1.444116   0.000000
     4  H    3.181530   2.149297   1.022353   0.000000
     5  N    1.473865   2.325398   2.242057   3.240350   0.000000
     6  C    2.226950   2.284495   1.369197   2.182328   1.342025
     7  H    3.282882   3.323964   2.164965   2.644818   2.151431
                    6          7
     6  C    0.000000
     7  H    1.082020   0.000000
 Stoichiometry    CH2N4
 Framework group  CS[SG(CH2N4)]
 Deg. of freedom   11
 Full point group                 CS      NOp   2
 Largest Abelian subgroup         CS      NOp   2
 Largest concise Abelian subgroup C1      NOp   1
                         Standard orientation:                         
 ---------------------------------------------------------------------
 Center     Atomic     Atomic              Coordinates (Angstroms)
 Number     Number      Type              X           Y           Z
 ---------------------------------------------------------------------
    1          7             0       -0.750868   -0.987842    0.000000
    2          7             0       -1.196309    0.290415    0.000000
    3          7             0        0.000000    1.099313    0.000000
    4          1             0       -0.067518    2.119434    0.000000
    5          7             0        0.722574   -1.023116    0.000000
    6          6             0        1.088078    0.268177    0.000000
    7          1             0        2.111265    0.620111    0.000000
 ---------------------------------------------------------------------
 Rotational constants (GHZ):      9.7060265      9.3725189      4.7681788
 Isotopes: N-14,N-14,N-14,H-1,N-14,C-12,H-1
 Standard basis: 3-21G (6D, 7F)
 There are    39 symmetry adapted basis functions of A'  symmetry.
 There are    10 symmetry adapted basis functions of A"  symmetry.
 Crude estimate of integral set expansion from redundant integrals=1.000.
 Integral buffers will be    131072 words long.
 Raffenetti 2 integral format.
 Two-electron integral symmetry is turned on.
    49 basis functions       81 primitive gaussians
    18 alpha electrons       18 beta electrons
       nuclear repulsion energy       159.5312450270 Hartrees.
 One-electron integrals computed using PRISM.
 NBasis=    49 RedAO= T  NBF=    39    10
 NBsUse=    49 1.00D-04 NBFU=    39    10
 Initial guess read from the read-write file:
 Initial guess orbital symmetries:
       Occupied  (A') (A') (A') (A') (A') (A') (A') (A') (A') (A')
                 (A') (A') (A") (A') (A") (A") (A') (A')
       Virtual   (A") (A") (A') (A') (A') (A') (A') (A') (A') (A')
                 (A") (A') (A') (A') (A") (A') (A") (A') (A') (A")
                 (A") (A') (A') (A') (A') (A') (A') (A') (A') (A')
                 (A')
 Requested convergence on RMS density matrix=1.00D-08 within  64 cycles.
 Requested convergence on MAX density matrix=1.00D-06.
 Keep R1 and R2 integrals in memory in canonical form, NReq=     2315124.
 SCF Done:  E(RB-LYP) =  -256.742140868     A.U. after   10 cycles
             Convg  =    0.2936D-08             -V/T =  2.0084
             S**2   =   0.0000
 ***** Axes restored to original set *****
 -------------------------------------------------------------------
 Center     Atomic                   Forces (Hartrees/Bohr)
 Number     Number              X              Y              Z
 -------------------------------------------------------------------
    1          7          -0.000168791    0.001933687    0.000000000
    2          7          -0.000875622   -0.001840120    0.000000000
    3          7           0.000369113    0.001087357    0.000000000
    4          1           0.000131638    0.000169131    0.000000000
    5          7          -0.000090184   -0.000822925    0.000000000
    6          6           0.000611099   -0.000550257    0.000000000
    7          1           0.000022747    0.000023128    0.000000000
 -------------------------------------------------------------------
 Cartesian Forces:  Max     0.001933687 RMS     0.000712057

 GradGradGradGradGradGradGradGradGradGradGradGradGradGradGradGradGradGrad
 Berny optimization.
 Internal  Forces:  Max     0.001431166 RMS     0.000426351
 Search for a local minimum.
 Step number   7 out of a maximum of  36
 All quantities printed in internal units (Hartrees-Bohrs-Radians)
 Update second derivatives using information from points  1  2  3  4  5
                                                        6  7
 Trust test= 1.47D+00 RLast= 6.97D-03 DXMaxT set to 4.24D-01
     Eigenvalues ---    0.02505   0.02631   0.02683   0.02832   0.10300
     Eigenvalues ---    0.16014   0.16747   0.33849   0.35583   0.37738
     Eigenvalues ---    0.45913   0.49344   0.54586   0.67219   0.87136
     Eigenvalues --- 1000.000001000.000001000.000001000.000001000.00000
     Eigenvalues --- 1000.000001000.000001000.000001000.000001000.00000
     Eigenvalues --- 1000.00000
 RFO step:  Lambda=-9.35489862D-06.
 Quartic linear search produced a step of  0.75706.
 Iteration  1 RMS(Cart)=  0.00112589 RMS(Int)=  0.00000082
 Iteration  2 RMS(Cart)=  0.00000067 RMS(Int)=  0.00000052
 Variable       Old X    -DE/DX   Delta X   Delta X   Delta X     New X
                                 (Linear)    (Quad)   (Total)
    R1        2.55802  -0.00143  -0.00285  -0.00300  -0.00585   2.55217
    R2        2.78520   0.00071   0.00330   0.00205   0.00535   2.79055
    R3        2.72898   0.00051   0.00182   0.00110   0.00292   2.73191
    R4        1.93197   0.00022  -0.00011   0.00020   0.00009   1.93206
    R5        2.58741   0.00082  -0.00134   0.00109  -0.00024   2.58716
    R6        2.53606   0.00064  -0.00124   0.00048  -0.00075   2.53531
    R7        2.04472   0.00001   0.00026  -0.00013   0.00013   2.04485
    A1        1.93005   0.00011  -0.00013   0.00036   0.00023   1.93028
    A2        1.83003   0.00064   0.00001   0.00161   0.00162   1.83165
    A3        2.09925   0.00023  -0.00058   0.00088   0.00030   2.09955
    A4        1.89473  -0.00044   0.00015  -0.00195  -0.00180   1.89294
    A5        2.28920   0.00020   0.00043   0.00107   0.00150   2.29070
    A6        1.82270  -0.00011  -0.00042  -0.00134  -0.00176   1.82094
    A7        1.94727  -0.00020   0.00040   0.00131   0.00171   1.94898
    A8        2.15800   0.00008   0.00056  -0.00069  -0.00013   2.15787
    A9        2.17792   0.00012  -0.00096  -0.00062  -0.00158   2.17633
    D1        0.00000   0.00000   0.00000   0.00000   0.00000   0.00000
    D2        0.00000   0.00000   0.00000   0.00000   0.00000   0.00000
    D3        3.14159   0.00000   0.00000   0.00000   0.00000   3.14159
    D4        0.00000   0.00000   0.00000   0.00000   0.00000   0.00000
    D5        0.00000   0.00000   0.00000   0.00000   0.00000   0.00000
    D6        3.14159   0.00000   0.00000   0.00000   0.00000   3.14159
    D7        3.14159   0.00000   0.00000   0.00000   0.00000   3.14159
    D8        0.00000   0.00000   0.00000   0.00000   0.00000   0.00000
    D9        0.00000   0.00000   0.00000   0.00000   0.00000   0.00000
   D10        3.14159   0.00000   0.00000   0.00000   0.00000   3.14159
         Item               Value     Threshold  Converged?
 Maximum Force            0.001431     0.000450     NO 
 RMS     Force            0.000426     0.000300     NO 
 Maximum Displacement     0.003357     0.001800     NO 
 RMS     Displacement     0.001126     0.001200     YES
 Predicted change in Energy=-7.040416D-06
 GradGradGradGradGradGradGradGradGradGradGradGradGradGradGradGradGradGrad

                          Input orientation:                          
 ---------------------------------------------------------------------
 Center     Atomic     Atomic              Coordinates (Angstroms)
 Number     Number      Type              X           Y           Z
 ---------------------------------------------------------------------
    1          7             0       -1.210337   -0.273570    0.000000
    2          7             0       -0.731736    0.989335    0.000000
    3          7             0        0.706502    0.843007    0.000000
    4          1             0        1.308965    1.669046    0.000000
    5          7             0       -0.101832   -1.249194    0.000000
    6          6             0        1.006270   -0.492840    0.000000
    7          1             0        2.016562   -0.880434    0.000000
 ---------------------------------------------------------------------
                    Distance matrix (angstroms):
                    1          2          3          4          5
     1  N    0.000000
     2  N    1.350551   0.000000
     3  N    2.218336   1.445663   0.000000
     4  H    3.181296   2.150923   1.022401   0.000000
     5  N    1.476695   2.325466   2.242924   3.241369   0.000000
     6  C    2.227426   2.284187   1.369068   2.182975   1.341626
     7  H    3.283468   3.324031   2.164834   2.645854   2.150250
                    6          7
     6  C    0.000000
     7  H    1.082090   0.000000
 Stoichiometry    CH2N4
 Framework group  CS[SG(CH2N4)]
 Deg. of freedom   11
 Full point group                 CS      NOp   2
 Largest Abelian subgroup         CS      NOp   2
 Largest concise Abelian subgroup C1      NOp   1
                         Standard orientation:                         
 ---------------------------------------------------------------------
 Center     Atomic     Atomic              Coordinates (Angstroms)
 Number     Number      Type              X           Y           Z
 ---------------------------------------------------------------------
    1          7             0       -0.752020   -0.987062    0.000000
    2          7             0       -1.196341    0.288308    0.000000
    3          7             0        0.000000    1.099917    0.000000
    4          1             0       -0.068791    2.120001    0.000000
    5          7             0        0.724241   -1.022860    0.000000
    6          6             0        1.087761    0.268579    0.000000
    7          1             0        2.111059    0.620403    0.000000
 ---------------------------------------------------------------------
 Rotational constants (GHZ):      9.7089249      9.3649409      4.7669156
 Isotopes: N-14,N-14,N-14,H-1,N-14,C-12,H-1
 Standard basis: 3-21G (6D, 7F)
 There are    39 symmetry adapted basis functions of A'  symmetry.
 There are    10 symmetry adapted basis functions of A"  symmetry.
 Crude estimate of integral set expansion from redundant integrals=1.000.
 Integral buffers will be    131072 words long.
 Raffenetti 2 integral format.
 Two-electron integral symmetry is turned on.
    49 basis functions       81 primitive gaussians
    18 alpha electrons       18 beta electrons
       nuclear repulsion energy       159.5202565345 Hartrees.
 One-electron integrals computed using PRISM.
 NBasis=    49 RedAO= T  NBF=    39    10
 NBsUse=    49 1.00D-04 NBFU=    39    10
 Initial guess read from the read-write file:
 Initial guess orbital symmetries:
       Occupied  (A') (A') (A') (A') (A') (A') (A') (A') (A') (A')
                 (A') (A') (A") (A') (A") (A") (A') (A')
       Virtual   (A") (A") (A') (A') (A') (A') (A') (A') (A') (A')
                 (A") (A') (A') (A') (A") (A') (A") (A') (A') (A")
                 (A") (A') (A') (A') (A') (A') (A') (A') (A') (A')
                 (A')
 Requested convergence on RMS density matrix=1.00D-08 within  64 cycles.
 Requested convergence on MAX density matrix=1.00D-06.
 Keep R1 and R2 integrals in memory in canonical form, NReq=     2315124.
 SCF Done:  E(RB-LYP) =  -256.742151035     A.U. after   10 cycles
             Convg  =    0.2797D-08             -V/T =  2.0084
             S**2   =   0.0000
 ***** Axes restored to original set *****
 -------------------------------------------------------------------
 Center     Atomic                   Forces (Hartrees/Bohr)
 Number     Number              X              Y              Z
 -------------------------------------------------------------------
    1          7          -0.000034194    0.000789989    0.000000000
    2          7          -0.000431412   -0.000783286    0.000000000
    3          7          -0.000053515    0.001080250    0.000000000
    4          1           0.000128648    0.000102901    0.000000000
    5          7          -0.000513969   -0.000550325    0.000000000
    6          6           0.000883950   -0.000724027    0.000000000
    7          1           0.000020492    0.000084498    0.000000000
 -------------------------------------------------------------------
 Cartesian Forces:  Max     0.001080250 RMS     0.000463013

 GradGradGradGradGradGradGradGradGradGradGradGradGradGradGradGradGradGrad
 Berny optimization.
 Internal  Forces:  Max     0.000955081 RMS     0.000296159
 Search for a local minimum.
 Step number   8 out of a maximum of  36
 All quantities printed in internal units (Hartrees-Bohrs-Radians)
 Update second derivatives using information from points  1  2  3  4  5
                                                        6  7  8
 Trust test= 1.44D+00 RLast= 9.42D-03 DXMaxT set to 4.24D-01
     Eigenvalues ---    0.02505   0.02631   0.02683   0.02832   0.09920
     Eigenvalues ---    0.16017   0.16500   0.29635   0.34287   0.37747
     Eigenvalues ---    0.45937   0.48854   0.53734   0.63304   0.72534
     Eigenvalues --- 1000.000001000.000001000.000001000.000001000.00000
     Eigenvalues --- 1000.000001000.000001000.000001000.000001000.00000
     Eigenvalues --- 1000.00000
 RFO step:  Lambda=-3.65687440D-06.
 Quartic linear search produced a step of  0.52900.
 Iteration  1 RMS(Cart)=  0.00079194 RMS(Int)=  0.00000056
 Iteration  2 RMS(Cart)=  0.00000038 RMS(Int)=  0.00000040
 Variable       Old X    -DE/DX   Delta X   Delta X   Delta X     New X
                                 (Linear)    (Quad)   (Total)
    R1        2.55217  -0.00055  -0.00309  -0.00061  -0.00370   2.54847
    R2        2.79055   0.00030   0.00283  -0.00023   0.00260   2.79315
    R3        2.73191   0.00027   0.00155  -0.00005   0.00150   2.73340
    R4        1.93206   0.00016   0.00005   0.00029   0.00033   1.93239
    R5        2.58716   0.00096  -0.00013   0.00195   0.00182   2.58899
    R6        2.53531   0.00073  -0.00040   0.00114   0.00074   2.53604
    R7        2.04485  -0.00001   0.00007  -0.00004   0.00003   2.04488
    A1        1.93028   0.00019   0.00012   0.00046   0.00058   1.93086
    A2        1.83165   0.00035   0.00086   0.00031   0.00116   1.83281
    A3        2.09955   0.00017   0.00016   0.00040   0.00056   2.10011
    A4        1.89294  -0.00023  -0.00095  -0.00008  -0.00103   1.89191
    A5        2.29070   0.00007   0.00079  -0.00032   0.00047   2.29117
    A6        1.82094  -0.00006  -0.00093   0.00017  -0.00076   1.82018
    A7        1.94898  -0.00025   0.00090  -0.00086   0.00005   1.94903
    A8        2.15787   0.00004  -0.00007  -0.00015  -0.00022   2.15765
    A9        2.17633   0.00020  -0.00084   0.00101   0.00017   2.17651
    D1        0.00000   0.00000   0.00000   0.00000   0.00000   0.00000
    D2        0.00000   0.00000   0.00000   0.00000   0.00000   0.00000
    D3        3.14159   0.00000   0.00000   0.00000   0.00000   3.14159
    D4        0.00000   0.00000   0.00000   0.00000   0.00000   0.00000
    D5        0.00000   0.00000   0.00000   0.00000   0.00000   0.00000
    D6        3.14159   0.00000   0.00000   0.00000   0.00000   3.14159
    D7        3.14159   0.00000   0.00000   0.00000   0.00000   3.14159
    D8        0.00000   0.00000   0.00000   0.00000   0.00000   0.00000
    D9        0.00000   0.00000   0.00000   0.00000   0.00000   0.00000
   D10        3.14159   0.00000   0.00000   0.00000   0.00000   3.14159
         Item               Value     Threshold  Converged?
[...]
   1   7     0.00   0.00   0.04     0.00   0.00  -0.09     0.00   0.00   0.45
   2   7     0.00   0.00  -0.12     0.00   0.00   0.16     0.00   0.00  -0.25
   3   7     0.00   0.00   0.24     0.00   0.00  -0.08     0.00   0.00  -0.04
   4   1     0.00   0.00  -0.91     0.00   0.00  -0.90     0.00   0.00  -0.07
   5   7     0.00   0.00   0.01     0.00   0.00  -0.05     0.00   0.00  -0.45
   6   6     0.00   0.00  -0.09     0.00   0.00   0.12     0.00   0.00   0.29
   7   1     0.00   0.00  -0.29     0.00   0.00   0.36     0.00   0.00   0.67
                     4                      5                      6
                    A'                     A'                     A"
 Frequencies --   683.7072               755.9151               862.5242
 Red. masses --    10.7730                 6.8493                 1.3612
 Frc consts  --     2.9671                 2.3059                 0.5966
 IR Inten    --     9.9200                14.2890                19.7457
 Raman Activ --     0.0000                 0.0000                 0.0000
 Depolar     --     0.0000                 0.0000                 0.0000
 Atom AN      X      Y      Z        X      Y      Z        X      Y      Z
   1   7     0.54  -0.18   0.00     0.07  -0.09   0.00     0.00   0.00   0.02
   2   7     0.01  -0.02   0.00     0.31   0.39   0.00     0.00   0.00   0.00
   3   7     0.11   0.06   0.00    -0.32  -0.29   0.00     0.00   0.00   0.03
   4   1     0.09   0.05   0.00    -0.54  -0.31   0.00     0.00   0.00   0.03
   5   7    -0.63   0.10   0.00    -0.04   0.02   0.00     0.00   0.00   0.03
   6   6    -0.05   0.09   0.00     0.03  -0.04   0.00     0.00   0.00  -0.17
   7   1     0.13  -0.47   0.00    -0.12   0.38   0.00     0.00   0.00   0.98
                     7                      8                      9
                    A'                     A'                     A'
 Frequencies --   921.7242               961.5628               996.9482
 Red. masses --     4.4096                 7.2709                10.8489
 Frc consts  --     2.2072                 3.9609                 6.3531
 IR Inten    --     6.4502                 7.0133                 0.2448
 Raman Activ --     0.0000                 0.0000                 0.0000
 Depolar     --     0.0000                 0.0000                 0.0000
 Atom AN      X      Y      Z        X      Y      Z        X      Y      Z
   1   7     0.25   0.02   0.00     0.02  -0.02   0.00     0.24   0.72   0.00
   2   7    -0.24   0.21   0.00     0.38  -0.07   0.00     0.05  -0.28   0.00
   3   7    -0.04   0.02   0.00    -0.10   0.40   0.00    -0.16  -0.21   0.00
   4   1     0.75   0.08   0.00    -0.42   0.39   0.00    -0.39  -0.25   0.00
   5   7     0.15  -0.21   0.00     0.03  -0.24   0.00    -0.08  -0.11   0.00
   6   6    -0.18  -0.08   0.00    -0.33  -0.08   0.00    -0.01  -0.12   0.00
   7   1    -0.30   0.27   0.00    -0.28  -0.31   0.00    -0.11   0.11   0.00
                    10                     11                     12
                    A'                     A'                     A'
 Frequencies --  1092.8071              1156.9860              1296.6556
 Red. masses --     2.0760                 2.2247                 2.4588
 Frc consts  --     1.4607                 1.7546                 2.4357
 IR Inten    --    12.3271                 8.7145                 4.1261
 Raman Activ --     0.0000                 0.0000                 0.0000
 Depolar     --     0.0000                 0.0000                 0.0000
 Atom AN      X      Y      Z        X      Y      Z        X      Y      Z
   1   7    -0.05   0.00   0.00     0.02   0.01   0.00     0.00  -0.02   0.00
   2   7     0.11  -0.05   0.00     0.04   0.00   0.00     0.03  -0.06   0.00
   3   7     0.12  -0.11   0.00    -0.04  -0.06   0.00    -0.13   0.12   0.00
   4   1     0.57  -0.09   0.00     0.48  -0.03   0.00     0.59   0.20   0.00
   5   7    -0.04   0.03   0.00     0.08   0.22   0.00    -0.06   0.09   0.00
   6   6    -0.18   0.10   0.00    -0.15  -0.13   0.00     0.15  -0.23   0.00
   7   1    -0.38   0.66   0.00     0.06  -0.82   0.00    -0.14   0.68   0.00
                    13                     14                     15
                    A'                     A'                     A'
 Frequencies --  1364.2756              3228.3728              3451.3118
 Red. masses --     2.0734                 1.0973                 1.0844
 Frc consts  --     2.2738                 6.7383                 7.6101
 IR Inten    --    33.4085                 0.8971                51.8221
 Raman Activ --     0.0000                 0.0000                 0.0000
 Depolar     --     0.0000                 0.0000                 0.0000
 Atom AN      X      Y      Z        X      Y      Z        X      Y      Z
   1   7     0.04  -0.01   0.00     0.00   0.00   0.00     0.00   0.00   0.00
   2   7    -0.06   0.03   0.00     0.00   0.00   0.00     0.00   0.00   0.00
   3   7     0.15   0.01   0.00     0.00   0.00   0.00     0.01  -0.08   0.00
   4   1    -0.81  -0.06   0.00     0.00   0.04   0.00    -0.08   0.99   0.00
   5   7     0.03   0.11   0.00     0.00   0.00   0.00     0.00   0.00   0.00
   6   6    -0.09  -0.20   0.00     0.09   0.03   0.00    -0.01   0.00   0.00
   7   1    -0.32   0.38   0.00    -0.94  -0.32   0.00     0.04   0.01   0.00

 -------------------
 - Thermochemistry -
 -------------------
 Temperature   298.150 Kelvin.  Pressure   1.00000 Atm.
 Atom  1 has atomic number  7 and mass  14.00307
 Atom  2 has atomic number  7 and mass  14.00307
 Atom  3 has atomic number  7 and mass  14.00307
 Atom  4 has atomic number  1 and mass   1.00783
 Atom  5 has atomic number  7 and mass  14.00307
 Atom  6 has atomic number  6 and mass  12.00000
 Atom  7 has atomic number  1 and mass   1.00783
 Molecular mass:    70.02795 amu.
 Principal axes and moments of inertia in atomic units:
                           1         2         3
     EIGENVALUES --   185.90909 192.86738 378.77647
           X            0.99463   0.10348   0.00000
           Y           -0.10348   0.99463   0.00000
           Z            0.00000   0.00000   1.00000
 THIS MOLECULE IS AN ASYMMETRIC TOP.
 ROTATIONAL SYMMETRY NUMBER  1.
 ROTATIONAL TEMPERATURES (KELVIN)      0.46589     0.44908     0.22867
 ROTATIONAL CONSTANTS (GHZ)            9.70765     9.35742     4.76466
 Zero-point vibrational energy     111364.6 (Joules/Mol)
                                   26.61677 (Kcal/Mol)
 WARNING-- EXPLICIT CONSIDERATION OF   1 DEGREES OF FREEDOM AS
           VIBRATIONS MAY CAUSE SIGNIFICANT ERROR
 VIBRATIONAL TEMPERATURES:    806.79   917.39   931.66   983.70  1087.59
          (KELVIN)           1240.97  1326.15  1383.47  1434.38  1572.30
                             1664.64  1865.59  1962.88  4644.88  4965.64
 
 Zero-point correction=                           0.042417 (Hartree/Particle)
 Thermal correction to Energy=                    0.046177
 Thermal correction to Enthalpy=                  0.047121
 Thermal correction to Gibbs Free Energy=         0.016098
 Sum of electronic and zero-point Energies=           -256.699738
 Sum of electronic and thermal Energies=              -256.695978
 Sum of electronic and thermal Enthalpies=            -256.695034
 Sum of electronic and thermal Free Energies=         -256.726057
 
                     E (Thermal)             CV                S
                      KCAL/MOL        CAL/MOL-KELVIN    CAL/MOL-KELVIN
 TOTAL                   28.976             13.167             65.293
 ELECTRONIC               0.000              0.000              0.000
 TRANSLATIONAL            0.889              2.981             38.656
 ROTATIONAL               0.889              2.981             24.122
 VIBRATIONAL             27.199              7.205              2.515
 VIBRATION  1             0.916              1.116              0.522
                       Q            LOG10(Q)             LN(Q)
 TOTAL BOT       0.393918D-07         -7.404594        -17.049707
 TOTAL V=0       0.127503D+13         12.105520         27.873990
 VIB (BOT)       0.409938D-19        -19.387282        -44.640866
 VIB (BOT)  1    0.276970D+00         -0.557567         -1.283845
 VIB (V=0)       0.132688D+01          0.122832          0.282831
 VIB (V=0)  1    0.107159D+01          0.030028          0.069141
 ELECTRONIC      0.100000D+01          0.000000          0.000000
 TRANSLATIONAL   0.230339D+08          7.362368         16.952478
 ROTATIONAL      0.417177D+05          4.620321         10.638681
 ***** Axes restored to original set *****
 -------------------------------------------------------------------
 Center     Atomic                   Forces (Hartrees/Bohr)
 Number     Number              X              Y              Z
 -------------------------------------------------------------------
    1          7          -0.000046810    0.000040780    0.000000000
    2          7          -0.000044888   -0.000075832    0.000000000
    3          7          -0.000034858    0.000425083    0.000000000
    4          1           0.000042100   -0.000006044    0.000000000
    5          7          -0.000196195   -0.000173459    0.000000000
    6          6           0.000280731   -0.000293392    0.000000000
    7          1          -0.000000081    0.000082863    0.000000000
 -------------------------------------------------------------------
 Cartesian Forces:  Max     0.000425083 RMS     0.000144036

 GradGradGradGradGradGradGradGradGradGradGradGradGradGradGradGradGradGrad
 Berny optimization.
 Internal  Forces:  Max     0.000330983 RMS     0.000091358
 Search for a local minimum.
 Step number   1 out of a maximum of  36
 All quantities printed in internal units (Hartrees-Bohrs-Radians)
 Second derivative matrix not updated -- analytic derivatives used.
     Eigenvalues ---    0.00803   0.02588   0.06367   0.06877   0.08958
     Eigenvalues ---    0.09542   0.09826   0.13149   0.26042   0.28984
     Eigenvalues ---    0.36415   0.38556   0.42583   0.47250   0.54979
     Eigenvalues --- 1000.000001000.000001000.000001000.000001000.00000
     Eigenvalues --- 1000.000001000.000001000.000001000.000001000.00000
     Eigenvalues --- 1000.00000
 Angle between quadratic step and forces=  38.78 degrees.
 Linear search not attempted -- first point.
 Iteration  1 RMS(Cart)=  0.00031568 RMS(Int)=  0.00000012
 Iteration  2 RMS(Cart)=  0.00000011 RMS(Int)=  0.00000001
 Variable       Old X    -DE/DX   Delta X   Delta X   Delta X     New X
                                 (Linear)    (Quad)   (Total)
    R1        2.54847   0.00002   0.00000  -0.00025  -0.00025   2.54822
    R2        2.79315   0.00006   0.00000   0.00045   0.00045   2.79361
    R3        2.73340   0.00005   0.00000   0.00000   0.00000   2.73341
    R4        1.93239   0.00002   0.00000   0.00006   0.00006   1.93246
    R5        2.58899   0.00033   0.00000   0.00101   0.00101   2.59000
    R6        2.53604   0.00025   0.00000   0.00037   0.00037   2.53641
    R7        2.04488  -0.00003   0.00000  -0.00009  -0.00009   2.04480
    A1        1.93086   0.00005   0.00000   0.00012   0.00012   1.93099
    A2        1.83281   0.00009   0.00000   0.00029   0.00029   1.83310
    A3        2.10011   0.00008   0.00000   0.00063   0.00063   2.10074
    A4        1.89191  -0.00007   0.00000  -0.00020  -0.00020   1.89170
    A5        2.29117  -0.00001   0.00000  -0.00042  -0.00042   2.29075
    A6        1.82018  -0.00003   0.00000  -0.00011  -0.00011   1.82006
    A7        1.94903  -0.00004   0.00000  -0.00010  -0.00010   1.94893
    A8        2.15765  -0.00005   0.00000  -0.00076  -0.00076   2.15689
    A9        2.17651   0.00009   0.00000   0.00086   0.00086   2.17737
    D1        0.00000   0.00000   0.00000   0.00000   0.00000   0.00000
    D2        0.00000   0.00000   0.00000   0.00000   0.00000   0.00000
    D3        3.14159   0.00000   0.00000   0.00000   0.00000   3.14159
    D4        0.00000   0.00000   0.00000   0.00000   0.00000   0.00000
    D5        0.00000   0.00000   0.00000   0.00000   0.00000   0.00000
    D6        3.14159   0.00000   0.00000   0.00000   0.00000   3.14159
    D7        3.14159   0.00000   0.00000   0.00000   0.00000   3.14159
    D8        0.00000   0.00000   0.00000   0.00000   0.00000   0.00000
    D9        0.00000   0.00000   0.00000   0.00000   0.00000   0.00000
   D10        3.14159   0.00000   0.00000   0.00000   0.00000   3.14159
         Item               Value     Threshold  Converged?
 Maximum Force            0.000331     0.000450     YES
 RMS     Force            0.000091     0.000300     YES
 Maximum Displacement     0.000804     0.001800     YES
 RMS     Displacement     0.000316     0.001200     YES
 Predicted change in Energy=-3.402197D-07
 Optimization completed.
    -- Stationary point found.
                         ----------------------------
                         !   Optimized Parameters   !
                         ! (Angstroms and Degrees)  !
 ------------------------                            -------------------------
 ! Name  Definition              Value          Derivative Info.             !
 -----------------------------------------------------------------------------
 ! R1    R(1,2)                  1.3486         -DE/DX =    0.               !
 ! R2    R(1,5)                  1.4781         -DE/DX =    0.0001           !
 ! R3    R(2,3)                  1.4465         -DE/DX =    0.0001           !
 ! R4    R(3,4)                  1.0226         -DE/DX =    0.               !
 ! R5    R(3,6)                  1.37           -DE/DX =    0.0003           !
 ! R6    R(5,6)                  1.342          -DE/DX =    0.0003           !
 ! R7    R(6,7)                  1.0821         -DE/DX =    0.               !
 ! A1    A(2,1,5)              110.6302         -DE/DX =    0.0001           !
 ! A2    A(1,2,3)              105.0123         -DE/DX =    0.0001           !
 ! A3    A(2,3,4)              120.3274         -DE/DX =    0.0001           !
 ! A4    A(2,3,6)              108.3982         -DE/DX =   -0.0001           !
 ! A5    A(4,3,6)              131.2744         -DE/DX =    0.               !
 ! A6    A(1,5,6)              104.2884         -DE/DX =    0.               !
 ! A7    A(3,6,5)              111.6709         -DE/DX =    0.               !
 ! A8    A(3,6,7)              123.6245         -DE/DX =   -0.0001           !
 ! A9    A(5,6,7)              124.7046         -DE/DX =    0.0001           !
 ! D1    D(5,1,2,3)              0.             -DE/DX =    0.               !
 ! D2    D(2,1,5,6)              0.             -DE/DX =    0.               !
 ! D3    D(1,2,3,4)            180.             -DE/DX =    0.               !
 ! D4    D(1,2,3,6)              0.             -DE/DX =    0.               !
 ! D5    D(2,3,6,5)              0.             -DE/DX =    0.               !
 ! D6    D(2,3,6,7)            180.             -DE/DX =    0.               !
 ! D7    D(4,3,6,5)            180.             -DE/DX =    0.               !
 ! D8    D(4,3,6,7)              0.             -DE/DX =    0.               !
 ! D9    D(1,5,6,3)              0.             -DE/DX =    0.               !
 ! D10   D(1,5,6,7)            180.             -DE/DX =    0.               !
 -----------------------------------------------------------------------------
 GradGradGradGradGradGradGradGradGradGradGradGradGradGradGradGradGradGrad

 1\1\ NATIONAL INSTITUTE OF STANDARDS AND TECHNOLOGY-TAY\Freq\RBLYP\3-2
 1G\C1H2N4\RDJ3\07-Mar-2000\0\\#N GEOM=ALLCHECK GUESS=TCHECK RBLYP/3-21
 G FREQ\\1H tetrazole c CH-NH-N=N-N= casno=288948\\0,1\N,-1.2105727332,
 -0.2723329924,0.\N,-0.7323653996,0.9886275751,0.\N,0.7067961836,0.8435
 484165,0.\H,1.3090627746,1.6699506395,0.\N,-0.1018365917,-1.249779309,
 0.\C,1.006633963,-0.4932726305,0.\H,2.0169832333,-0.8807606877,0.\\Ver
 sion=SGI64-G98RevA.7\State=1-A'\HF=-256.7421549\RMSD=4.096e-10\RMSF=1.
 440e-04\Dipole=1.8724557,0.8394826,0.\DipoleDeriv=0.0942956,-0.0608175
 ,0.0001203,-0.1887721,-0.0496113,0.0000394,-0.0001956,0.0000942,-0.145
 4922,0.2975708,0.1719598,-0.0001887,0.1478681,-0.2089155,-0.0001555,0.
 0000994,-0.0001643,-0.0591417,-0.4028741,-0.1477653,0.000258,-0.194301
 4,-0.23254,0.0000423,0.0000494,0.0000268,-0.2430008,0.185378,-0.014395
 8,-0.0000674,0.0091792,0.2178214,-0.0001308,-0.0000091,-0.0000298,0.38
 33076,-0.3945406,0.0956608,-0.0003445,0.054835,-0.1674204,-0.0000835,0
 .0000774,0.0000563,-0.173125,0.1706454,-0.0768313,0.00024,0.1744255,0.
 3180103,0.0002803,-0.0000409,0.000059,0.055626,0.0495251,0.0321893,-0.
 0000177,-0.0032338,0.1226557,0.0000078,0.0000193,-0.0000422,0.1818262\
 Polar=38.1419903,0.2225915,35.4131821,0.0003407,-0.0019049,11.4192958\
 PG=CS [SG(C1H2N4)]\NImag=0\\0.37920575,0.07742777,0.23588583,0.0000156
 0,0.00000436,0.09331985,-0.08458563,-0.05370890,-0.00001439,0.24351397
 ,0.00843450,-0.15478467,-0.00000597,-0.06926698,0.38306524,0.00001411,
 -0.00000513,-0.07249758,-0.00002236,-0.00000380,0.08601862,-0.10015985
 ,-0.08430015,0.00000837,-0.08470394,0.01331973,0.00001216,0.47218222,-
 0.02821375,-0.05351759,0.00001356,0.03812029,-0.08889185,-0.00000321,0
 .19995612,0.77617382,0.00000321,-0.00000235,0.01871708,-0.00000382,0.0
 0000327,-0.05313485,-0.00000036,0.00000080,0.08053388,-0.00917299,-0.0
 0239952,-0.00000405,0.00109042,-0.02620467,0.00000229,-0.18013487,-0.1
 6569125,0.00000016,0.17747933,0.00905717,0.00012513,-0.00000496,0.0047
 1372,0.00946862,0.00000164,-0.16695793,-0.29935300,0.00000095,0.175755
 11,0.29605423,-0.00000152,-0.00000031,0.00620396,0.00000193,0.00000070
 ,-0.00884904,-0.00000193,-0.00000037,-0.00800215,0.00000080,0.00000113
 ,0.01243800,-0.07033012,0.01492049,-0.00001033,-0.01503497,0.06483987,
 -0.00000079,0.00220060,-0.09197458,0.00000347,-0.00182582,-0.00173662,
 0.00000203,0.32269103,-0.03544826,-0.04261444,-0.00000308,-0.01320533,
 -0.10082134,0.00000991,-0.00485234,-0.08140598,0.00000033,0.00828182,-
 0.00467406,0.00000098,0.12526315,0.37649372,-0.00001950,-0.00000130,-0
 .06842145,0.00002536,0.00000989,0.02601460,-0.00001545,-0.00000636,0.0
 2142136,0.00000084,0.00000213,0.00629788,0.00001310,-0.00000343,0.0885
 1046,-0.11382122,0.04732943,-0.00000830,-0.06025954,0.01407715,0.00000
 381,-0.11330970,0.05280625,-0.00000298,0.01287280,-0.02153562,-0.00000
 116,-0.22242583,-0.08956658,-0.00000307,0.80815883,-0.02578540,0.01637
 837,0.00000063,0.09498560,-0.04297786,-0.00000325,0.01087765,-0.243730
 55,-0.00000234,0.01062243,-0.00093938,-0.00000233,-0.09147713,-0.15732
 048,-0.00000069,-0.10548829,0.51309464,-0.00000888,0.00000652,0.014076
 97,0.00000983,-0.00000681,0.01793048,0.00000060,-0.00000282,-0.0590678
 6,-0.00000135,-0.00000274,-0.00727562,-0.00001275,-0.00000668,-0.07033
 297,0.00001405,0.00001162,0.13593236,-0.00113595,0.00073087,0.00001309
 ,-0.00002030,-0.00519959,-0.00000922,0.00392553,-0.00500309,0.00000033
 ,-0.00030888,0.00070418,-0.00000015,-0.01527489,0.00952753,-0.00000127
 ,-0.31121535,0.10626513,-0.00000150,0.32402984,-0.00547203,-0.00147262
 ,-0.00000454,-0.00163840,-0.00505814,0.00000383,0.03195690,-0.00927485
 ,-0.00000067,-0.00036391,-0.00068151,0.00000020,-0.01983519,0.01034258
 ,-0.00000023,0.10237765,-0.08450474,0.00000091,-0.10702502,0.09064928,
 -0.00000303,-0.00000181,0.00860117,0.00000347,0.00000273,0.00451776,-0
 .00000339,-0.00000160,-0.00046746,0.00000131,0.00000185,-0.00081303,0.
 00000528,0.00000196,-0.00348988,-0.00000236,-0.00000363,-0.03126336,-0
 .00000128,0.00000051,0.02291481\\0.00004681,-0.00004078,0.,0.00004489,
 0.00007583,0.,0.00003486,-0.00042508,0.,-0.00004210,0.00000604,0.,0.00
 019619,0.00017346,0.,-0.00028073,0.00029339,0.,0.00000008,-0.00008286,
 0.\\\@


 IT'S WHAT A FELLER THINKS HE KNOWS THAT HURTS HIM...
                    ------
           KIN HUBBARD
 Job cpu time:  0 days  0 hours  1 minutes 10.5 seconds.
 File lengths (MBytes):  RWF=   10 Int=    0 D2E=    0 Chk=    4 Scr=    1
 Normal termination of Gaussian 98.
