Running on 32-bit system
 Entering Gaussian System, Link 0=/usr/local/gaussian03-rev-C02/g03/g03
 Initial command:
 /usr/local/gaussian03-rev-C02/g03/l1.exe /scratch/Gau-30704.inp -scrdir=/scratch/
 Entering Link 1 = /usr/local/gaussian03-rev-C02/g03/l1.exe PID=     30706.
  
 Copyright (c) 1988,1990,1992,1993,1995,1998,2003,2004, Gaussian, Inc.
                  All Rights Reserved.
  
 This is the Gaussian(R) 03 program.  It is based on the
 the Gaussian(R) 98 system (copyright 1998, Gaussian, Inc.),
 the Gaussian(R) 94 system (copyright 1995, Gaussian, Inc.),
 the Gaussian 92(TM) system (copyright 1992, Gaussian, Inc.),
 the Gaussian 90(TM) system (copyright 1990, Gaussian, Inc.),
 the Gaussian 88(TM) system (copyright 1988, Gaussian, Inc.),
 the Gaussian 86(TM) system (copyright 1986, Carnegie Mellon
 University), and the Gaussian 82(TM) system (copyright 1983,
 Carnegie Mellon University). Gaussian is a federally registered
 trademark of Gaussian, Inc.
  
 This software contains proprietary and confidential information,
 including trade secrets, belonging to Gaussian, Inc.
  
 This software is provided under written license and may be
 used, copied, transmitted, or stored only in accord with that
 written license.
  
 The following legend is applicable only to US Government
 contracts under FAR:
  
                    RESTRICTED RIGHTS LEGEND
  
 Use, reproduction and disclosure by the US Government is
 subject to restrictions as set forth in subparagraphs (a)
 and (c) of the Commercial Computer Software - Restricted
 Rights clause in FAR 52.227-19.
  
 Gaussian, Inc.
 340 Quinnipiac St., Bldg. 40, Wallingford CT 06492
  
  
 ---------------------------------------------------------------
 Warning -- This program may not be used in any manner that
 competes with the business of Gaussian, Inc. or will provide
 assistance to any competitor of Gaussian, Inc.  The licensee
 of this program is prohibited from giving any competitor of
 Gaussian, Inc. access to this program.  By using this program,
 the user acknowledges that Gaussian, Inc. is engaged in the
 business of creating and licensing software in the field of
 computational chemistry and represents and warrants to the
 licensee that it is not a competitor of Gaussian, Inc. and that
 it will not use this program in any manner prohibited above.
 ---------------------------------------------------------------
  

 Cite this work as:
 Gaussian 03, Revision C.02,
 M. J. Frisch, G. W. Trucks, H. B. Schlegel, G. E. Scuseria, 
 M. A. Robb, J. R. Cheeseman, J. A. Montgomery, Jr., T. Vreven, 
 K. N. Kudin, J. C. Burant, J. M. Millam, S. S. Iyengar, J. Tomasi, 
 V. Barone, B. Mennucci, M. Cossi, G. Scalmani, N. Rega, 
 G. A. Petersson, H. Nakatsuji, M. Hada, M. Ehara, K. Toyota, 
 R. Fukuda, J. Hasegawa, M. Ishida, T. Nakajima, Y. Honda, O. Kitao, 
 H. Nakai, M. Klene, X. Li, J. E. Knox, H. P. Hratchian, J. B. Cross, 
 C. Adamo, J. Jaramillo, R. Gomperts, R. E. Stratmann, O. Yazyev, 
 A. J. Austin, R. Cammi, C. Pomelli, J. W. Ochterski, P. Y. Ayala, 
 K. Morokuma, G. A. Voth, P. Salvador, J. J. Dannenberg, 
 V. G. Zakrzewski, S. Dapprich, A. D. Daniels, M. C. Strain, 
 O. Farkas, D. K. Malick, A. D. Rabuck, K. Raghavachari, 
 J. B. Foresman, J. V. Ortiz, Q. Cui, A. G. Baboul, S. Clifford, 
 J. Cioslowski, B. B. Stefanov, G. Liu, A. Liashenko, P. Piskorz, 
 I. Komaromi, R. L. Martin, D. J. Fox, T. Keith, M. A. Al-Laham, 
 C. Y. Peng, A. Nanayakkara, M. Challacombe, P. M. W. Gill, 
 B. Johnson, W. Chen, M. W. Wong, C. Gonzalez, and J. A. Pople, 
 Gaussian, Inc., Wallingford CT, 2004.
 
 ******************************************
 Gaussian 03:  IA32L-G03RevC.02 12-Jun-2004
                 7-Jan-2005 
 ******************************************
 %mem=24000000
 ----------------------------
 #B3PW91/6-311G(d,p) opt freq
 ----------------------------
 1/14=-1,18=20,26=3,38=1/1,3;
 2/9=110,17=6,18=5,40=1/2;
 3/5=4,6=6,7=101,11=2,16=1,25=1,30=1,74=-6/1,2,3;
 4//1;
 5/5=2,38=5/2;
 6/7=2,8=2,9=2,10=2,28=1/1;
 7//1,2,3,16;
 1/14=-1,18=20/3(1);
 99//99;
 2/9=110/2;
 3/5=4,6=6,7=101,11=2,16=1,25=1,30=1,74=-6/1,2,3;
 4/5=5,16=3/1;
 5/5=2,38=5/2;
 7//1,2,3,16;
 1/14=-1,18=20/3(-5);
 2/9=110/2;
 6/7=2,8=2,9=2,10=2,19=2,28=1/1;
 99/9=1/99;
 -----------------------------------------------------------
 1H tetrazole c CH-NH-N=N-N= casno=288948 method=16 basis=21
 -----------------------------------------------------------
 Symbolic Z-matrix:
 Charge =  0 Multiplicity = 1
 7                    -1.12329  -0.25456   0. 
 7                    -0.67158   0.91328   0. 
 7                     0.65055   0.80984   0. 
 1                     1.224     1.62189   0. 
 7                    -0.13465  -1.16105   0. 
 6                     0.96218  -0.48332   0. 
 1                     1.95569  -0.87454   0. 
 

 GradGradGradGradGradGradGradGradGradGradGradGradGradGradGradGradGradGrad
 Berny optimization.
 Initialization pass.
                           ----------------------------
                           !    Initial Parameters    !
                           ! (Angstroms and Degrees)  !
 --------------------------                            --------------------------
 ! Name  Definition              Value          Derivative Info.                !
 --------------------------------------------------------------------------------
 ! R1    R(1,2)                  1.2522         estimate D2E/DX2                !
 ! R2    R(1,5)                  1.3413         estimate D2E/DX2                !
 ! R3    R(2,3)                  1.3262         estimate D2E/DX2                !
 ! R4    R(3,4)                  0.9941         estimate D2E/DX2                !
 ! R5    R(3,6)                  1.3302         estimate D2E/DX2                !
 ! R6    R(5,6)                  1.2893         estimate D2E/DX2                !
 ! R7    R(6,7)                  1.0678         estimate D2E/DX2                !
 ! A1    A(2,1,5)              111.3714         estimate D2E/DX2                !
 ! A2    A(1,2,3)              106.673          estimate D2E/DX2                !
 ! A3    A(2,3,4)              120.7559         estimate D2E/DX2                !
 ! A4    A(2,3,6)              108.0227         estimate D2E/DX2                !
 ! A5    A(4,3,6)              131.2214         estimate D2E/DX2                !
 ! A6    A(1,5,6)              105.77           estimate D2E/DX2                !
 ! A7    A(3,6,5)              108.1628         estimate D2E/DX2                !
 ! A8    A(3,6,7)              125.0426         estimate D2E/DX2                !
 ! A9    A(5,6,7)              126.7945         estimate D2E/DX2                !
 ! D1    D(5,1,2,3)              0.0            estimate D2E/DX2                !
 ! D2    D(2,1,5,6)              0.0            estimate D2E/DX2                !
 ! D3    D(1,2,3,4)            180.0            estimate D2E/DX2                !
 ! D4    D(1,2,3,6)              0.0            estimate D2E/DX2                !
 ! D5    D(2,3,6,5)              0.0            estimate D2E/DX2                !
 ! D6    D(2,3,6,7)            180.0            estimate D2E/DX2                !
 ! D7    D(4,3,6,5)            180.0            estimate D2E/DX2                !
 ! D8    D(4,3,6,7)              0.0            estimate D2E/DX2                !
 ! D9    D(1,5,6,3)              0.0            estimate D2E/DX2                !
 ! D10   D(1,5,6,7)            180.0            estimate D2E/DX2                !
 --------------------------------------------------------------------------------
 Trust Radius=3.00D-01 FncErr=1.00D-07 GrdErr=1.00D-06
 Number of steps in this run=  36 maximum allowed number of steps= 100.
 GradGradGradGradGradGradGradGradGradGradGradGradGradGradGradGradGradGrad

                          Input orientation:                          
 ---------------------------------------------------------------------
 Center     Atomic     Atomic              Coordinates (Angstroms)
 Number     Number      Type              X           Y           Z
 ---------------------------------------------------------------------
    1          7             0       -1.123293   -0.254560    0.000000
    2          7             0       -0.671576    0.913277    0.000000
    3          7             0        0.650545    0.809842    0.000000
    4          1             0        1.224004    1.621891    0.000000
    5          7             0       -0.134646   -1.161053    0.000000
    6          6             0        0.962183   -0.483316    0.000000
    7          1             0        1.955691   -0.874535    0.000000
 ---------------------------------------------------------------------
                    Distance matrix (angstroms):
                    1          2          3          4          5
     1  N    0.000000
     2  N    1.252155   0.000000
     3  N    2.068684   1.326161   0.000000
     4  H    3.005141   2.023699   0.994122   0.000000
     5  N    1.341325   2.142694   2.121545   3.096887   0.000000
     6  C    2.097985   2.149335   1.330179   2.121426   1.289326
     7  H    3.140782   3.177861   2.130852   2.601444   2.109882
                    6          7
     6  C    0.000000
     7  H    1.067760   0.000000
 Stoichiometry    CH2N4
 Framework group  CS[SG(CH2N4)]
 Deg. of freedom    11
 Full point group                 CS      NOp   2
 Largest Abelian subgroup         CS      NOp   2
 Largest concise Abelian subgroup C1      NOp   1
                         Standard orientation:                         
 ---------------------------------------------------------------------
 Center     Atomic     Atomic              Coordinates (Angstroms)
 Number     Number      Type              X           Y           Z
 ---------------------------------------------------------------------
    1          7             0       -0.716312   -0.901934    0.000000
    2          7             0       -1.095520    0.291420    0.000000
    3          7             0        0.000000    1.038775    0.000000
    4          1             0       -0.061479    2.030994    0.000000
    5          7             0        0.622151   -0.989495    0.000000
    6          6             0        1.052813    0.225779    0.000000
    7          1             0        2.072370    0.542976    0.000000
 ---------------------------------------------------------------------
 Rotational constants (GHZ):     10.9198664     10.7343935      5.4131678
 Standard basis: 6-311G(d,p) (5D, 7F)
 There are    75 symmetry adapted basis functions of A'  symmetry.
 There are    27 symmetry adapted basis functions of A"  symmetry.
 Integral buffers will be    262144 words long.
 Raffenetti 2 integral format.
 Two-electron integral symmetry is turned on.
   102 basis functions,   176 primitive gaussians,   107 cartesian basis functions
    18 alpha electrons       18 beta electrons
       nuclear repulsion energy       169.8288291610 Hartrees.
 NAtoms=    7 NActive=    7 NUniq=    7 SFac= 1.00D+00 NAtFMM=   60 Big=F
 One-electron integrals computed using PRISM.
 NBasis=   102 RedAO= T  NBF=    75    27
 NBsUse=   102 1.00D-06 NBFU=    75    27
 Harris functional with IExCor=  408 diagonalized for initial guess.
 ExpMin= 1.03D-01 ExpMax= 6.29D+03 ExpMxC= 9.49D+02 IAcc=1 IRadAn=         1 AccDes= 1.00D-06
 HarFok:  IExCor= 408 AccDes= 1.00D-06 IRadAn=         1 IDoV=1
 ScaDFX=  1.000000  1.000000  1.000000  1.000000
 Initial guess orbital symmetries:
       Occupied  (A') (A') (A') (A') (A') (A') (A') (A') (A') (A')
                 (A') (A') (A") (A') (A") (A') (A") (A')
       Virtual   (A") (A") (A') (A') (A') (A') (A') (A') (A') (A')
                 (A") (A') (A') (A') (A') (A") (A') (A") (A') (A')
                 (A') (A") (A") (A') (A') (A') (A') (A') (A') (A")
                 (A') (A") (A') (A') (A") (A') (A") (A") (A') (A')
                 (A") (A') (A") (A') (A') (A') (A') (A') (A") (A")
                 (A') (A') (A") (A') (A') (A") (A') (A') (A") (A")
                 (A') (A') (A') (A') (A') (A') (A") (A') (A") (A')
                 (A") (A") (A') (A') (A') (A') (A') (A') (A') (A')
                 (A') (A') (A') (A')
 The electronic state of the initial guess is 1-A'.
 Requested convergence on RMS density matrix=1.00D-08 within 128 cycles.
 Requested convergence on MAX density matrix=1.00D-06.
 Requested convergence on             energy=1.00D-06.
 No special actions if energy rises.
 Keep R1 integrals in memory in canonical form, NReq=    17862147.
 Integral accuracy reduced to 1.0D-05 until final iterations.
 Initial convergence to 1.0D-05 achieved.  Increase integral accuracy.
 SCF Done:  E(RB+HF-PW91) =  -258.214474865     A.U. after   14 cycles
             Convg  =    0.3951D-08             -V/T =  2.0019
             S**2   =   0.0000

 **********************************************************************

            Population analysis using the SCF density.

 **********************************************************************

 Orbital symmetries:
       Occupied  (A') (A') (A') (A') (A') (A') (A') (A') (A') (A')
                 (A') (A") (A') (A') (A") (A") (A') (A')
       Virtual   (A") (A") (A') (A') (A') (A') (A') (A') (A') (A")
                 (A') (A') (A') (A') (A') (A") (A') (A") (A') (A')
                 (A') (A") (A') (A") (A') (A') (A') (A') (A') (A")
                 (A') (A") (A') (A") (A') (A') (A") (A') (A") (A')
                 (A') (A") (A") (A') (A') (A') (A') (A') (A") (A")
                 (A') (A') (A') (A") (A') (A") (A') (A') (A") (A")
                 (A') (A') (A') (A') (A') (A') (A") (A') (A") (A')
                 (A") (A") (A') (A') (A') (A') (A') (A') (A') (A')
                 (A') (A') (A') (A')
 The electronic state is 1-A'.
 Alpha  occ. eigenvalues --  -14.41859 -14.38002 -14.36133 -14.33255 -10.24909
 Alpha  occ. eigenvalues --   -1.18290  -0.96992  -0.91952  -0.69779  -0.68535
 Alpha  occ. eigenvalues --   -0.61659  -0.52143  -0.51413  -0.39241  -0.34660
 Alpha  occ. eigenvalues --   -0.32648  -0.30917  -0.29339
 Alpha virt. eigenvalues --   -0.02151   0.01621   0.03043   0.07379   0.17524
 Alpha virt. eigenvalues --    0.18997   0.21963   0.29217   0.33580   0.38720
 Alpha virt. eigenvalues --    0.41778   0.43658   0.49452   0.55611   0.56046
 Alpha virt. eigenvalues --    0.56495   0.59513   0.60019   0.62417   0.64957
 Alpha virt. eigenvalues --    0.68586   0.69382   0.73465   0.73826   0.83020
 Alpha virt. eigenvalues --    0.84950   0.92393   0.97039   1.00902   1.03431
 Alpha virt. eigenvalues --    1.16980   1.19982   1.21471   1.34171   1.34639
 Alpha virt. eigenvalues --    1.49091   1.57653   1.61508   1.61623   1.75284
 Alpha virt. eigenvalues --    1.78641   1.79201   1.86598   1.88037   2.06369
 Alpha virt. eigenvalues --    2.12771   2.23969   2.26039   2.32384   2.34203
 Alpha virt. eigenvalues --    2.39919   2.46734   2.50675   2.52188   2.57916
 Alpha virt. eigenvalues --    2.62816   2.66227   2.77704   2.78104   2.80123
 Alpha virt. eigenvalues --    2.83260   2.88828   3.12535   3.16833   3.36431
 Alpha virt. eigenvalues --    3.48827   3.52824   3.57639   3.64675   3.79705
 Alpha virt. eigenvalues --    3.84625   3.93988   3.97043   4.00050   4.44398
 Alpha virt. eigenvalues --    4.60250   4.84850   5.00405   5.78830  23.94707
 Alpha virt. eigenvalues --   35.26703  35.53042  35.61158  35.67513
          Condensed to atoms (all electrons):
              1          2          3          4          5          6
     1  N    6.686271   0.295209  -0.070098   0.007891   0.307030  -0.143147
     2  N    0.295209   6.763094   0.209629  -0.025643  -0.096968  -0.120234
     3  N   -0.070098   0.209629   6.533175   0.350216  -0.067375   0.356368
     4  H    0.007891  -0.025643   0.350216   0.433570   0.008405  -0.031854
     5  N    0.307030  -0.096968  -0.067375   0.008405   6.637670   0.481600
     6  C   -0.143147  -0.120234   0.356368  -0.031854   0.481600   4.808059
     7  H    0.002655   0.003866  -0.031623  -0.000785  -0.019914   0.411414
              7
     1  N    0.002655
     2  N    0.003866
     3  N   -0.031623
     4  H   -0.000785
     5  N   -0.019914
     6  C    0.411414
     7  H    0.484877
 Mulliken atomic charges:
              1
     1  N   -0.085811
     2  N   -0.028954
     3  N   -0.280292
     4  H    0.258200
     5  N   -0.250448
     6  C    0.237795
     7  H    0.149510
 Sum of Mulliken charges=   0.00000
 Atomic charges with hydrogens summed into heavy atoms:
              1
     1  N   -0.085811
     2  N   -0.028954
     3  N   -0.022092
     4  H    0.000000
     5  N   -0.250448
     6  C    0.387305
     7  H    0.000000
 Sum of Mulliken charges=   0.00000
 Electronic spatial extent (au):  <R**2>=   244.1262
 Charge=     0.0000 electrons
 Dipole moment (field-independent basis, Debye):
    X=     2.4741    Y=     4.7648    Z=     0.0000  Tot=     5.3688
 Quadrupole moment (field-independent basis, Debye-Ang):
   XX=   -28.7491   YY=   -26.3371   ZZ=   -27.9581
   XY=     1.7637   XZ=     0.0000   YZ=     0.0000
 Traceless Quadrupole moment (field-independent basis, Debye-Ang):
   XX=    -1.0677   YY=     1.3443   ZZ=    -0.2767
   XY=     1.7637   XZ=     0.0000   YZ=     0.0000
 Octapole moment (field-independent basis, Debye-Ang**2):
  XXX=    11.6363  YYY=    21.9879  ZZZ=     0.0000  XYY=    -0.5883
  XXY=     4.5275  XXZ=     0.0000  XZZ=    -0.7348  YZZ=     0.5360
  YYZ=     0.0000  XYZ=     0.0000
 Hexadecapole moment (field-independent basis, Debye-Ang**3):
 XXXX=  -137.8452 YYYY=  -117.0391 ZZZZ=   -24.7038 XXXY=     6.4279
 XXXZ=     0.0000 YYYX=    -0.4196 YYYZ=     0.0000 ZZZX=     0.0000
 ZZZY=     0.0000 XXYY=   -51.9776 XXZZ=   -29.4512 YYZZ=   -27.7517
 XXYZ=     0.0000 YYXZ=     0.0000 ZZXY=    -0.1084
 N-N= 1.698288291610D+02 E-N=-9.432704110307D+02  KE= 2.577370399562D+02
 Symmetry A'   KE= 2.481797633187D+02
 Symmetry A"   KE= 9.557276637503D+00
 ***** Axes restored to original set *****
 -------------------------------------------------------------------
 Center     Atomic                   Forces (Hartrees/Bohr)
 Number     Number              X              Y              Z
 -------------------------------------------------------------------
    1          7          -0.025494805   -0.024095165    0.000000000
    2          7          -0.005130460    0.038543603    0.000000000
    3          7           0.006906146    0.003630683    0.000000000
    4          1           0.007356922    0.010551627    0.000000000
    5          7          -0.008470767   -0.025644634    0.000000000
    6          6           0.017737861   -0.000269286    0.000000000
    7          1           0.007095102   -0.002716827    0.000000000
 -------------------------------------------------------------------
 Cartesian Forces:  Max     0.038543603 RMS     0.013922674

 GradGradGradGradGradGradGradGradGradGradGradGradGradGradGradGradGradGrad
 Berny optimization.
 Internal  Forces:  Max     0.037266842 RMS     0.011151554
 Search for a local minimum.
 Step number   1 out of a maximum of  36
 All quantities printed in internal units (Hartrees-Bohrs-Radians)
 Second derivative matrix not updated -- first step.
     Eigenvalues ---    0.02505   0.02639   0.02674   0.02834   0.16000
     Eigenvalues ---    0.16000   0.22605   0.24688   0.37515   0.48737
     Eigenvalues ---    0.50885   0.56605   0.58506   0.66912   0.78894
     Eigenvalues --- 1000.000001000.000001000.000001000.000001000.00000
     Eigenvalues --- 1000.000001000.000001000.000001000.000001000.00000
     Eigenvalues --- 1000.00000
 RFO step:  Lambda=-4.72057540D-03.
 Linear search not attempted -- first point.
 Iteration  1 RMS(Cart)=  0.01770582 RMS(Int)=  0.00002372
 Iteration  2 RMS(Cart)=  0.00002132 RMS(Int)=  0.00001037
 Iteration  3 RMS(Cart)=  0.00000000 RMS(Int)=  0.00001037
 Variable       Old X    -DE/DX   Delta X   Delta X   Delta X     New X
                                 (Linear)    (Quad)   (Total)
    R1        2.36623   0.03727   0.00000   0.04625   0.04626   2.41249
    R2        2.53474   0.01649   0.00000   0.02995   0.02995   2.56469
    R3        2.50608   0.01840   0.00000   0.03022   0.03022   2.53630
    R4        1.87862   0.01286   0.00000   0.02614   0.02614   1.90476
    R5        2.51367   0.01823   0.00000   0.02863   0.02862   2.54229
    R6        2.43647   0.02560   0.00000   0.03525   0.03524   2.47171
    R7        2.01777   0.00760   0.00000   0.02000   0.02000   2.03778
    A1        1.94380  -0.00149   0.00000   0.00155   0.00157   1.94537
    A2        1.86179  -0.00253   0.00000  -0.00549  -0.00547   1.85632
    A3        2.10759  -0.00105   0.00000  -0.00226  -0.00225   2.10534
    A4        1.88535   0.00193   0.00000   0.00357   0.00356   1.88891
    A5        2.29025  -0.00089   0.00000  -0.00131  -0.00130   2.28894
    A6        1.84604  -0.00036   0.00000  -0.00285  -0.00285   1.84318
    A7        1.88780   0.00244   0.00000   0.00322   0.00320   1.89099
    A8        2.18241  -0.00130   0.00000  -0.00209  -0.00208   2.18033
    A9        2.21298  -0.00114   0.00000  -0.00113  -0.00112   2.21186
    D1        0.00000   0.00000   0.00000   0.00000   0.00000   0.00000
    D2        0.00000   0.00000   0.00000   0.00000   0.00000   0.00000
    D3        3.14159   0.00000   0.00000   0.00000   0.00000   3.14159
    D4        0.00000   0.00000   0.00000   0.00000   0.00000   0.00000
    D5        0.00000   0.00000   0.00000   0.00000   0.00000   0.00000
    D6        3.14159   0.00000   0.00000   0.00000   0.00000   3.14159
    D7        3.14159   0.00000   0.00000   0.00000   0.00000   3.14159
    D8        0.00000   0.00000   0.00000   0.00000   0.00000   0.00000
    D9        0.00000   0.00000   0.00000   0.00000   0.00000   0.00000
   D10        3.14159   0.00000   0.00000   0.00000   0.00000   3.14159
         Item               Value     Threshold  Converged?
 Maximum Force            0.037267     0.000450     NO 
 RMS     Force            0.011152     0.000300     NO 
 Maximum Displacement     0.036374     0.001800     NO 
 RMS     Displacement     0.017700     0.001200     NO 
 Predicted change in Energy=-2.377010D-03
 GradGradGradGradGradGradGradGradGradGradGradGradGradGradGradGradGradGrad

                          Input orientation:                          
 ---------------------------------------------------------------------
 Center     Atomic     Atomic              Coordinates (Angstroms)
 Number     Number      Type              X           Y           Z
 ---------------------------------------------------------------------
    1          7             0       -1.142541   -0.263025    0.000000
    2          7             0       -0.683812    0.928347    0.000000
    3          7             0        0.653827    0.818387    0.000000
    4          1             0        1.236658    1.640750    0.000000
    5          7             0       -0.142254   -1.180277    0.000000
    6          6             0        0.968504   -0.489616    0.000000
    7          1             0        1.972526   -0.883021    0.000000
 ---------------------------------------------------------------------
                    Distance matrix (angstroms):
                    1          2          3          4          5
     1  N    0.000000
     2  N    1.276636   0.000000
     3  N    2.096758   1.342152   0.000000
     4  H    3.047121   2.048346   1.007954   0.000000
     5  N    1.357176   2.177057   2.151372   3.139998   0.000000
     6  C    2.123171   2.177331   1.345323   2.147176   1.307974
     7  H    3.176167   3.215149   2.152616   2.628862   2.135569
                    6          7
     6  C    0.000000
     7  H    1.078344   0.000000
 Stoichiometry    CH2N4
 Framework group  CS[SG(CH2N4)]
 Deg. of freedom    11
 Full point group                 CS      NOp   2
 Largest Abelian subgroup         CS      NOp   2
 Largest concise Abelian subgroup C1      NOp   1
                         Standard orientation:                         
 ---------------------------------------------------------------------
 Center     Atomic     Atomic              Coordinates (Angstroms)
 Number     Number      Type              X           Y           Z
 ---------------------------------------------------------------------
    1          7             0       -0.722845   -0.916328    0.000000
    2          7             0       -1.111560    0.299691    0.000000
    3          7             0        0.000000    1.051892    0.000000
    4          1             0       -0.060826    2.058008    0.000000
    5          7             0        0.631448   -1.004726    0.000000
    6          6             0        1.064637    0.229431    0.000000
    7          1             0        2.093698    0.551706    0.000000
 ---------------------------------------------------------------------
 Rotational constants (GHZ):     10.6327877     10.4433068      5.2685978
 Standard basis: 6-311G(d,p) (5D, 7F)
 There are    75 symmetry adapted basis functions of A'  symmetry.
 There are    27 symmetry adapted basis functions of A"  symmetry.
 Integral buffers will be    262144 words long.
 Raffenetti 2 integral format.
 Two-electron integral symmetry is turned on.
   102 basis functions,   176 primitive gaussians,   107 cartesian basis functions
    18 alpha electrons       18 beta electrons
       nuclear repulsion energy       167.5310534361 Hartrees.
 NAtoms=    7 NActive=    7 NUniq=    7 SFac= 1.00D+00 NAtFMM=   60 Big=F
 One-electron integrals computed using PRISM.
 NBasis=   102 RedAO= T  NBF=    75    27
 NBsUse=   102 1.00D-06 NBFU=    75    27
 Initial guess read from the read-write file:
 Initial guess orbital symmetries:
       Occupied  (A') (A') (A') (A') (A') (A') (A') (A') (A') (A')
                 (A') (A") (A') (A') (A") (A") (A') (A')
       Virtual   (A") (A") (A') (A') (A') (A') (A') (A') (A') (A")
                 (A') (A') (A') (A') (A') (A") (A') (A") (A') (A')
                 (A') (A") (A') (A") (A') (A') (A') (A') (A') (A")
                 (A') (A") (A') (A") (A') (A') (A") (A') (A") (A')
                 (A') (A") (A") (A') (A') (A') (A') (A') (A") (A")
                 (A') (A') (A') (A") (A') (A") (A') (A') (A") (A")
                 (A') (A') (A') (A') (A') (A') (A") (A') (A") (A')
                 (A") (A") (A') (A') (A') (A') (A') (A') (A') (A')
                 (A') (A') (A') (A')
 Harris functional with IExCor=  408 diagonalized for initial guess.
 ExpMin= 1.03D-01 ExpMax= 6.29D+03 ExpMxC= 9.49D+02 IAcc=1 IRadAn=         1 AccDes= 1.00D-06
 HarFok:  IExCor= 408 AccDes= 1.00D-06 IRadAn=         1 IDoV=1
 ScaDFX=  1.000000  1.000000  1.000000  1.000000
 Requested convergence on RMS density matrix=1.00D-08 within 128 cycles.
 Requested convergence on MAX density matrix=1.00D-06.
 Requested convergence on             energy=1.00D-06.
 No special actions if energy rises.
 Keep R1 integrals in memory in canonical form, NReq=    17862147.
 Integral accuracy reduced to 1.0D-05 until final iterations.
 Initial convergence to 1.0D-05 achieved.  Increase integral accuracy.
 SCF Done:  E(RB+HF-PW91) =  -258.216966603     A.U. after   12 cycles
             Convg  =    0.3878D-08             -V/T =  2.0030
             S**2   =   0.0000
 ***** Axes restored to original set *****
 -------------------------------------------------------------------
 Center     Atomic                   Forces (Hartrees/Bohr)
 Number     Number              X              Y              Z
 -------------------------------------------------------------------
    1          7          -0.002546407   -0.005485973    0.000000000
    2          7           0.000407901    0.007341678    0.000000000
    3          7           0.001021873   -0.003017821    0.000000000
    4          1          -0.000081199   -0.000057980    0.000000000
    5          7          -0.000271268   -0.000783964    0.000000000
    6          6           0.001715415    0.001855025    0.000000000
    7          1          -0.000246314    0.000149035    0.000000000
 -------------------------------------------------------------------
 Cartesian Forces:  Max     0.007341678 RMS     0.002267398

 GradGradGradGradGradGradGradGradGradGradGradGradGradGradGradGradGradGrad
 Berny optimization.
 Internal  Forces:  Max     0.005841573 RMS     0.001352972
 Search for a local minimum.
 Step number   2 out of a maximum of  36
 All quantities printed in internal units (Hartrees-Bohrs-Radians)
 Update second derivatives using D2CorX and points  1  2
 Trust test= 1.05D+00 RLast= 8.47D-02 DXMaxT set to 3.00D-01
     Eigenvalues ---    0.02505   0.02639   0.02675   0.02834   0.15999
     Eigenvalues ---    0.16000   0.22547   0.24628   0.37704   0.48912
     Eigenvalues ---    0.50762   0.55908   0.60229   0.67171   0.72372
     Eigenvalues --- 1000.000001000.000001000.000001000.000001000.00000
     Eigenvalues --- 1000.000001000.000001000.000001000.000001000.00000
     Eigenvalues --- 1000.00000
 RFO step:  Lambda=-5.68785776D-05.
 Quartic linear search produced a step of  0.08702.
 Iteration  1 RMS(Cart)=  0.00227573 RMS(Int)=  0.00000542
 Iteration  2 RMS(Cart)=  0.00000480 RMS(Int)=  0.00000278
 Iteration  3 RMS(Cart)=  0.00000000 RMS(Int)=  0.00000278
 Variable       Old X    -DE/DX   Delta X   Delta X   Delta X     New X
                                 (Linear)    (Quad)   (Total)
    R1        2.41249   0.00584   0.00403   0.00498   0.00901   2.42151
    R2        2.56469   0.00068   0.00261  -0.00028   0.00233   2.56702
    R3        2.53630   0.00145   0.00263   0.00054   0.00317   2.53947
    R4        1.90476  -0.00009   0.00227  -0.00200   0.00028   1.90503
    R5        2.54229  -0.00121   0.00249  -0.00496  -0.00247   2.53982
    R6        2.47171   0.00129   0.00307  -0.00092   0.00215   2.47386
    R7        2.03778  -0.00028   0.00174  -0.00215  -0.00041   2.03737
    A1        1.94537  -0.00073   0.00014  -0.00008   0.00006   1.94543
    A2        1.85632  -0.00172  -0.00048  -0.00507  -0.00554   1.85078
    A3        2.10534  -0.00083  -0.00020  -0.00295  -0.00314   2.10219
    A4        1.88891   0.00158   0.00031   0.00545   0.00576   1.89467
    A5        2.28894  -0.00075  -0.00011  -0.00250  -0.00262   2.28632
    A6        1.84318   0.00050  -0.00025   0.00153   0.00127   1.84445
    A7        1.89099   0.00037   0.00028  -0.00182  -0.00155   1.88945
    A8        2.18033  -0.00024  -0.00018   0.00056   0.00038   2.18071
    A9        2.21186  -0.00013  -0.00010   0.00126   0.00117   2.21303
    D1        0.00000   0.00000   0.00000   0.00000   0.00000   0.00000
    D2        0.00000   0.00000   0.00000   0.00000   0.00000   0.00000
    D3        3.14159   0.00000   0.00000   0.00000   0.00000   3.14159
    D4        0.00000   0.00000   0.00000   0.00000   0.00000   0.00000
    D5        0.00000   0.00000   0.00000   0.00000   0.00000   0.00000
    D6        3.14159   0.00000   0.00000   0.00000   0.00000   3.14159
    D7        3.14159   0.00000   0.00000   0.00000   0.00000   3.14159
    D8        0.00000   0.00000   0.00000   0.00000   0.00000   0.00000
    D9        0.00000   0.00000   0.00000   0.00000   0.00000   0.00000
   D10        3.14159   0.00000   0.00000   0.00000   0.00000   3.14159
         Item               Value     Threshold  Converged?
 Maximum Force            0.005842     0.000450     NO 
 RMS     Force            0.001353     0.000300     NO 
 Maximum Displacement     0.007716     0.001800     NO 
 RMS     Displacement     0.002275     0.001200     NO 
 Predicted change in Energy=-4.268297D-05
 GradGradGradGradGradGradGradGradGradGradGradGradGradGradGradGradGradGrad

                          Input orientation:                          
 ---------------------------------------------------------------------
 Center     Atomic     Atomic              Coordinates (Angstroms)
 Number     Number      Type              X           Y           Z
 ---------------------------------------------------------------------
    1          7             0       -1.144279   -0.264000    0.000000
    2          7             0       -0.685415    0.932430    0.000000
    3          7             0        0.653419    0.816683    0.000000
    4          1             0        1.237219    1.638537    0.000000
    5          7             0       -0.141922   -1.180817    0.000000
    6          6             0        0.969804   -0.489564    0.000000
    7          1             0        1.974081   -0.881724    0.000000
 ---------------------------------------------------------------------
                    Distance matrix (angstroms):
                    1          2          3          4          5
     1  N    0.000000
     2  N    1.281406   0.000000
     3  N    2.097521   1.343829   0.000000
     4  H    3.048143   2.048196   1.008100   0.000000
     5  N    1.358408   2.182017   2.150018   3.138596   0.000000
     6  C    2.126082   2.182159   1.344017   2.144836   1.309109
     7  H    3.178955   3.219329   2.151450   2.625772   2.137037
                    6          7
     6  C    0.000000
     7  H    1.078129   0.000000
 Stoichiometry    CH2N4
 Framework group  CS[SG(CH2N4)]
 Deg. of freedom    11
 Full point group                 CS      NOp   2
 Largest Abelian subgroup         CS      NOp   2
 Largest concise Abelian subgroup C1      NOp   1
                         Standard orientation:                         
 ---------------------------------------------------------------------
 Center     Atomic     Atomic              Coordinates (Angstroms)
 Number     Number      Type              X           Y           Z
 ---------------------------------------------------------------------
    1          7             0       -0.722188   -0.918840    0.000000
    2          7             0       -1.115298    0.300777    0.000000
    3          7             0        0.000000    1.050434    0.000000
    4          1             0       -0.060851    2.056696    0.000000
    5          7             0        0.633540   -1.004122    0.000000
    6          6             0        1.065763    0.231576    0.000000
    7          1             0        2.093890    0.556104    0.000000
 ---------------------------------------------------------------------
 Rotational constants (GHZ):     10.6196830     10.4140029      5.2579187
 Standard basis: 6-311G(d,p) (5D, 7F)
 There are    75 symmetry adapted basis functions of A'  symmetry.
 There are    27 symmetry adapted basis functions of A"  symmetry.
 Integral buffers will be    262144 words long.
 Raffenetti 2 integral format.
 Two-electron integral symmetry is turned on.
   102 basis functions,   176 primitive gaussians,   107 cartesian basis functions
    18 alpha electrons       18 beta electrons
       nuclear repulsion energy       167.3538211952 Hartrees.
 NAtoms=    7 NActive=    7 NUniq=    7 SFac= 1.00D+00 NAtFMM=   60 Big=F
 One-electron integrals computed using PRISM.
 NBasis=   102 RedAO= T  NBF=    75    27
 NBsUse=   102 1.00D-06 NBFU=    75    27
 Initial guess read from the read-write file:
 Initial guess orbital symmetries:
       Occupied  (A') (A') (A') (A') (A') (A') (A') (A') (A') (A')
                 (A') (A") (A') (A') (A") (A") (A') (A')
       Virtual   (A") (A") (A') (A') (A') (A') (A') (A') (A') (A")
                 (A') (A') (A') (A') (A') (A") (A') (A") (A') (A')
                 (A') (A") (A') (A") (A') (A') (A') (A') (A') (A")
                 (A') (A") (A') (A") (A') (A') (A") (A') (A") (A')
                 (A') (A") (A") (A') (A') (A') (A') (A') (A") (A")
                 (A') (A') (A') (A") (A') (A") (A') (A') (A") (A")
                 (A') (A') (A') (A') (A') (A') (A") (A') (A") (A')
                 (A") (A') (A") (A') (A') (A') (A') (A') (A') (A')
                 (A') (A') (A') (A')
 Requested convergence on RMS density matrix=1.00D-08 within 128 cycles.
 Requested convergence on MAX density matrix=1.00D-06.
 Requested convergence on             energy=1.00D-06.
 No special actions if energy rises.
 Keep R1 integrals in memory in canonical form, NReq=    17862147.
 SCF Done:  E(RB+HF-PW91) =  -258.217014223     A.U. after    9 cycles
             Convg  =    0.7100D-08             -V/T =  2.0031
             S**2   =   0.0000
 ***** Axes restored to original set *****
 -------------------------------------------------------------------
 Center     Atomic                   Forces (Hartrees/Bohr)
 Number     Number              X              Y              Z
 -------------------------------------------------------------------
    1          7          -0.000192113   -0.002539083    0.000000000
    2          7           0.001441631    0.001044611    0.000000000
    3          7           0.000413037   -0.000347750    0.000000000
    4          1          -0.000028883   -0.000115012    0.000000000
    5          7          -0.001133250    0.000445511    0.000000000
    6          6          -0.000356369    0.001455846    0.000000000
    7          1          -0.000144052    0.000055875    0.000000000
 -------------------------------------------------------------------
 Cartesian Forces:  Max     0.002539083 RMS     0.000808056

 GradGradGradGradGradGradGradGradGradGradGradGradGradGradGradGradGradGrad
 Berny optimization.
 Internal  Forces:  Max     0.001730548 RMS     0.000547822
 Search for a local minimum.
 Step number   3 out of a maximum of  36
 All quantities printed in internal units (Hartrees-Bohrs-Radians)
 Update second derivatives using D2CorX and points  1  2  3
 Trust test= 1.12D+00 RLast= 1.39D-02 DXMaxT set to 3.00D-01
     Eigenvalues ---    0.02505   0.02638   0.02674   0.02834   0.15994
     Eigenvalues ---    0.16005   0.24079   0.28008   0.37704   0.39840
     Eigenvalues ---    0.49305   0.52160   0.62208   0.67811   0.69072
     Eigenvalues --- 1000.000001000.000001000.000001000.000001000.00000
     Eigenvalues --- 1000.000001000.000001000.000001000.000001000.00000
     Eigenvalues --- 1000.00000
 RFO step:  Lambda=-1.68379943D-05.
 Quartic linear search produced a step of  0.10363.
 Iteration  1 RMS(Cart)=  0.00134759 RMS(Int)=  0.00000060
 Iteration  2 RMS(Cart)=  0.00000049 RMS(Int)=  0.00000028
 Variable       Old X    -DE/DX   Delta X   Delta X   Delta X     New X
                                 (Linear)    (Quad)   (Total)
    R1        2.42151   0.00173   0.00093   0.00338   0.00432   2.42582
    R2        2.56702  -0.00131   0.00024  -0.00209  -0.00185   2.56517
    R3        2.53947  -0.00048   0.00033  -0.00044  -0.00011   2.53936
    R4        1.90503  -0.00011   0.00003  -0.00009  -0.00006   1.90497
    R5        2.53982  -0.00106  -0.00026  -0.00218  -0.00243   2.53739
    R6        2.47386   0.00061   0.00022   0.00118   0.00140   2.47526
    R7        2.03737  -0.00015  -0.00004  -0.00037  -0.00041   2.03696
    A1        1.94543  -0.00061   0.00001  -0.00186  -0.00186   1.94357
    A2        1.85078   0.00036  -0.00057   0.00175   0.00118   1.85196
    A3        2.10219   0.00024  -0.00033   0.00119   0.00087   2.10306
    A4        1.89467  -0.00040   0.00060  -0.00195  -0.00135   1.89332
    A5        2.28632   0.00017  -0.00027   0.00075   0.00048   2.28681
    A6        1.84445   0.00003   0.00013  -0.00007   0.00006   1.84452
    A7        1.88945   0.00062  -0.00016   0.00213   0.00197   1.89141
    A8        2.18071  -0.00031   0.00004  -0.00114  -0.00110   2.17961
    A9        2.21303  -0.00030   0.00012  -0.00099  -0.00087   2.21216
    D1        0.00000   0.00000   0.00000   0.00000   0.00000   0.00000
    D2        0.00000   0.00000   0.00000   0.00000   0.00000   0.00000
    D3        3.14159   0.00000   0.00000   0.00000   0.00000   3.14159
    D4        0.00000   0.00000   0.00000   0.00000   0.00000   0.00000
    D5        0.00000   0.00000   0.00000   0.00000   0.00000   0.00000
    D6        3.14159   0.00000   0.00000   0.00000   0.00000   3.14159
    D7        3.14159   0.00000   0.00000   0.00000   0.00000   3.14159
    D8        0.00000   0.00000   0.00000   0.00000   0.00000   0.00000
    D9        0.00000   0.00000   0.00000   0.00000   0.00000   0.00000
   D10        3.14159   0.00000   0.00000   0.00000   0.00000   3.14159
         Item               Value     Threshold  Converged?
 Maximum Force            0.001731     0.000450     NO 
 RMS     Force            0.000548     0.000300     NO 
 Maximum Displacement     0.003719     0.001800     NO 
 RMS     Displacement     0.001348     0.001200     NO 
 Predicted change in Energy=-8.828325D-06
 GradGradGradGradGradGradGradGradGradGradGradGradGradGradGradGradGradGrad

                          Input orientation:                          
 ---------------------------------------------------------------------
 Center     Atomic     Atomic              Coordinates (Angstroms)
 Number     Number      Type              X           Y           Z
 ---------------------------------------------------------------------
    1          7             0       -1.145176   -0.265968    0.000000
    2          7             0       -0.684471    0.932203    0.000000
    3          7             0        0.654342    0.816892    0.000000
    4          1             0        1.238572    1.638401    0.000000
    5          7             0       -0.142624   -1.181118    0.000000
    6          6             0        0.969082   -0.488427    0.000000
    7          1             0        1.973184   -0.880438    0.000000
 ---------------------------------------------------------------------
                    Distance matrix (angstroms):
                    1          2          3          4          5
     1  N    0.000000
     2  N    1.283691   0.000000
     3  N    2.100203   1.343770   0.000000
     4  H    3.051045   2.048612   1.008069   0.000000
     5  N    1.357427   2.181679   2.151092   3.139648   0.000000
     6  C    2.125929   2.180006   1.342728   2.143834   1.309851
     7  H    3.178324   3.216954   2.149482   2.623777   2.137066
                    6          7
     6  C    0.000000
     7  H    1.077912   0.000000
 Stoichiometry    CH2N4
 Framework group  CS[SG(CH2N4)]
 Deg. of freedom    11
 Full point group                 CS      NOp   2
 Largest Abelian subgroup         CS      NOp   2
 Largest concise Abelian subgroup C1      NOp   1
                         Standard orientation:                         
 ---------------------------------------------------------------------
 Center     Atomic     Atomic              Coordinates (Angstroms)
 Number     Number      Type              X           Y           Z
 ---------------------------------------------------------------------
    1          7             0       -0.721319   -0.921063    0.000000
    2          7             0       -1.114657    0.300881    0.000000
    3          7             0        0.000000    1.051385    0.000000
    4          1             0       -0.060769    2.057620    0.000000
    5          7             0        0.633554   -1.004292    0.000000
    6          6             0        1.064283    0.232714    0.000000
    7          1             0        2.092027    0.557729    0.000000
 ---------------------------------------------------------------------
 Rotational constants (GHZ):     10.6020706     10.4267369      5.2568364
 Standard basis: 6-311G(d,p) (5D, 7F)
 There are    75 symmetry adapted basis functions of A'  symmetry.
 There are    27 symmetry adapted basis functions of A"  symmetry.
 Integral buffers will be    262144 words long.
 Raffenetti 2 integral format.
 Two-electron integral symmetry is turned on.
   102 basis functions,   176 primitive gaussians,   107 cartesian basis functions
    18 alpha electrons       18 beta electrons
       nuclear repulsion energy       167.3317911848 Hartrees.
 NAtoms=    7 NActive=    7 NUniq=    7 SFac= 1.00D+00 NAtFMM=   60 Big=F
 One-electron integrals computed using PRISM.
 NBasis=   102 RedAO= T  NBF=    75    27
 NBsUse=   102 1.00D-06 NBFU=    75    27
 Initial guess read from the read-write file:
 Initial guess orbital symmetries:
       Occupied  (A') (A') (A') (A') (A') (A') (A') (A') (A') (A')
                 (A') (A") (A') (A') (A") (A") (A') (A')
       Virtual   (A") (A") (A') (A') (A') (A') (A') (A') (A') (A")
                 (A') (A') (A') (A') (A') (A") (A') (A") (A') (A')
                 (A') (A") (A') (A") (A') (A') (A') (A') (A') (A")
                 (A') (A") (A') (A") (A') (A') (A") (A') (A") (A')
                 (A') (A") (A") (A') (A') (A') (A') (A') (A") (A")
                 (A') (A') (A') (A") (A') (A") (A') (A') (A") (A")
                 (A') (A') (A') (A') (A') (A') (A") (A') (A") (A')
                 (A") (A') (A") (A') (A') (A') (A') (A') (A') (A')
                 (A') (A') (A') (A')
 Requested convergence on RMS density matrix=1.00D-08 within 128 cycles.
 Requested convergence on MAX density matrix=1.00D-06.
 Requested convergence on             energy=1.00D-06.
 No special actions if energy rises.
 Keep R1 integrals in memory in canonical form, NReq=    17862147.
 SCF Done:  E(RB+HF-PW91) =  -258.217021102     A.U. after    9 cycles
             Convg  =    0.4695D-08             -V/T =  2.0031
             S**2   =   0.0000
 ***** Axes restored to original set *****
 -------------------------------------------------------------------
 Center     Atomic                   Forces (Hartrees/Bohr)
 Number     Number              X              Y              Z
 -------------------------------------------------------------------
    1          7           0.001314089   -0.000212998    0.000000000
    2          7           0.000032488    0.000307582    0.000000000
    3          7          -0.000924099   -0.000570611    0.000000000
    4          1          -0.000090579   -0.000074194    0.000000000
    5          7          -0.000509687    0.000677319    0.000000000
    6          6           0.000180848   -0.000028118    0.000000000
    7          1          -0.000003059   -0.000098981    0.000000000
 -------------------------------------------------------------------
 Cartesian Forces:  Max     0.001314089 RMS     0.000426669

 GradGradGradGradGradGradGradGradGradGradGradGradGradGradGradGradGradGrad
 Berny optimization.
 Internal  Forces:  Max     0.000798766 RMS     0.000299213
 Search for a local minimum.
 Step number   4 out of a maximum of  36
 All quantities printed in internal units (Hartrees-Bohrs-Radians)
 Update second derivatives using D2CorX and points  1  2  3  4
 Trust test= 7.79D-01 RLast= 6.61D-03 DXMaxT set to 3.00D-01
     Eigenvalues ---    0.02505   0.02638   0.02675   0.02834   0.16000
     Eigenvalues ---    0.16020   0.23752   0.25685   0.37664   0.46975
     Eigenvalues ---    0.49324   0.52886   0.61405   0.67452   0.70071
     Eigenvalues --- 1000.000001000.000001000.000001000.000001000.00000
     Eigenvalues --- 1000.000001000.000001000.000001000.000001000.00000
     Eigenvalues --- 1000.00000
 RFO step:  Lambda=-3.96185651D-06.
 Quartic linear search produced a step of -0.17946.
 Iteration  1 RMS(Cart)=  0.00058463 RMS(Int)=  0.00000032
 Iteration  2 RMS(Cart)=  0.00000023 RMS(Int)=  0.00000020
 Variable       Old X    -DE/DX   Delta X   Delta X   Delta X     New X
                                 (Linear)    (Quad)   (Total)
    R1        2.42582  -0.00033  -0.00078   0.00115   0.00038   2.42620
    R2        2.56517  -0.00080   0.00033  -0.00191  -0.00158   2.56358
    R3        2.53936  -0.00055   0.00002  -0.00082  -0.00080   2.53855
    R4        1.90497  -0.00011   0.00001  -0.00019  -0.00018   1.90480
    R5        2.53739  -0.00009   0.00044  -0.00093  -0.00050   2.53689
    R6        2.47526  -0.00038  -0.00025   0.00011  -0.00015   2.47511
    R7        2.03696   0.00003   0.00007  -0.00005   0.00003   2.03699
    A1        1.94357   0.00056   0.00033   0.00094   0.00128   1.94485
    A2        1.85196  -0.00059  -0.00021  -0.00148  -0.00169   1.85026
    A3        2.10306  -0.00025  -0.00016  -0.00063  -0.00078   2.10228
    A4        1.89332   0.00042   0.00024   0.00105   0.00129   1.89461
    A5        2.28681  -0.00018  -0.00009  -0.00043  -0.00051   2.28630
    A6        1.84452  -0.00006  -0.00001  -0.00022  -0.00024   1.84428
    A7        1.89141  -0.00033  -0.00035  -0.00029  -0.00064   1.89077
    A8        2.17961   0.00025   0.00020   0.00057   0.00076   2.18038
    A9        2.21216   0.00008   0.00016  -0.00028  -0.00012   2.21203
    D1        0.00000   0.00000   0.00000   0.00000   0.00000   0.00000
    D2        0.00000   0.00000   0.00000   0.00000   0.00000   0.00000
    D3        3.14159   0.00000   0.00000   0.00000   0.00000   3.14159
    D4        0.00000   0.00000   0.00000   0.00000   0.00000   0.00000
    D5        0.00000   0.00000   0.00000   0.00000   0.00000   0.00000
    D6        3.14159   0.00000   0.00000   0.00000   0.00000   3.14159
    D7        3.14159   0.00000   0.00000   0.00000   0.00000   3.14159
    D8        0.00000   0.00000   0.00000   0.00000   0.00000   0.00000
    D9        0.00000   0.00000   0.00000   0.00000   0.00000   0.00000
   D10        3.14159   0.00000   0.00000   0.00000   0.00000   3.14159
         Item               Value     Threshold  Converged?
 Maximum Force            0.000799     0.000450     NO 
 RMS     Force            0.000299     0.000300     YES
 Maximum Displacement     0.001896     0.001800     NO 
 RMS     Displacement     0.000585     0.001200     YES
 Predicted change in Energy=-2.323244D-06
 GradGradGradGradGradGradGradGradGradGradGradGradGradGradGradGradGradGrad

                          Input orientation:                          
 ---------------------------------------------------------------------
 Center     Atomic     Atomic              Coordinates (Angstroms)
 Number     Number      Type              X           Y           Z
 ---------------------------------------------------------------------
    1          7             0       -1.144173   -0.265910    0.000000
    2          7             0       -0.684479    0.932863    0.000000
    3          7             0        0.653819    0.816531    0.000000
    4          1             0        1.238001    1.637958    0.000000
    5          7             0       -0.142581   -1.180871    0.000000
    6          6             0        0.969154   -0.488374    0.000000
    7          1             0        1.973167   -0.880652    0.000000
 ---------------------------------------------------------------------
                    Distance matrix (angstroms):
                    1          2          3          4          5
     1  N    0.000000
     2  N    1.283891   0.000000
     3  N    2.098679   1.343344   0.000000
     4  H    3.049503   2.047703   1.007974   0.000000
     5  N    1.356591   2.182092   2.150318   3.138759   0.000000
     6  C    2.125003   2.180462   1.342465   2.143261   1.309774
     7  H    3.177376   3.217440   2.149677   2.623712   2.136943
                    6          7
     6  C    0.000000
     7  H    1.077926   0.000000
 Stoichiometry    CH2N4
 Framework group  CS[SG(CH2N4)]
 Deg. of freedom    11
 Full point group                 CS      NOp   2
 Largest Abelian subgroup         CS      NOp   2
 Largest concise Abelian subgroup C1      NOp   1
                         Standard orientation:                         
 ---------------------------------------------------------------------
 Center     Atomic     Atomic              Coordinates (Angstroms)
 Number     Number      Type              X           Y           Z
 ---------------------------------------------------------------------
    1          7             0       -0.720745   -0.920404    0.000000
    2          7             0       -1.115031    0.301445    0.000000
    3          7             0        0.000000    1.050631    0.000000
    4          1             0       -0.060576    2.056783    0.000000
    5          7             0        0.633247   -1.004330    0.000000
    6          6             0        1.064340    0.232466    0.000000
    7          1             0        2.092241    0.557034    0.000000
 ---------------------------------------------------------------------
 Rotational constants (GHZ):     10.6133825     10.4248260      5.2591296
 Standard basis: 6-311G(d,p) (5D, 7F)
 There are    75 symmetry adapted basis functions of A'  symmetry.
 There are    27 symmetry adapted basis functions of A"  symmetry.
 Integral buffers will be    262144 words long.
 Raffenetti 2 integral format.
 Two-electron integral symmetry is turned on.
   102 basis functions,   176 primitive gaussians,   107 cartesian basis functions
    18 alpha electrons       18 beta electrons
       nuclear repulsion energy       167.3668318201 Hartrees.
 NAtoms=    7 NActive=    7 NUniq=    7 SFac= 1.00D+00 NAtFMM=   60 Big=F
 One-electron integrals computed using PRISM.
 NBasis=   102 RedAO= T  NBF=    75    27
 NBsUse=   102 1.00D-06 NBFU=    75    27
 Initial guess read from the read-write file:
 Initial guess orbital symmetries:
       Occupied  (A') (A') (A') (A') (A') (A') (A') (A') (A') (A')
                 (A') (A") (A') (A') (A") (A") (A') (A')
       Virtual   (A") (A") (A') (A') (A') (A') (A') (A') (A') (A")
                 (A') (A') (A') (A') (A') (A") (A') (A") (A') (A')
                 (A') (A") (A') (A") (A') (A') (A') (A') (A') (A")
                 (A') (A") (A') (A") (A') (A') (A") (A') (A") (A')
                 (A') (A") (A") (A') (A') (A') (A') (A') (A") (A")
                 (A') (A') (A') (A") (A') (A") (A') (A') (A") (A")
                 (A') (A') (A') (A') (A') (A') (A") (A') (A") (A')
                 (A") (A') (A") (A') (A') (A') (A') (A') (A') (A')
                 (A') (A') (A') (A')
 Requested convergence on RMS density matrix=1.00D-08 within 128 cycles.
 Requested convergence on MAX density matrix=1.00D-06.
 Requested convergence on             energy=1.00D-06.
 No special actions if energy rises.
 Keep R1 integrals in memory in canonical form, NReq=    17862147.
 SCF Done:  E(RB+HF-PW91) =  -258.217023615     A.U. after    8 cycles
             Convg  =    0.6321D-08             -V/T =  2.0031
             S**2   =   0.0000
 ***** Axes restored to original set *****
 -------------------------------------------------------------------
 Center     Atomic                   Forces (Hartrees/Bohr)
 Number     Number              X              Y              Z
 -------------------------------------------------------------------
    1          7           0.000182916   -0.000151936    0.000000000
    2          7           0.000188588   -0.000364981    0.000000000
    3          7          -0.000275701    0.000076846    0.000000000
    4          1           0.000028565   -0.000019969    0.000000000
    5          7          -0.000440178    0.000540067    0.000000000
    6          6           0.000311892   -0.000053877    0.000000000
    7          1           0.000003917   -0.000026149    0.000000000
 -------------------------------------------------------------------
 Cartesian Forces:  Max     0.000540067 RMS     0.000206416

 GradGradGradGradGradGradGradGradGradGradGradGradGradGradGradGradGradGrad
 Berny optimization.
 Internal  Forces:  Max     0.000438467 RMS     0.000133384
 Search for a local minimum.
 Step number   5 out of a maximum of  36
 All quantities printed in internal units (Hartrees-Bohrs-Radians)
 Update second derivatives using D2CorX and points  1  2  3  4  5

 Trust test= 1.08D+00 RLast= 3.42D-03 DXMaxT set to 3.00D-01
     Eigenvalues ---    0.02505   0.02638   0.02675   0.02834   0.15333
     Eigenvalues ---    0.16057   0.18316   0.35958   0.37927   0.46916
     Eigenvalues ---    0.50180   0.53482   0.56204   0.65024   0.76210
     Eigenvalues --- 1000.000001000.000001000.000001000.000001000.00000
     Eigenvalues --- 1000.000001000.000001000.000001000.000001000.00000
     Eigenvalues --- 1000.00000
 RFO step:  Lambda=-1.30867330D-06.
 Quartic linear search produced a step of  0.07761.
 Iteration  1 RMS(Cart)=  0.00036017 RMS(Int)=  0.00000012
 Iteration  2 RMS(Cart)=  0.00000011 RMS(Int)=  0.00000005
 Variable       Old X    -DE/DX   Delta X   Delta X   Delta X     New X
                                 (Linear)    (Quad)   (Total)
    R1        2.42620  -0.00021   0.00003   0.00003   0.00006   2.42626
    R2        2.56358  -0.00044  -0.00012  -0.00126  -0.00138   2.56220
    R3        2.53855  -0.00015  -0.00006  -0.00042  -0.00048   2.53807
    R4        1.90480   0.00000  -0.00001  -0.00005  -0.00007   1.90473
    R5        2.53689  -0.00004  -0.00004  -0.00025  -0.00029   2.53660
    R6        2.47511   0.00010  -0.00001   0.00022   0.00020   2.47532
    R7        2.03699   0.00001   0.00000   0.00001   0.00001   2.03700
    A1        1.94485  -0.00013   0.00010  -0.00058  -0.00049   1.94436
    A2        1.85026   0.00018  -0.00013   0.00022   0.00009   1.85036
    A3        2.10228   0.00005  -0.00006   0.00002  -0.00004   2.10224
    A4        1.89461  -0.00005   0.00010   0.00028   0.00038   1.89499
    A5        2.28630   0.00000  -0.00004  -0.00030  -0.00034   2.28596
    A6        1.84428   0.00023  -0.00002   0.00101   0.00099   1.84527
    A7        1.89077  -0.00023  -0.00005  -0.00093  -0.00098   1.88979
    A8        2.18038   0.00013   0.00006   0.00067   0.00073   2.18110
    A9        2.21203   0.00010  -0.00001   0.00026   0.00025   2.21229
    D1        0.00000   0.00000   0.00000   0.00000   0.00000   0.00000
    D2        0.00000   0.00000   0.00000   0.00000   0.00000   0.00000
    D3        3.14159   0.00000   0.00000   0.00000   0.00000   3.14159
    D4        0.00000   0.00000   0.00000   0.00000   0.00000   0.00000
    D5        0.00000   0.00000   0.00000   0.00000   0.00000   0.00000
    D6        3.14159   0.00000   0.00000   0.00000   0.00000   3.14159
    D7        3.14159   0.00000   0.00000   0.00000   0.00000   3.14159
    D8        0.00000   0.00000   0.00000   0.00000   0.00000   0.00000
    D9        0.00000   0.00000   0.00000   0.00000   0.00000   0.00000
   D10        3.14159   0.00000   0.00000   0.00000   0.00000   3.14159
         Item               Value     Threshold  Converged?
 Maximum Force            0.000438     0.000450     YES
 RMS     Force            0.000133     0.000300     YES
 Maximum Displacement     0.001384     0.001800     YES
 RMS     Displacement     0.000360     0.001200     YES
 Predicted change in Energy=-6.697473D-07
 Optimization completed.
    -- Stationary point found.
                           ----------------------------
                           !   Optimized Parameters   !
                           ! (Angstroms and Degrees)  !
 --------------------------                            --------------------------
 ! Name  Definition              Value          Derivative Info.                !
 --------------------------------------------------------------------------------
 ! R1    R(1,2)                  1.2839         -DE/DX =   -0.0002              !
 ! R2    R(1,5)                  1.3566         -DE/DX =   -0.0004              !
 ! R3    R(2,3)                  1.3433         -DE/DX =   -0.0002              !
 ! R4    R(3,4)                  1.008          -DE/DX =    0.0                 !
 ! R5    R(3,6)                  1.3425         -DE/DX =    0.0                 !
 ! R6    R(5,6)                  1.3098         -DE/DX =    0.0001              !
 ! R7    R(6,7)                  1.0779         -DE/DX =    0.0                 !
 ! A1    A(2,1,5)              111.4316         -DE/DX =   -0.0001              !
 ! A2    A(1,2,3)              106.0124         -DE/DX =    0.0002              !
 ! A3    A(2,3,4)              120.4517         -DE/DX =    0.0001              !
 ! A4    A(2,3,6)              108.5533         -DE/DX =   -0.0001              !
 ! A5    A(4,3,6)              130.9951         -DE/DX =    0.0                 !
 ! A6    A(1,5,6)              105.6694         -DE/DX =    0.0002              !
 ! A7    A(3,6,5)              108.3334         -DE/DX =   -0.0002              !
 ! A8    A(3,6,7)              124.9263         -DE/DX =    0.0001              !
 ! A9    A(5,6,7)              126.7403         -DE/DX =    0.0001              !
 ! D1    D(5,1,2,3)              0.0            -DE/DX =    0.0                 !
 ! D2    D(2,1,5,6)              0.0            -DE/DX =    0.0                 !
 ! D3    D(1,2,3,4)            180.0            -DE/DX =    0.0                 !
 ! D4    D(1,2,3,6)              0.0            -DE/DX =    0.0                 !
 ! D5    D(2,3,6,5)              0.0            -DE/DX =    0.0                 !
 ! D6    D(2,3,6,7)            180.0            -DE/DX =    0.0                 !
 ! D7    D(4,3,6,5)            180.0            -DE/DX =    0.0                 !
 ! D8    D(4,3,6,7)              0.0            -DE/DX =    0.0                 !
 ! D9    D(1,5,6,3)              0.0            -DE/DX =    0.0                 !
 ! D10   D(1,5,6,7)            180.0            -DE/DX =    0.0                 !
 --------------------------------------------------------------------------------
 GradGradGradGradGradGradGradGradGradGradGradGradGradGradGradGradGradGrad

                          Input orientation:                          
 ---------------------------------------------------------------------
 Center     Atomic     Atomic              Coordinates (Angstroms)
 Number     Number      Type              X           Y           Z
 ---------------------------------------------------------------------
    1          7             0       -1.144173   -0.265910    0.000000
    2          7             0       -0.684479    0.932863    0.000000
    3          7             0        0.653819    0.816531    0.000000
    4          1             0        1.238001    1.637958    0.000000
    5          7             0       -0.142581   -1.180871    0.000000
    6          6             0        0.969154   -0.488374    0.000000
    7          1             0        1.973167   -0.880652    0.000000
 ---------------------------------------------------------------------
                    Distance matrix (angstroms):
                    1          2          3          4          5
     1  N    0.000000
     2  N    1.283891   0.000000
     3  N    2.098679   1.343344   0.000000
     4  H    3.049503   2.047703   1.007974   0.000000
     5  N    1.356591   2.182092   2.150318   3.138759   0.000000
     6  C    2.125003   2.180462   1.342465   2.143261   1.309774
     7  H    3.177376   3.217440   2.149677   2.623712   2.136943
                    6          7
     6  C    0.000000
     7  H    1.077926   0.000000
 Stoichiometry    CH2N4
 Framework group  CS[SG(CH2N4)]
 Deg. of freedom    11
 Full point group                 CS      NOp   2
 Largest Abelian subgroup         CS      NOp   2
 Largest concise Abelian subgroup C1      NOp   1
                         Standard orientation:                         
 ---------------------------------------------------------------------
 Center     Atomic     Atomic              Coordinates (Angstroms)
 Number     Number      Type              X           Y           Z
 ---------------------------------------------------------------------
    1          7             0       -0.720745   -0.920404    0.000000
    2          7             0       -1.115031    0.301445    0.000000
    3          7             0        0.000000    1.050631    0.000000
    4          1             0       -0.060576    2.056783    0.000000
    5          7             0        0.633247   -1.004330    0.000000
    6          6             0        1.064340    0.232466    0.000000
    7          1             0        2.092241    0.557034    0.000000
 ---------------------------------------------------------------------
 Rotational constants (GHZ):     10.6133825     10.4248260      5.2591296

 **********************************************************************

            Population analysis using the SCF density.

 **********************************************************************

 Orbital symmetries:
       Occupied  (A') (A') (A') (A') (A') (A') (A') (A') (A') (A')
                 (A') (A") (A') (A') (A") (A") (A') (A')
       Virtual   (A") (A") (A') (A') (A') (A') (A') (A') (A') (A")
                 (A') (A') (A') (A') (A') (A") (A') (A") (A') (A')
                 (A') (A") (A') (A") (A') (A') (A') (A') (A') (A")
                 (A') (A") (A') (A") (A') (A') (A") (A') (A") (A')
                 (A') (A") (A") (A') (A') (A') (A') (A') (A") (A")
                 (A') (A') (A') (A") (A') (A") (A') (A') (A") (A")
                 (A') (A') (A') (A') (A') (A') (A") (A') (A") (A')
                 (A") (A') (A") (A') (A') (A') (A') (A') (A') (A')
                 (A') (A') (A') (A')
 The electronic state is 1-A'.
 Alpha  occ. eigenvalues --  -14.42234 -14.38484 -14.36684 -14.33869 -10.25490
 Alpha  occ. eigenvalues --   -1.16460  -0.96303  -0.90982  -0.69318  -0.67940
 Alpha  occ. eigenvalues --   -0.60968  -0.51177  -0.51033  -0.39007  -0.34440
 Alpha  occ. eigenvalues --   -0.32225  -0.31313  -0.29841
 Alpha virt. eigenvalues --   -0.02967   0.00752   0.02722   0.07010   0.16447
 Alpha virt. eigenvalues --    0.18222   0.21876   0.27222   0.32321   0.38899
 Alpha virt. eigenvalues --    0.39926   0.43200   0.48893   0.53984   0.55767
 Alpha virt. eigenvalues --    0.56703   0.59690   0.60213   0.61283   0.64576
 Alpha virt. eigenvalues --    0.67419   0.69154   0.73112   0.73545   0.82393
 Alpha virt. eigenvalues --    0.84513   0.92194   0.96089   1.00339   1.03360
 Alpha virt. eigenvalues --    1.16658   1.19322   1.21387   1.33830   1.35154
 Alpha virt. eigenvalues --    1.48242   1.57390   1.60236   1.61670   1.73996
 Alpha virt. eigenvalues --    1.76745   1.77811   1.85344   1.86710   2.04512
 Alpha virt. eigenvalues --    2.11034   2.21083   2.23320   2.31198   2.33002
 Alpha virt. eigenvalues --    2.37789   2.44828   2.49914   2.50559   2.56654
 Alpha virt. eigenvalues --    2.60066   2.64578   2.74789   2.75923   2.76965
 Alpha virt. eigenvalues --    2.81382   2.85227   3.08528   3.12816   3.32062
 Alpha virt. eigenvalues --    3.46178   3.52303   3.54933   3.63811   3.77140
 Alpha virt. eigenvalues --    3.83139   3.91637   3.91854   3.96145   4.42686
 Alpha virt. eigenvalues --    4.58749   4.80665   4.95708   5.71898  23.89113
 Alpha virt. eigenvalues --   35.25626  35.49541  35.54476  35.60253
          Condensed to atoms (all electrons):
              1          2          3          4          5          6
     1  N    6.696217   0.283975  -0.065339   0.007330   0.300319  -0.138189
     2  N    0.283975   6.770022   0.206486  -0.023784  -0.089419  -0.119167
     3  N   -0.065339   0.206486   6.541402   0.345741  -0.062813   0.351952
     4  H    0.007330  -0.023784   0.345741   0.431662   0.007672  -0.029779
     5  N    0.300319  -0.089419  -0.062813   0.007672   6.646514   0.466378
     6  C   -0.138189  -0.119167   0.351952  -0.029779   0.466378   4.821863
     7  H    0.002629   0.003789  -0.030261  -0.000651  -0.019235   0.406907
              7
     1  N    0.002629
     2  N    0.003789
     3  N   -0.030261
     4  H   -0.000651
     5  N   -0.019235
     6  C    0.406907
     7  H    0.483237
 Mulliken atomic charges:
              1
     1  N   -0.086941
     2  N   -0.031901
     3  N   -0.287168
     4  H    0.261809
     5  N   -0.249418
     6  C    0.240034
     7  H    0.153584
 Sum of Mulliken charges=   0.00000
 Atomic charges with hydrogens summed into heavy atoms:
              1
     1  N   -0.086941
     2  N   -0.031901
     3  N   -0.025359
     4  H    0.000000
     5  N   -0.249418
     6  C    0.393618
     7  H    0.000000
 Sum of Mulliken charges=   0.00000
 Electronic spatial extent (au):  <R**2>=   249.5314
 Charge=     0.0000 electrons
 Dipole moment (field-independent basis, Debye):
    X=     2.5115    Y=     4.7944    Z=     0.0000  Tot=     5.4124
 Quadrupole moment (field-independent basis, Debye-Ang):
   XX=   -28.7655   YY=   -26.2958   ZZ=   -28.1923
   XY=     1.8120   XZ=     0.0000   YZ=     0.0000
 Traceless Quadrupole moment (field-independent basis, Debye-Ang):
   XX=    -1.0143   YY=     1.4554   ZZ=    -0.4411
   XY=     1.8120   XZ=     0.0000   YZ=     0.0000
 Octapole moment (field-independent basis, Debye-Ang**2):
  XXX=    11.9710  YYY=    22.5664  ZZZ=     0.0000  XYY=    -0.5661
  XXY=     4.6403  XXZ=     0.0000  XZZ=    -0.7220  YZZ=     0.5236
  YYZ=     0.0000  XYZ=     0.0000
 Hexadecapole moment (field-independent basis, Debye-Ang**3):
 XXXX=  -140.8141 YYYY=  -119.6794 ZZZZ=   -25.0889 XXXY=     6.9288
 XXXZ=     0.0000 YYYX=    -0.3626 YYYZ=     0.0000 ZZZX=     0.0000
 ZZZY=     0.0000 XXYY=   -53.2962 XXZZ=   -30.2165 YYZZ=   -28.5372
 XXYZ=     0.0000 YYXZ=     0.0000 ZZXY=    -0.0962
 N-N= 1.673668318201D+02 E-N=-9.381633372919D+02  KE= 2.574278774964D+02
 Symmetry A'   KE= 2.479143700338D+02
 Symmetry A"   KE= 9.513507462601D+00
 1\1\GINC-P91\FOpt\RB3PW91\6-311G(d,p)\C1H2N4\RDJ3\07-Jan-2005\0\\#B3PW
 91/6-311G(D,P) OPT FREQ\\1H tetrazole c CH-NH-N=N-N= casno=288948 meth
 od=16 basis=21\\0,1\N,-1.1387337141,-0.2643923893,0.\N,-0.6790396365,0
 .9343811754,0.\N,0.6592579456,0.8180489517,0.\H,1.2434403038,1.6394762
 762,0.\N,-0.1371422952,-1.17935282,0.\C,0.9745928532,-0.4868561192,0.\
 H,1.9786064783,-0.8791339864,0.\\Version=IA32L-G03RevC.02\State=1-A'\H
 F=-258.2170236\RMSD=6.321e-09\RMSF=2.064e-04\Dipole=1.9529797,0.848657
 4,0.\PG=CS [SG(C1H2N4)]\\@


  THE LARGE PRINT GIVETH,
  AND THE SMALL PRINT TAKETH AWAY.

                     -- TOM WAITES
 Job cpu time:  0 days  0 hours  6 minutes 29.0 seconds.
 File lengths (MBytes):  RWF=     16 Int=      0 D2E=      0 Chk=      5 Scr=      1
 Normal termination of Gaussian 03 at Fri Jan  7 18:14:22 2005.
 Link1:  Proceeding to internal job step number  2.
 ----------------------------------------------------------------------
 #N Geom=AllCheck Guess=Read SCRF=Check GenChk RB3PW91/6-311G(d,p) Freq
 ----------------------------------------------------------------------
 1/10=4,29=7,30=1,38=1,40=1,46=1/1,3;
 2/40=1/2;
 3/5=4,6=6,7=101,11=2,16=1,25=1,30=1,70=2,71=2,74=-6/1,2,3;
 4/5=1,7=1/1;
 5/5=2,38=6/2;
 8/6=4,10=90,11=11/1;
 11/6=1,8=1,9=11,15=111,16=1/1,2,10;
 10/6=1/2;
 6/7=2,8=2,9=2,10=2,18=1,28=1/1;
 7/8=1,10=1,25=1/1,2,3,16;
 1/10=4,30=1,46=1/3;
 99//99;
 -----------------------------------------------------------
 1H tetrazole c CH-NH-N=N-N= casno=288948 method=16 basis=21
 -----------------------------------------------------------
 Redundant internal coordinates taken from checkpoint file:
 /scratch/Gau-30706.chk
 Charge =  0 Multiplicity = 1
 N,0,-1.1387337141,-0.2643923893,0.
 N,0,-0.6790396365,0.9343811754,0.
 N,0,0.6592579456,0.8180489517,0.
 H,0,1.2434403038,1.6394762762,0.
 N,0,-0.1371422952,-1.17935282,0.
 C,0,0.9745928532,-0.4868561192,0.
 H,0,1.9786064783,-0.8791339864,0.
 Recover connectivity data from disk.

 GradGradGradGradGradGradGradGradGradGradGradGradGradGradGradGradGradGrad
 Berny optimization.
 Initialization pass.
                           ----------------------------
                           !    Initial Parameters    !
                           ! (Angstroms and Degrees)  !
 --------------------------                            --------------------------
 ! Name  Definition              Value          Derivative Info.                !
 --------------------------------------------------------------------------------
 ! R1    R(1,2)                  1.2839         calculate D2E/DX2 analytically  !
 ! R2    R(1,5)                  1.3566         calculate D2E/DX2 analytically  !
 ! R3    R(2,3)                  1.3433         calculate D2E/DX2 analytically  !
 ! R4    R(3,4)                  1.008          calculate D2E/DX2 analytically  !
 ! R5    R(3,6)                  1.3425         calculate D2E/DX2 analytically  !
 ! R6    R(5,6)                  1.3098         calculate D2E/DX2 analytically  !
 ! R7    R(6,7)                  1.0779         calculate D2E/DX2 analytically  !
 ! A1    A(2,1,5)              111.4316         calculate D2E/DX2 analytically  !
 ! A2    A(1,2,3)              106.0124         calculate D2E/DX2 analytically  !
 ! A3    A(2,3,4)              120.4517         calculate D2E/DX2 analytically  !
 ! A4    A(2,3,6)              108.5533         calculate D2E/DX2 analytically  !
 ! A5    A(4,3,6)              130.9951         calculate D2E/DX2 analytically  !
 ! A6    A(1,5,6)              105.6694         calculate D2E/DX2 analytically  !
 ! A7    A(3,6,5)              108.3334         calculate D2E/DX2 analytically  !
 ! A8    A(3,6,7)              124.9263         calculate D2E/DX2 analytically  !
 ! A9    A(5,6,7)              126.7403         calculate D2E/DX2 analytically  !
 ! D1    D(5,1,2,3)              0.0            calculate D2E/DX2 analytically  !
 ! D2    D(2,1,5,6)              0.0            calculate D2E/DX2 analytically  !
 ! D3    D(1,2,3,4)            180.0            calculate D2E/DX2 analytically  !
 ! D4    D(1,2,3,6)              0.0            calculate D2E/DX2 analytically  !
 ! D5    D(2,3,6,5)              0.0            calculate D2E/DX2 analytically  !
 ! D6    D(2,3,6,7)            180.0            calculate D2E/DX2 analytically  !
 ! D7    D(4,3,6,5)            180.0            calculate D2E/DX2 analytically  !
 ! D8    D(4,3,6,7)              0.0            calculate D2E/DX2 analytically  !
 ! D9    D(1,5,6,3)              0.0            calculate D2E/DX2 analytically  !
 ! D10   D(1,5,6,7)            180.0            calculate D2E/DX2 analytically  !
 --------------------------------------------------------------------------------
 Trust Radius=3.00D-01 FncErr=1.00D-07 GrdErr=1.00D-07
 Number of steps in this run=   2 maximum allowed number of steps=   2.
 GradGradGradGradGradGradGradGradGradGradGradGradGradGradGradGradGradGrad

                          Input orientation:                          
 ---------------------------------------------------------------------
 Center     Atomic     Atomic              Coordinates (Angstroms)
 Number     Number      Type              X           Y           Z
 ---------------------------------------------------------------------
    1          7             0       -1.138734   -0.264392    0.000000
    2          7             0       -0.679040    0.934381    0.000000
    3          7             0        0.659258    0.818049    0.000000
    4          1             0        1.243440    1.639476    0.000000
    5          7             0       -0.137142   -1.179353    0.000000
    6          6             0        0.974593   -0.486856    0.000000
    7          1             0        1.978606   -0.879134    0.000000
 ---------------------------------------------------------------------
                    Distance matrix (angstroms):
                    1          2          3          4          5
     1  N    0.000000
     2  N    1.283891   0.000000
     3  N    2.098679   1.343344   0.000000
     4  H    3.049503   2.047703   1.007974   0.000000
     5  N    1.356591   2.182092   2.150318   3.138759   0.000000
     6  C    2.125003   2.180462   1.342465   2.143261   1.309774
     7  H    3.177376   3.217440   2.149677   2.623712   2.136943
                    6          7
     6  C    0.000000
     7  H    1.077926   0.000000
 Stoichiometry    CH2N4
 Framework group  CS[SG(CH2N4)]
 Deg. of freedom    11
 Full point group                 CS      NOp   2
 Largest Abelian subgroup         CS      NOp   2
 Largest concise Abelian subgroup C1      NOp   1
                         Standard orientation:                         
 ---------------------------------------------------------------------
 Center     Atomic     Atomic              Coordinates (Angstroms)
 Number     Number      Type              X           Y           Z
 ---------------------------------------------------------------------
    1          7             0       -0.720745   -0.920404    0.000000
    2          7             0       -1.115031    0.301445    0.000000
    3          7             0        0.000000    1.050631    0.000000
    4          1             0       -0.060576    2.056783    0.000000
    5          7             0        0.633247   -1.004330    0.000000
    6          6             0        1.064340    0.232466    0.000000
    7          1             0        2.092241    0.557034    0.000000
 ---------------------------------------------------------------------
 Rotational constants (GHZ):     10.6133825     10.4248260      5.2591296
 Standard basis: 6-311G(d,p) (5D, 7F)
 There are    75 symmetry adapted basis functions of A'  symmetry.
 There are    27 symmetry adapted basis functions of A"  symmetry.
 Integral buffers will be    262144 words long.
 Raffenetti 2 integral format.
 Two-electron integral symmetry is turned on.
   102 basis functions,   176 primitive gaussians,   107 cartesian basis functions
    18 alpha electrons       18 beta electrons
       nuclear repulsion energy       167.3668318201 Hartrees.
 NAtoms=    7 NActive=    7 NUniq=    7 SFac= 1.00D+00 NAtFMM=   60 Big=F
 One-electron integrals computed using PRISM.
 NBasis=   102 RedAO= T  NBF=    75    27
 NBsUse=   102 1.00D-06 NBFU=    75    27
 Initial guess read from the checkpoint file:
 /scratch/Gau-30706.chk
 Initial guess orbital symmetries:
       Occupied  (A') (A') (A') (A') (A') (A') (A') (A') (A') (A')
                 (A') (A") (A') (A') (A") (A") (A') (A')
       Virtual   (A") (A") (A') (A') (A') (A') (A') (A') (A') (A")
                 (A') (A') (A') (A') (A') (A") (A') (A") (A') (A')
                 (A') (A") (A') (A") (A') (A') (A') (A') (A') (A")
                 (A') (A") (A') (A") (A') (A') (A") (A') (A") (A')
                 (A') (A") (A") (A') (A') (A') (A') (A') (A") (A")
                 (A') (A') (A') (A") (A') (A") (A') (A') (A") (A")
                 (A') (A') (A') (A') (A') (A') (A") (A') (A") (A')
                 (A") (A') (A") (A') (A') (A') (A') (A') (A') (A')
                 (A') (A') (A') (A')
 Requested convergence on RMS density matrix=1.00D-08 within 128 cycles.
 Requested convergence on MAX density matrix=1.00D-06.
 Requested convergence on             energy=1.00D-06.
 No special actions if energy rises.
 Keep R1 integrals in memory in canonical form, NReq=    17862147.
 SCF Done:  E(RB+HF-PW91) =  -258.217023615     A.U. after    1 cycles
             Convg  =    0.2483D-08             -V/T =  2.0031
             S**2   =   0.0000
 Range of M.O.s used for correlation:     1   102
 NBasis=   102 NAE=    18 NBE=    18 NFC=     0 NFV=     0
 NROrb=    102 NOA=    18 NOB=    18 NVA=    84 NVB=    84
 Symmetrizing basis deriv contribution to polar:
 IMax=3 JMax=2 DiffMx= 0.00D+00
 G2DrvN: will do    8 centers at a time, making    1 passes doing MaxLOS=2.
 FoFDir/FoFCou used for L=0 through L=2.
 DoAtom=TTTTTTT
          Differentiating once with respect to electric field.
                with respect to dipole field.
          Differentiating once with respect to nuclear coordinates.
          Store integrals in memory, NReq=    17126219.
          There are  24 degrees of freedom in the 1st order CPHF.
    21 vectors were produced by pass  0.
 AX will form  21 AO Fock derivatives at one time.
    21 vectors were produced by pass  1.
    21 vectors were produced by pass  2.
    21 vectors were produced by pass  3.
    21 vectors were produced by pass  4.
    20 vectors were produced by pass  5.
     8 vectors were produced by pass  6.
     2 vectors were produced by pass  7.
 Inv2:  IOpt= 1 Iter= 1 AM= 1.62D-15 Conv= 1.00D-12.
 Inverted reduced A of dimension  135 with in-core refinement.
 Isotropic polarizability for W=    0.000000       31.61 Bohr**3.
 End of Minotr Frequency-dependent properties file   721 does not exist.

 **********************************************************************

[...]
 Hexadecapole moment (field-independent basis, Debye-Ang**3):
 XXXX=  -140.8141 YYYY=  -119.6794 ZZZZ=   -25.0889 XXXY=     6.9288
 XXXZ=     0.0000 YYYX=    -0.3626 YYYZ=     0.0000 ZZZX=     0.0000
 ZZZY=     0.0000 XXYY=   -53.2962 XXZZ=   -30.2165 YYZZ=   -28.5372
 XXYZ=     0.0000 YYXZ=     0.0000 ZZXY=    -0.0962
 N-N= 1.673668318201D+02 E-N=-9.381633370692D+02  KE= 2.574278775511D+02
 Symmetry A'   KE= 2.479143699859D+02
 Symmetry A"   KE= 9.513507565193D+00
  Exact polarizability:  38.833   0.971  38.241   0.000   0.000  17.753
 Approx polarizability:  66.391   0.457  70.286   0.000   0.000  26.552
 Full mass-weighted force constant matrix:
 Low frequencies ---   -0.0003    0.0007    0.0007    2.9501   14.3250   17.3945
 Low frequencies ---  619.0341  700.6334  747.1756
 Diagonal vibrational polarizability:
        1.1609121       1.1715967       7.5696851
 Harmonic frequencies (cm**-1), IR intensities (KM/Mole), Raman scattering
 activities (A**4/AMU), depolarization ratios for plane and unpolarized
 incident light, reduced masses (AMU), force constants (mDyne/A),
 and normal coordinates:
                     1                      2                      3
                    A"                     A"                     A"
 Frequencies --   619.0338               700.6333               747.1756
 Red. masses --     1.9663                 1.7894                 7.4213
 Frc consts  --     0.4440                 0.5175                 2.4410
 IR Inten    --    80.5179                14.2829                10.3219
 Atom AN      X      Y      Z        X      Y      Z        X      Y      Z
   1   7     0.00   0.00   0.00     0.00   0.00   0.04     0.00   0.00   0.47
   2   7     0.00   0.00  -0.10     0.00   0.00   0.08     0.00   0.00  -0.40
   3   7     0.00   0.00   0.23     0.00   0.00  -0.07     0.00   0.00   0.11
   4   1     0.00   0.00  -0.91     0.00   0.00  -0.84     0.00   0.00   0.70
   5   7     0.00   0.00   0.04     0.00   0.00  -0.16     0.00   0.00  -0.31
   6   6     0.00   0.00  -0.10     0.00   0.00   0.16     0.00   0.00   0.08
   7   1     0.00   0.00  -0.31     0.00   0.00   0.47     0.00   0.00   0.10
                     4                      5                      6
                    A"                     A'                     A'
 Frequencies --   869.3342               981.6688              1020.3456
 Red. masses --     1.3775                 4.3491                 6.0646
 Frc consts  --     0.6134                 2.4693                 3.7200
 IR Inten    --    17.8209                 4.5229                 0.5645
 Atom AN      X      Y      Z        X      Y      Z        X      Y      Z
   1   7     0.00   0.00   0.02    -0.04   0.18   0.00     0.22  -0.05   0.00
   2   7     0.00   0.00   0.00    -0.13   0.14   0.00     0.09  -0.06   0.00
   3   7     0.00   0.00   0.03    -0.09  -0.05   0.00     0.02   0.40   0.00
   4   1     0.00   0.00   0.04     0.40  -0.02   0.00     0.22   0.43   0.00
   5   7     0.00   0.00   0.03     0.34  -0.22   0.00    -0.02  -0.23   0.00
   6   6     0.00   0.00  -0.18    -0.09  -0.11   0.00    -0.36  -0.06   0.00
   7   1     0.00   0.00   0.98    -0.34   0.68   0.00    -0.23  -0.55   0.00
                     7                      8                      9
                    A'                     A'                     A'
 Frequencies --  1063.9917              1082.1092              1152.8733
 Red. masses --     4.3726                 3.4607                 2.0413
 Frc consts  --     2.9165                 2.3876                 1.5985
 IR Inten    --    18.6830                28.4633                15.0951
 Atom AN      X      Y      Z        X      Y      Z        X      Y      Z
   1   7     0.14  -0.01   0.00     0.29   0.04   0.00    -0.14  -0.12   0.00
   2   7     0.33   0.21   0.00    -0.19   0.03   0.00     0.08  -0.05   0.00
   3   7    -0.19  -0.15   0.00     0.07  -0.15   0.00     0.14   0.02   0.00
   4   1    -0.55  -0.18   0.00     0.85  -0.12   0.00     0.43   0.04   0.00
   5   7    -0.14  -0.07   0.00    -0.17   0.03   0.00    -0.03   0.00   0.00
   6   6    -0.09  -0.02   0.00    -0.06   0.05   0.00    -0.08   0.11   0.00
   7   1    -0.29   0.56   0.00    -0.13   0.25   0.00    -0.30   0.80   0.00
                    10                     11                     12
                    A'                     A'                     A'
 Frequencies --  1275.2801              1315.4337              1469.9189
 Red. masses --     2.4189                10.1739                 3.3540
 Frc consts  --     2.3179                10.3724                 4.2697
 IR Inten    --     1.9848                16.6336                 8.7973
 Atom AN      X      Y      Z        X      Y      Z        X      Y      Z
   1   7    -0.05  -0.07   0.00    -0.03   0.57   0.00    -0.01  -0.01   0.00
   2   7     0.10   0.07   0.00     0.20  -0.47   0.00    -0.06   0.09   0.00
   3   7    -0.06  -0.11   0.00     0.13  -0.15   0.00     0.19  -0.14   0.00
   4   1     0.67  -0.08   0.00    -0.33  -0.21   0.00    -0.70  -0.22   0.00
   5   7     0.11   0.18   0.00    -0.03   0.12   0.00     0.07  -0.13   0.00
   6   6    -0.18  -0.02   0.00    -0.25  -0.07   0.00    -0.16   0.28   0.00
   7   1    -0.01  -0.66   0.00    -0.35   0.08   0.00     0.06  -0.51   0.00
                    13                     14                     15
                    A'                     A'                     A'
 Frequencies --  1521.9488              3288.7831              3669.1068
 Red. masses --     3.3171                 1.1012                 1.0838
 Frc consts  --     4.5270                 7.0176                 8.5963
 IR Inten    --    16.5377                 1.5297                95.3767
 Atom AN      X      Y      Z        X      Y      Z        X      Y      Z
   1   7     0.06  -0.09   0.00     0.00   0.00   0.00     0.00   0.00   0.00
   2   7    -0.10   0.08   0.00     0.00   0.00   0.00     0.00   0.00   0.00
   3   7     0.18   0.02   0.00     0.00   0.00   0.00     0.01  -0.08   0.00
   4   1    -0.76  -0.04   0.00     0.01   0.02   0.00    -0.06   1.00   0.00
   5   7     0.05   0.20   0.00     0.00   0.00   0.00     0.00   0.00   0.00
   6   6    -0.12  -0.27   0.00     0.09   0.03   0.00     0.00   0.00   0.00
   7   1    -0.35   0.33   0.00    -0.95  -0.30   0.00     0.02   0.00   0.00

 -------------------
 - Thermochemistry -
 -------------------
 Temperature   298.150 Kelvin.  Pressure   1.00000 Atm.
 Atom  1 has atomic number  7 and mass  14.00307
 Atom  2 has atomic number  7 and mass  14.00307
 Atom  3 has atomic number  7 and mass  14.00307
 Atom  4 has atomic number  1 and mass   1.00783
 Atom  5 has atomic number  7 and mass  14.00307
 Atom  6 has atomic number  6 and mass  12.00000
 Atom  7 has atomic number  1 and mass   1.00783
 Molecular mass:    70.02795 amu.
 Principal axes and moments of inertia in atomic units:
                           1         2         3
     EIGENVALUES --   170.04392 173.11955 343.16348
           X            0.85750   0.51448   0.00000
           Y           -0.51448   0.85750   0.00000
           Z            0.00000   0.00000   1.00000
 This molecule is an asymmetric top.
 Rotational symmetry number  1.
 Rotational temperatures (Kelvin)      0.50936     0.50031     0.25240
 Rotational constants (GHZ):          10.61338    10.42483     5.25913
 Zero-point vibrational energy     124277.9 (Joules/Mol)
                                   29.70312 (Kcal/Mol)
 Warning -- explicit consideration of   1 degrees of freedom as
           vibrations may cause significant error
 Vibrational temperatures:    890.65  1008.05  1075.02  1250.78  1412.40
          (Kelvin)           1468.05  1530.84  1556.91  1658.73  1834.84
                             1892.61  2114.88  2189.74  4731.82  5279.02
 
 Zero-point correction=                           0.047335 (Hartree/Particle)
 Thermal correction to Energy=                    0.050768
 Thermal correction to Enthalpy=                  0.051712
 Thermal correction to Gibbs Free Energy=         0.021267
 Sum of electronic and zero-point Energies=           -258.169689
 Sum of electronic and thermal Energies=              -258.166256
 Sum of electronic and thermal Enthalpies=            -258.165312
 Sum of electronic and thermal Free Energies=         -258.195757
 
                     E (Thermal)             CV                S
                      KCal/Mol        Cal/Mol-Kelvin    Cal/Mol-Kelvin
 Total                   31.857             11.119             64.076
 Electronic               0.000              0.000              0.000
 Translational            0.889              2.981             38.656
 Rotational               0.889              2.981             23.828
 Vibrational             30.080              5.157              1.592
 Vibration  1             0.979              0.992              0.418
                       Q            Log10(Q)             Ln(Q)
 Total Bot       0.165142D-09         -9.782142        -22.524215
 Total V=0       0.978076D+12         11.990373         27.608853
 Vib (Bot)       0.199271D-21        -21.700555        -49.967375
 Vib (Bot)  1    0.236481D+00         -0.626203         -1.441887
 Vib (V=0)       0.118021D+01          0.071960          0.165694
 Vib (V=0)  1    0.105310D+01          0.022471          0.051741
 Electronic      0.100000D+01          0.000000          0.000000
 Translational   0.230336D+08          7.362362         16.952466
 Rotational      0.359791D+05          4.556051         10.490694
 ***** Axes restored to original set *****
 -------------------------------------------------------------------
 Center     Atomic                   Forces (Hartrees/Bohr)
 Number     Number              X              Y              Z
 -------------------------------------------------------------------
    1          7           0.000182919   -0.000151825    0.000000000
    2          7           0.000188468   -0.000364997    0.000000000
    3          7          -0.000275691    0.000076763    0.000000000
    4          1           0.000028589   -0.000019930    0.000000000
    5          7          -0.000440062    0.000540082    0.000000000
    6          6           0.000311896   -0.000053962    0.000000000
    7          1           0.000003881   -0.000026131    0.000000000
 -------------------------------------------------------------------
 Cartesian Forces:  Max     0.000540082 RMS     0.000206397

 GradGradGradGradGradGradGradGradGradGradGradGradGradGradGradGradGradGrad
 Berny optimization.
 Internal  Forces:  Max     0.000438394 RMS     0.000133372
 Search for a local minimum.
 Step number   1 out of a maximum of   2
 All quantities printed in internal units (Hartrees-Bohrs-Radians)
 Second derivative matrix not updated -- analytic derivatives used.
     Eigenvalues ---    0.00926   0.02578   0.07331   0.07902   0.10102
     Eigenvalues ---    0.10540   0.20214   0.25117   0.35335   0.37769
     Eigenvalues ---    0.44171   0.47448   0.48469   0.58593   0.64112
     Eigenvalues --- 1000.000001000.000001000.000001000.000001000.00000
     Eigenvalues --- 1000.000001000.000001000.000001000.000001000.00000
     Eigenvalues --- 1000.00000
 Angle between quadratic step and forces=  25.20 degrees.
 Linear search not attempted -- first point.
 Iteration  1 RMS(Cart)=  0.00034213 RMS(Int)=  0.00000010
 Iteration  2 RMS(Cart)=  0.00000009 RMS(Int)=  0.00000004
 Variable       Old X    -DE/DX   Delta X   Delta X   Delta X     New X
                                 (Linear)    (Quad)   (Total)
    R1        2.42620  -0.00021   0.00000  -0.00005  -0.00005   2.42616
    R2        2.56358  -0.00044   0.00000  -0.00162  -0.00162   2.56197
    R3        2.53855  -0.00015   0.00000  -0.00065  -0.00065   2.53790
    R4        1.90480   0.00000   0.00000   0.00000   0.00000   1.90480
    R5        2.53689  -0.00004   0.00000   0.00014   0.00014   2.53703
    R6        2.47511   0.00010   0.00000   0.00039   0.00039   2.47550
    R7        2.03699   0.00001   0.00000  -0.00002  -0.00002   2.03697
    A1        1.94485  -0.00013   0.00000  -0.00025  -0.00025   1.94460
    A2        1.85026   0.00018   0.00000   0.00021   0.00021   1.85047
    A3        2.10228   0.00005   0.00000   0.00010   0.00010   2.10238
    A4        1.89461  -0.00005   0.00000   0.00014   0.00014   1.89476
    A5        2.28630   0.00000   0.00000  -0.00025  -0.00025   2.28605
    A6        1.84428   0.00023   0.00000   0.00079   0.00079   1.84507
    A7        1.89077  -0.00023   0.00000  -0.00090  -0.00090   1.88988
    A8        2.18038   0.00013   0.00000   0.00069   0.00069   2.18107
    A9        2.21203   0.00010   0.00000   0.00020   0.00020   2.21224
    D1        0.00000   0.00000   0.00000   0.00000   0.00000   0.00000
    D2        0.00000   0.00000   0.00000   0.00000   0.00000   0.00000
    D3        3.14159   0.00000   0.00000   0.00000   0.00000   3.14159
    D4        0.00000   0.00000   0.00000   0.00000   0.00000   0.00000
    D5        0.00000   0.00000   0.00000   0.00000   0.00000   0.00000
    D6        3.14159   0.00000   0.00000   0.00000   0.00000   3.14159
    D7        3.14159   0.00000   0.00000   0.00000   0.00000   3.14159
    D8        0.00000   0.00000   0.00000   0.00000   0.00000   0.00000
    D9        0.00000   0.00000   0.00000   0.00000   0.00000   0.00000
   D10        3.14159   0.00000   0.00000   0.00000   0.00000   3.14159
         Item               Value     Threshold  Converged?
 Maximum Force            0.000438     0.000450     YES
 RMS     Force            0.000133     0.000300     YES
 Maximum Displacement     0.001128     0.001800     YES
 RMS     Displacement     0.000342     0.001200     YES
 Predicted change in Energy=-7.126376D-07
 Optimization completed.
    -- Stationary point found.
                           ----------------------------
                           !   Optimized Parameters   !
                           ! (Angstroms and Degrees)  !
 --------------------------                            --------------------------
 ! Name  Definition              Value          Derivative Info.                !
 --------------------------------------------------------------------------------
 ! R1    R(1,2)                  1.2839         -DE/DX =   -0.0002              !
 ! R2    R(1,5)                  1.3566         -DE/DX =   -0.0004              !
 ! R3    R(2,3)                  1.3433         -DE/DX =   -0.0002              !
 ! R4    R(3,4)                  1.008          -DE/DX =    0.0                 !
 ! R5    R(3,6)                  1.3425         -DE/DX =    0.0                 !
 ! R6    R(5,6)                  1.3098         -DE/DX =    0.0001              !
 ! R7    R(6,7)                  1.0779         -DE/DX =    0.0                 !
 ! A1    A(2,1,5)              111.4316         -DE/DX =   -0.0001              !
 ! A2    A(1,2,3)              106.0124         -DE/DX =    0.0002              !
 ! A3    A(2,3,4)              120.4517         -DE/DX =    0.0001              !
 ! A4    A(2,3,6)              108.5533         -DE/DX =   -0.0001              !
 ! A5    A(4,3,6)              130.9951         -DE/DX =    0.0                 !
 ! A6    A(1,5,6)              105.6694         -DE/DX =    0.0002              !
 ! A7    A(3,6,5)              108.3334         -DE/DX =   -0.0002              !
 ! A8    A(3,6,7)              124.9263         -DE/DX =    0.0001              !
 ! A9    A(5,6,7)              126.7403         -DE/DX =    0.0001              !
 ! D1    D(5,1,2,3)              0.0            -DE/DX =    0.0                 !
 ! D2    D(2,1,5,6)              0.0            -DE/DX =    0.0                 !
 ! D3    D(1,2,3,4)            180.0            -DE/DX =    0.0                 !
 ! D4    D(1,2,3,6)              0.0            -DE/DX =    0.0                 !
 ! D5    D(2,3,6,5)              0.0            -DE/DX =    0.0                 !
 ! D6    D(2,3,6,7)            180.0            -DE/DX =    0.0                 !
 ! D7    D(4,3,6,5)            180.0            -DE/DX =    0.0                 !
 ! D8    D(4,3,6,7)              0.0            -DE/DX =    0.0                 !
 ! D9    D(1,5,6,3)              0.0            -DE/DX =    0.0                 !
 ! D10   D(1,5,6,7)            180.0            -DE/DX =    0.0                 !
 --------------------------------------------------------------------------------
 GradGradGradGradGradGradGradGradGradGradGradGradGradGradGradGradGradGrad

 1\1\GINC-P91\Freq\RB3PW91\6-311G(d,p)\C1H2N4\RDJ3\07-Jan-2005\0\\#N GE
 OM=ALLCHECK GUESS=READ SCRF=CHECK GENCHK RB3PW91/6-311G(D,P) FREQ\\1H 
 tetrazole c CH-NH-N=N-N= casno=288948 method=16 basis=21\\0,1\N,-1.138
 7337141,-0.2643923893,0.\N,-0.6790396365,0.9343811754,0.\N,0.659257945
 6,0.8180489517,0.\H,1.2434403038,1.6394762762,0.\N,-0.1371422952,-1.17
 935282,0.\C,0.9745928532,-0.4868561192,0.\H,1.9786064783,-0.8791339864
 ,0.\\Version=IA32L-G03RevC.02\State=1-A'\HF=-258.2170236\RMSD=2.483e-0
 9\RMSF=2.064e-04\Dipole=1.95298,0.8486573,0.\DipoleDeriv=-0.0571635,-0
 .1568467,0.,-0.2081699,0.0877974,0.,0.,0.,-0.1555249,0.2563108,0.27186
 27,0.,0.2328124,-0.3221583,0.,0.,0.,-0.0986461,-0.3423656,-0.3042276,0
 .,-0.2124658,-0.2280623,0.,0.,0.,-0.1353348,0.221034,0.0471374,0.,0.02
 9851,0.2655577,0.,0.,0.,0.3405267,-0.3415382,0.1229753,0.,0.0014508,-0
 .3487747,0.,0.,0.,-0.2092238,0.2081101,0.0128109,0.,0.1442984,0.423724
 1,0.,0.,0.,0.0834356,0.0556124,0.0062879,0.,0.012223,0.121916,0.,0.,0.
 ,0.1747673\Polar=39.5490902,-0.0825309,37.5252249,0.,0.,17.7525223\PG=
 CS [SG(C1H2N4)]\NImag=0\\0.56096914,0.09556519,0.49069208,0.,0.,0.1270
 2367,-0.14170820,-0.11209235,0.,0.43703448,-0.05247863,-0.32880197,0.,
 -0.03348360,0.62199212,0.,0.,-0.09887964,0.,0.,0.11746801,-0.11605289,
 -0.11242700,0.,-0.21772096,0.02446282,0.,0.66317779,-0.03304761,-0.063
 95056,0.,0.05956321,-0.12177605,0.,0.20132392,0.93276950,0.,0.,0.02690
 468,0.,0.,-0.07072432,0.,0.,0.09880007,-0.01118540,-0.00146592,0.,-0.0
 0670110,-0.03258007,0.,-0.19653798,-0.17931324,0.,0.19970606,0.0078180
 0,0.00189456,0.,0.00157289,0.01185228,0.,-0.18700317,-0.34081010,0.,0.
 19783914,0.33706267,0.,0.,0.00811962,0.,0.,-0.01178259,0.,0.,-0.009527
 89,0.,0.,0.01517373,-0.16684797,0.06153823,0.,-0.00177518,0.09103293,0
 .,-0.00405965,-0.11418183,0.,-0.00032048,-0.00090136,0.,0.49223697,0.0
 2376213,-0.12926732,0.,-0.01726359,-0.12598968,0.,0.00186268,-0.083658
 19,0.,0.00910135,-0.00614789,0.,0.10651266,0.53594694,0.,0.,-0.0917799
 2,0.,0.,0.03613107,0.,0.,0.02169046,0.,0.,0.00753090,0.,0.,0.11179646,
 -0.12205961,0.06918002,0.,-0.06899706,0.00689833,0.,-0.13359213,0.0693
 8654,0.,0.01540323,-0.01988015,0.,-0.30421641,-0.13469855,0.,0.9342034
 8,-0.03530073,0.03072612,0.,0.10233016,-0.05103642,0.,0.04024237,-0.31
 798727,0.,0.00650110,-0.00359454,0.,-0.12746226,-0.20506116,0.,-0.0951
 6412,0.64383823,0.,0.,0.01950282,0.,0.,0.02165318,0.,0.,-0.06503942,0.
 ,0.,-0.00850980,0.,0.,-0.08050867,0.,0.,0.14365067,-0.00311508,-0.0002
 9818,0.,-0.00013197,-0.00385180,0.,0.00478582,-0.00373100,0.,-0.000364
 33,0.00055465,0.,-0.01501728,0.01072332,0.,-0.32074150,0.10885348,0.,0
 .33458434,-0.00631836,-0.00129291,0.,-0.00062671,-0.00624029,0.,0.0315
 3838,-0.00458732,0.,-0.00008237,-0.00025697,0.,-0.01653837,0.01417730,
 0.,0.10427792,-0.09688496,0.,-0.11225048,0.09508515,0.,0.,0.00910876,0
 .,0.,0.00613428,0.,0.,-0.00210358,0.,0.,-0.00100396,0.,0.,-0.00486030,
 0.,0.,-0.03074879,0.,0.,0.02347360\\-0.00018292,0.00015182,0.,-0.00018
 847,0.00036500,0.,0.00027569,-0.00007676,0.,-0.00002859,0.00001993,0.,
 0.00044006,-0.00054008,0.,-0.00031190,0.00005396,0.,-0.00000388,0.0000
 2613,0.\\\@


 QUANTUM MECHANICS IS BOHRING -- M.S. GORDON
 Job cpu time:  0 days  0 hours  9 minutes 16.5 seconds.
 File lengths (MBytes):  RWF=     17 Int=      0 D2E=      0 Chk=      5 Scr=      1
 Normal termination of Gaussian 03 at Fri Jan  7 18:24:16 2005.
