 Entering Gaussian System, Link 0=g98
 Initial command:
 /usr/local/apps/g98/g98/l1.exe /tmp/Gau-1675272.inp -scrdir=/tmp/
 Entering Link 1 = /usr/local/apps/g98/g98/l1.exe PID=   1675449.
  
 Copyright (c) 1988,1990,1992,1993,1995,1998 Gaussian, Inc.
                  All Rights Reserved.
  
 This is part of the Gaussian(R) 98 program.  It is based on
 the Gaussian 94(TM) system (copyright 1995 Gaussian, Inc.),
 the Gaussian 92(TM) system (copyright 1992 Gaussian, Inc.),
 the Gaussian 90(TM) system (copyright 1990 Gaussian, Inc.),
 the Gaussian 88(TM) system (copyright 1988 Gaussian, Inc.),
 the Gaussian 86(TM) system (copyright 1986 Carnegie Mellon
 University), and the Gaussian 82(TM) system (copyright 1983
 Carnegie Mellon University). Gaussian is a federally registered
 trademark of Gaussian, Inc.
  
 This software contains proprietary and confidential information,
 including trade secrets, belonging to Gaussian, Inc.
  
 This software is provided under written license and may be
 used, copied, transmitted, or stored only in accord with that
 written license.
  
 The following legend is applicable only to US Government
 contracts under DFARS:
  
                    RESTRICTED RIGHTS LEGEND
  
 Use, duplication or disclosure by the US Government is subject
 to restrictions as set forth in subparagraph (c)(1)(ii) of the
 Rights in Technical Data and Computer Software clause at DFARS
 252.227-7013.
  
 Gaussian, Inc.
 Carnegie Office Park, Building 6, Pittsburgh, PA 15106 USA
  
 The following legend is applicable only to US Government
 contracts under FAR:
  
                    RESTRICTED RIGHTS LEGEND
  
 Use, reproduction and disclosure by the US Government is subject
 to restrictions as set forth in subparagraph (c) of the
 Commercial Computer Software - Restricted Rights clause at FAR
 52.227-19.
  
 Gaussian, Inc.
 Carnegie Office Park, Building 6, Pittsburgh, PA 15106 USA
  
  
 ---------------------------------------------------------------
 Warning -- This program may not be used in any manner that
 competes with the business of Gaussian, Inc. or will provide
 assistance to any competitor of Gaussian, Inc.  The licensee
 of this program is prohibited from giving any competitor of
 Gaussian, Inc. access to this program.  By using this program,
 the user acknowledges that Gaussian, Inc. is engaged in the
 business of creating and licensing software in the field of
 computational chemistry and represents and warrants to the
 licensee that it is not a competitor of Gaussian, Inc. and that
 it will not use this program in any manner prohibited above.
 ---------------------------------------------------------------
  

 Cite this work as:
 Gaussian 98, Revision A.7,
 M. J. Frisch, G. W. Trucks, H. B. Schlegel, G. E. Scuseria, 
 M. A. Robb, J. R. Cheeseman, V. G. Zakrzewski, J. A. Montgomery, Jr., 
 R. E. Stratmann, J. C. Burant, S. Dapprich, J. M. Millam, 
 A. D. Daniels, K. N. Kudin, M. C. Strain, O. Farkas, J. Tomasi, 
 V. Barone, M. Cossi, R. Cammi, B. Mennucci, C. Pomelli, C. Adamo, 
 S. Clifford, J. Ochterski, G. A. Petersson, P. Y. Ayala, Q. Cui, 
 K. Morokuma, D. K. Malick, A. D. Rabuck, K. Raghavachari, 
 J. B. Foresman, J. Cioslowski, J. V. Ortiz, A. G. Baboul, 
 B. B. Stefanov, G. Liu, A. Liashenko, P. Piskorz, I. Komaromi, 
 R. Gomperts, R. L. Martin, D. J. Fox, T. Keith, M. A. Al-Laham, 
 C. Y. Peng, A. Nanayakkara, C. Gonzalez, M. Challacombe, 
 P. M. W. Gill, B. Johnson, W. Chen, M. W. Wong, J. L. Andres, 
 C. Gonzalez, M. Head-Gordon, E. S. Replogle, and J. A. Pople, 
 Gaussian, Inc., Pittsburgh PA, 1998.

 *****************************************
 Gaussian 98:  SGI64-G98RevA.7 11-Apr-1999
                26-May-2000 
 *****************************************
 %NProc=4
 Will use up to    4 processors via shared memory.
 %mem=24000000
 ------------------------
 #B3PW91/6-311G* opt freq
 ------------------------
 1/14=-1,18=20,26=3,38=1/1,3;
 2/9=110,17=6,18=5/2;
 3/5=4,6=6,7=1,11=2,25=1,30=1/1,2,3;
 4//1;
 5/5=2,38=4,42=-6/2;
 6/7=2,8=2,9=2,10=2,28=1/1;
 7//1,2,3,16;
 1/14=-1,18=20/3(1);
 99//99;
 2/9=110/2;
 3/5=4,6=6,7=1,11=2,25=1,30=1/1,2,3;
 4/5=5,16=2/1;
 5/5=2,38=4,42=-6/2;
 7//1,2,3,16;
 1/14=-1,18=20/3(-5);
 2/9=110/2;
 6/7=2,8=2,9=2,10=2,19=2,28=1/1;
 99/9=1/99;
 ----------------------------------------
 1H tetrazole c CH-NH-N=N-N= casno=288948
 ----------------------------------------
 Symbolic Z-matrix:
 Charge =  0 Multiplicity = 1
 7                    -1.12329  -0.25456   0. 
 7                    -0.67158   0.91328   0. 
 7                     0.65055   0.80984   0. 
 1                     1.224     1.62189   0. 
 7                    -0.13465  -1.16105   0. 
 6                     0.96218  -0.48332   0. 
 1                     1.95569  -0.87454   0. 

 GradGradGradGradGradGradGradGradGradGradGradGradGradGradGradGradGradGrad
 Berny optimization.
 Initialization pass.
                         ----------------------------
                         !    Initial Parameters    !
                         ! (Angstroms and Degrees)  !
 ------------------------                            -------------------------
 ! Name  Definition              Value          Derivative Info.             !
 -----------------------------------------------------------------------------
 ! R1    R(1,2)                  1.2522         estimate D2E/DX2             !
 ! R2    R(1,5)                  1.3413         estimate D2E/DX2             !
 ! R3    R(2,3)                  1.3262         estimate D2E/DX2             !
 ! R4    R(3,4)                  0.9941         estimate D2E/DX2             !
 ! R5    R(3,6)                  1.3302         estimate D2E/DX2             !
 ! R6    R(5,6)                  1.2893         estimate D2E/DX2             !
 ! R7    R(6,7)                  1.0678         estimate D2E/DX2             !
 ! A1    A(2,1,5)              111.3714         estimate D2E/DX2             !
 ! A2    A(1,2,3)              106.673          estimate D2E/DX2             !
 ! A3    A(2,3,4)              120.7559         estimate D2E/DX2             !
 ! A4    A(2,3,6)              108.0227         estimate D2E/DX2             !
 ! A5    A(4,3,6)              131.2214         estimate D2E/DX2             !
 ! A6    A(1,5,6)              105.77           estimate D2E/DX2             !
 ! A7    A(3,6,5)              108.1628         estimate D2E/DX2             !
 ! A8    A(3,6,7)              125.0426         estimate D2E/DX2             !
 ! A9    A(5,6,7)              126.7945         estimate D2E/DX2             !
 ! D1    D(5,1,2,3)              0.             estimate D2E/DX2             !
 ! D2    D(2,1,5,6)              0.             estimate D2E/DX2             !
 ! D3    D(1,2,3,4)            180.             estimate D2E/DX2             !
 ! D4    D(1,2,3,6)              0.             estimate D2E/DX2             !
 ! D5    D(2,3,6,5)              0.             estimate D2E/DX2             !
 ! D6    D(2,3,6,7)            180.             estimate D2E/DX2             !
 ! D7    D(4,3,6,5)            180.             estimate D2E/DX2             !
 ! D8    D(4,3,6,7)              0.             estimate D2E/DX2             !
 ! D9    D(1,5,6,3)              0.             estimate D2E/DX2             !
 ! D10   D(1,5,6,7)            180.             estimate D2E/DX2             !
 -----------------------------------------------------------------------------
 Trust Radius=3.00D-01 FncErr=1.00D-07 GrdErr=1.00D-06
 Number of steps in this run=  36 maximum allowed number of steps= 100.
 GradGradGradGradGradGradGradGradGradGradGradGradGradGradGradGradGradGrad

                          Input orientation:                          
 ---------------------------------------------------------------------
 Center     Atomic     Atomic              Coordinates (Angstroms)
 Number     Number      Type              X           Y           Z
 ---------------------------------------------------------------------
    1          7             0       -1.123293   -0.254560    0.000000
    2          7             0       -0.671576    0.913277    0.000000
    3          7             0        0.650545    0.809842    0.000000
    4          1             0        1.224004    1.621891    0.000000
    5          7             0       -0.134646   -1.161053    0.000000
    6          6             0        0.962183   -0.483316    0.000000
    7          1             0        1.955691   -0.874535    0.000000
 ---------------------------------------------------------------------
                    Distance matrix (angstroms):
                    1          2          3          4          5
     1  N    0.000000
     2  N    1.252155   0.000000
     3  N    2.068684   1.326161   0.000000
     4  H    3.005141   2.023699   0.994122   0.000000
     5  N    1.341325   2.142694   2.121545   3.096887   0.000000
     6  C    2.097985   2.149335   1.330179   2.121426   1.289326
     7  H    3.140782   3.177861   2.130852   2.601444   2.109882
                    6          7
     6  C    0.000000
     7  H    1.067760   0.000000
 Stoichiometry    CH2N4
 Framework group  CS[SG(CH2N4)]
 Deg. of freedom   11
 Full point group                 CS      NOp   2
 Largest Abelian subgroup         CS      NOp   2
 Largest concise Abelian subgroup C1      NOp   1
                         Standard orientation:                         
 ---------------------------------------------------------------------
 Center     Atomic     Atomic              Coordinates (Angstroms)
 Number     Number      Type              X           Y           Z
 ---------------------------------------------------------------------
    1          7             0       -0.716312   -0.901934    0.000000
    2          7             0       -1.095520    0.291420    0.000000
    3          7             0        0.000000    1.038775    0.000000
    4          1             0       -0.061479    2.030994    0.000000
    5          7             0        0.622151   -0.989495    0.000000
    6          6             0        1.052813    0.225779    0.000000
    7          1             0        2.072370    0.542976    0.000000
 ---------------------------------------------------------------------
 Rotational constants (GHZ):     10.9198679     10.7343949      5.4131685
 Isotopes: N-14,N-14,N-14,H-1,N-14,C-12,H-1
 Standard basis: 6-311G(d) (5D, 7F)
 There are    71 symmetry adapted basis functions of A'  symmetry.
 There are    25 symmetry adapted basis functions of A"  symmetry.
 Crude estimate of integral set expansion from redundant integrals=1.000.
 Integral buffers will be    131072 words long.
 Raffenetti 2 integral format.
 Two-electron integral symmetry is turned on.
    96 basis functions      170 primitive gaussians
    18 alpha electrons       18 beta electrons
       nuclear repulsion energy       169.8288422228 Hartrees.
 One-electron integrals computed using PRISM.
 NBasis=    96 RedAO= T  NBF=    71    25
 NBsUse=    96 1.00D-04 NBFU=    71    25
 Projected INDO Guess.
 Initial guess orbital symmetries:
       Occupied  (A') (A') (A') (A') (A') (A') (A') (A') (A') (A')
                 (A') (A") (A') (A') (A") (A") (A') (A')
       Virtual   (A") (A') (A") (A') (A') (A') (A') (A') (A') (A')
                 (A') (A') (A') (A') (A') (A') (A') (A') (A') (A')
                 (A') (A') (A') (A') (A') (A') (A') (A') (A') (A')
                 (A') (A') (A') (A') (A') (A') (A') (A') (A') (A')
                 (A') (A') (A') (A') (A') (A') (A') (A') (A') (A')
                 (A') (A') (A') (A') (A') (A') (A') (A') (A") (A")
                 (A") (A") (A") (A") (A") (A") (A") (A") (A") (A")
                 (A") (A") (A") (A") (A") (A") (A") (A")
 Requested convergence on RMS density matrix=1.00D-08 within  64 cycles.
 Requested convergence on MAX density matrix=1.00D-06.
 Integral accuracy reduced to 1.0D-05 until final iterations.
 Initial convergence to 1.0D-05 achieved.  Increase integral accuracy.
 SCF Done:  E(RB+HF-PW91) =  -258.209494270     A.U. after   15 cycles
             Convg  =    0.3431D-08             -V/T =  2.0018
             S**2   =   0.0000

 **********************************************************************

            Population analysis using the SCF density.

 **********************************************************************

 Orbital Symmetries:
       Occupied  (A') (A') (A') (A') (A') (A') (A') (A') (A') (A')
                 (A') (A") (A') (A') (A") (A") (A') (A')
       Virtual   (A") (A") (A') (A') (A') (A') (A') (A') (A') (A")
                 (A') (A') (A') (A') (A') (A") (A') (A") (A') (A')
                 (A') (A") (A") (A') (A') (A') (A') (A') (A') (A')
                 (A") (A') (A") (A') (A") (A") (A') (A") (A') (A')
                 (A') (A') (A') (A") (A') (A") (A') (A') (A") (A')
                 (A") (A') (A') (A") (A") (A') (A') (A') (A') (A')
                 (A') (A") (A") (A') (A") (A') (A") (A') (A') (A')
                 (A') (A') (A') (A') (A') (A') (A') (A')
  The electronic state is 1-A'.
 Alpha  occ. eigenvalues --  -14.41848 -14.37975 -14.36093 -14.33203 -10.24918
 Alpha  occ. eigenvalues --   -1.18286  -0.97023  -0.91947  -0.69883  -0.68543
 Alpha  occ. eigenvalues --   -0.61741  -0.52103  -0.51497  -0.39240  -0.34606
 Alpha  occ. eigenvalues --   -0.32595  -0.30894  -0.29307
 Alpha virt. eigenvalues --   -0.02009   0.01712   0.02990   0.07411   0.17658
 Alpha virt. eigenvalues --    0.19122   0.21968   0.29306   0.33633   0.38749
 Alpha virt. eigenvalues --    0.41828   0.43629   0.49789   0.55788   0.56493
 Alpha virt. eigenvalues --    0.56602   0.60088   0.60220   0.62859   0.65310
 Alpha virt. eigenvalues --    0.68837   0.69615   0.73886   0.73953   0.83116
 Alpha virt. eigenvalues --    0.86276   0.92849   0.97978   1.01342   1.17290
 Alpha virt. eigenvalues --    1.17708   1.21886   1.24302   1.35960   1.49815
 Alpha virt. eigenvalues --    1.65084   1.69076   1.71472   1.76882   1.83015
 Alpha virt. eigenvalues --    1.86999   2.03368   2.21007   2.21155   2.25668
 Alpha virt. eigenvalues --    2.31802   2.34651   2.44520   2.46048   2.60183
 Alpha virt. eigenvalues --    2.61099   2.66324   2.71915   2.75775   2.80140
 Alpha virt. eigenvalues --    2.83336   3.06638   3.14852   3.24663   3.31033
 Alpha virt. eigenvalues --    3.48360   3.52561   3.64068   3.78941   3.83471
 Alpha virt. eigenvalues --    3.90297   3.93992   3.94018   4.38821   4.52420
 Alpha virt. eigenvalues --    4.61874   4.87800   5.75406  23.82761  35.23739
 Alpha virt. eigenvalues --   35.46370  35.57575  35.65794
          Condensed to atoms (all electrons):
              1          2          3          4          5          6
  1  N    6.684208   0.300588  -0.071464   0.007452   0.306236  -0.142896
  2  N    0.300588   6.744588   0.196238  -0.023939  -0.094718  -0.115429
  3  N   -0.071464   0.196238   6.758471   0.303113  -0.070930   0.347434
  4  H    0.007452  -0.023939   0.303113   0.356539   0.008213  -0.032766
  5  N    0.306236  -0.094718  -0.070930   0.008213   6.622636   0.490384
  6  C   -0.142896  -0.115429   0.347434  -0.032766   0.490384   4.940403
  7  H    0.002876   0.003197  -0.028232  -0.000125  -0.016253   0.377968
              7
  1  N    0.002876
  2  N    0.003197
  3  N   -0.028232
  4  H   -0.000125
  5  N   -0.016253
  6  C    0.377968
  7  H    0.399260
 Total atomic charges:
              1
  1  N   -0.087001
  2  N   -0.010525
  3  N   -0.434630
  4  H    0.381513
  5  N   -0.245567
  6  C    0.134903
  7  H    0.261308
 Sum of Mulliken charges=   0.00000
 Atomic charges with hydrogens summed into heavy atoms:
              1
  1  N   -0.087001
  2  N   -0.010525
  3  N   -0.053118
  4  H    0.000000
  5  N   -0.245567
  6  C    0.396211
  7  H    0.000000
 Sum of Mulliken charges=   0.00000
 Electronic spatial extent (au):  <R**2>=   244.1064
 Charge=     0.0000 electrons
 Dipole moment (Debye):
    X=     2.4828    Y=     4.8007    Z=     0.0000  Tot=     5.4048
 Quadrupole moment (Debye-Ang):
   XX=   -28.7252   YY=   -26.2458   ZZ=   -28.0475
   XY=     1.7741   XZ=     0.0000   YZ=     0.0000
 Octapole moment (Debye-Ang**2):
  XXX=    11.7105  YYY=    22.1513  ZZZ=     0.0000  XYY=    -0.5912
  XXY=     4.5383  XXZ=     0.0000  XZZ=    -0.7764  YZZ=     0.4821
  YYZ=     0.0000  XYZ=     0.0000
 Hexadecapole moment (Debye-Ang**3):
 XXXX=  -137.6957 YYYY=  -116.6950 ZZZZ=   -24.9206 XXXY=     6.4537
 XXXZ=     0.0000 YYYX=    -0.3993 YYYZ=     0.0000 ZZZX=     0.0000
 ZZZY=     0.0000 XXYY=   -51.9645 XXZZ=   -29.5060 YYZZ=   -27.7932
 XXYZ=     0.0000 YYXZ=     0.0000 ZZXY=    -0.1152
 N-N= 1.698288422228D+02 E-N=-9.432811339303D+02  KE= 2.577560755124D+02
 Symmetry A'   KE= 2.481959196868D+02
 Symmetry A"   KE= 9.560155825568D+00
 ***** Axes restored to original set *****
 -------------------------------------------------------------------
 Center     Atomic                   Forces (Hartrees/Bohr)
 Number     Number              X              Y              Z
 -------------------------------------------------------------------
    1          7          -0.025380266   -0.024146324    0.000000000
    2          7          -0.004880344    0.038842708    0.000000000
    3          7           0.007417987    0.004038573    0.000000000
    4          1           0.006770496    0.010027160    0.000000000
    5          7          -0.008122862   -0.025871336    0.000000000
    6          6           0.016680599    0.000027779    0.000000000
    7          1           0.007514391   -0.002918561    0.000000000
 -------------------------------------------------------------------
 Cartesian Forces:  Max     0.038842708 RMS     0.013897637

 GradGradGradGradGradGradGradGradGradGradGradGradGradGradGradGradGradGrad
 Berny optimization.
 Internal  Forces:  Max     0.037436156 RMS     0.011110591
 Search for a local minimum.
 Step number   1 out of a maximum of  36
 All quantities printed in internal units (Hartrees-Bohrs-Radians)
 Second derivative matrix not updated -- first step.
     Eigenvalues ---    0.02505   0.02639   0.02674   0.02834   0.16000
     Eigenvalues ---    0.16000   0.22605   0.24688   0.37515   0.48737
     Eigenvalues ---    0.50885   0.56605   0.58506   0.66912   0.78894
     Eigenvalues --- 1000.000001000.000001000.000001000.000001000.00000
     Eigenvalues --- 1000.000001000.000001000.000001000.000001000.00000
     Eigenvalues --- 1000.00000
 RFO step:  Lambda=-4.68414830D-03.
 Linear search not attempted -- first point.
 Iteration  1 RMS(Cart)=  0.01758022 RMS(Int)=  0.00002752
 Iteration  2 RMS(Cart)=  0.00002493 RMS(Int)=  0.00001066
 Iteration  3 RMS(Cart)=  0.00000000 RMS(Int)=  0.00001066
 Variable       Old X    -DE/DX   Delta X   Delta X   Delta X     New X
                                 (Linear)    (Quad)   (Total)
    R1        2.36623   0.03744   0.00000   0.04649   0.04651   2.41274
    R2        2.53474   0.01654   0.00000   0.03007   0.03008   2.56482
    R3        2.50608   0.01811   0.00000   0.02974   0.02974   2.53583
    R4        1.87862   0.01210   0.00000   0.02458   0.02458   1.90320
    R5        2.51367   0.01816   0.00000   0.02846   0.02845   2.54212
    R6        2.43647   0.02528   0.00000   0.03478   0.03477   2.47124
    R7        2.01777   0.00806   0.00000   0.02123   0.02123   2.03900
    A1        1.94380  -0.00136   0.00000   0.00229   0.00231   1.94611
    A2        1.86179  -0.00267   0.00000  -0.00593  -0.00591   1.85589
    A3        2.10759  -0.00121   0.00000  -0.00318  -0.00317   2.10441
    A4        1.88535   0.00193   0.00000   0.00340   0.00338   1.88874
    A5        2.29025  -0.00072   0.00000  -0.00022  -0.00021   2.29004
    A6        1.84604  -0.00062   0.00000  -0.00392  -0.00393   1.84211
    A7        1.88780   0.00271   0.00000   0.00416   0.00414   1.89194
    A8        2.18241  -0.00140   0.00000  -0.00235  -0.00234   2.18007
    A9        2.21298  -0.00131   0.00000  -0.00181  -0.00180   2.21118
    D1        0.00000   0.00000   0.00000   0.00000   0.00000   0.00000
    D2        0.00000   0.00000   0.00000   0.00000   0.00000   0.00000
    D3        3.14159   0.00000   0.00000   0.00000   0.00000   3.14159
    D4        0.00000   0.00000   0.00000   0.00000   0.00000   0.00000
    D5        0.00000   0.00000   0.00000   0.00000   0.00000   0.00000
    D6        3.14159   0.00000   0.00000   0.00000   0.00000   3.14159
    D7        3.14159   0.00000   0.00000   0.00000   0.00000   3.14159
    D8        0.00000   0.00000   0.00000   0.00000   0.00000   0.00000
    D9        0.00000   0.00000   0.00000   0.00000   0.00000   0.00000
   D10        3.14159   0.00000   0.00000   0.00000   0.00000   3.14159
         Item               Value     Threshold  Converged?
 Maximum Force            0.037436     0.000450     NO 
 RMS     Force            0.011111     0.000300     NO 
 Maximum Displacement     0.037033     0.001800     NO 
 RMS     Displacement     0.017574     0.001200     NO 
 Predicted change in Energy=-2.325585D-03
 GradGradGradGradGradGradGradGradGradGradGradGradGradGradGradGradGradGrad

                          Input orientation:                          
 ---------------------------------------------------------------------
 Center     Atomic     Atomic              Coordinates (Angstroms)
 Number     Number      Type              X           Y           Z
 ---------------------------------------------------------------------
    1          7             0       -1.141958   -0.262801    0.000000
    2          7             0       -0.683407    0.928779    0.000000
    3          7             0        0.653956    0.818508    0.000000
    4          1             0        1.235756    1.640590    0.000000
    5          7             0       -0.142126   -1.180650    0.000000
    6          6             0        0.968061   -0.489541    0.000000
    7          1             0        1.972624   -0.883339    0.000000
 ---------------------------------------------------------------------
                    Distance matrix (angstroms):
                    1          2          3          4          5
     1  N    0.000000
     2  N    1.276766   0.000000
     3  N    2.096315   1.341901   0.000000
     4  H    3.045722   2.046916   1.007130   0.000000
     5  N    1.357244   2.177769   2.151831   3.139738   0.000000
     6  C    2.122167   2.176920   1.345234   2.146886   1.307726
     7  H    3.175797   3.215319   2.152945   2.629295   2.135547
                    6          7
     6  C    0.000000
     7  H    1.078992   0.000000
 Stoichiometry    CH2N4
 Framework group  CS[SG(CH2N4)]
 Deg. of freedom   11
 Full point group                 CS      NOp   2
 Largest Abelian subgroup         CS      NOp   2
 Largest concise Abelian subgroup C1      NOp   1
                         Standard orientation:                         
 ---------------------------------------------------------------------
 Center     Atomic     Atomic              Coordinates (Angstroms)
 Number     Number      Type              X           Y           Z
 ---------------------------------------------------------------------
    1          7             0       -0.722631   -0.915912    0.000000
    2          7             0       -1.111568    0.300172    0.000000
    3          7             0        0.000000    1.051914    0.000000
    4          1             0       -0.061414    2.057170    0.000000
    5          7             0        0.631678   -1.005113    0.000000
    6          6             0        1.064189    0.229019    0.000000
    7          1             0        2.093930    0.551286    0.000000
 ---------------------------------------------------------------------
 Rotational constants (GHZ):     10.6394870     10.4393520      5.2692347
 Isotopes: N-14,N-14,N-14,H-1,N-14,C-12,H-1
 Standard basis: 6-311G(d) (5D, 7F)
 There are    71 symmetry adapted basis functions of A'  symmetry.
 There are    25 symmetry adapted basis functions of A"  symmetry.
 Crude estimate of integral set expansion from redundant integrals=1.000.
 Integral buffers will be    131072 words long.
 Raffenetti 2 integral format.
 Two-electron integral symmetry is turned on.
    96 basis functions      170 primitive gaussians
    18 alpha electrons       18 beta electrons
       nuclear repulsion energy       167.5421470433 Hartrees.
 One-electron integrals computed using PRISM.
 NBasis=    96 RedAO= T  NBF=    71    25
 NBsUse=    96 1.00D-04 NBFU=    71    25
 Initial guess read from the read-write file:
 Initial guess orbital symmetries:
       Occupied  (A') (A') (A') (A') (A') (A') (A') (A') (A') (A')
                 (A') (A") (A') (A') (A") (A") (A') (A')
       Virtual   (A") (A") (A') (A') (A') (A') (A') (A') (A') (A")
                 (A') (A') (A') (A') (A') (A") (A') (A") (A') (A')
                 (A') (A") (A") (A') (A') (A') (A') (A') (A') (A')
                 (A") (A') (A") (A') (A") (A") (A') (A") (A') (A')
                 (A') (A') (A') (A") (A') (A") (A') (A') (A") (A')
                 (A") (A') (A') (A") (A") (A') (A') (A') (A') (A')
                 (A') (A") (A") (A') (A") (A') (A") (A') (A') (A')
                 (A') (A') (A') (A') (A') (A') (A') (A')
 Requested convergence on RMS density matrix=1.00D-08 within  64 cycles.
 Requested convergence on MAX density matrix=1.00D-06.
 Integral accuracy reduced to 1.0D-05 until final iterations.
 Initial convergence to 1.0D-05 achieved.  Increase integral accuracy.
 SCF Done:  E(RB+HF-PW91) =  -258.211964987     A.U. after   12 cycles
             Convg  =    0.4649D-08             -V/T =  2.0029
             S**2   =   0.0000
 ***** Axes restored to original set *****
 -------------------------------------------------------------------
 Center     Atomic                   Forces (Hartrees/Bohr)
 Number     Number              X              Y              Z
 -------------------------------------------------------------------
    1          7          -0.002967887   -0.005487984    0.000000000
    2          7           0.000493732    0.007219920    0.000000000
    3          7           0.001179662   -0.003102691    0.000000000
    4          1          -0.000144507   -0.000113667    0.000000000
    5          7          -0.000086000   -0.000553073    0.000000000
    6          6           0.001815908    0.001861750    0.000000000
    7          1          -0.000290906    0.000175745    0.000000000
 -------------------------------------------------------------------
 Cartesian Forces:  Max     0.007219920 RMS     0.002283918

 GradGradGradGradGradGradGradGradGradGradGradGradGradGradGradGradGradGrad
 Berny optimization.
 Internal  Forces:  Max     0.005835453 RMS     0.001368647
 Search for a local minimum.
 Step number   2 out of a maximum of  36
 All quantities printed in internal units (Hartrees-Bohrs-Radians)
 Update second derivatives using information from points  1  2
 Trust test= 1.06D+00 RLast= 8.44D-02 DXMaxT set to 3.00D-01
     Eigenvalues ---    0.02506   0.02639   0.02675   0.02834   0.15998
     Eigenvalues ---    0.16000   0.22558   0.24666   0.37738   0.48908
     Eigenvalues ---    0.50679   0.55787   0.60317   0.67171   0.72386
     Eigenvalues --- 1000.000001000.000001000.000001000.000001000.00000
     Eigenvalues --- 1000.000001000.000001000.000001000.000001000.00000
     Eigenvalues --- 1000.00000
 RFO step:  Lambda=-6.01598147D-05.
 Quartic linear search produced a step of  0.08605.
 Iteration  1 RMS(Cart)=  0.00233177 RMS(Int)=  0.00000512
 Iteration  2 RMS(Cart)=  0.00000434 RMS(Int)=  0.00000260
 Iteration  3 RMS(Cart)=  0.00000000 RMS(Int)=  0.00000260
 Variable       Old X    -DE/DX   Delta X   Delta X   Delta X     New X
                                 (Linear)    (Quad)   (Total)
    R1        2.41274   0.00584   0.00400   0.00505   0.00905   2.42179
    R2        2.56482   0.00080   0.00259   0.00001   0.00260   2.56742
    R3        2.53583   0.00155   0.00256   0.00079   0.00335   2.53917
    R4        1.90320  -0.00018   0.00212  -0.00203   0.00008   1.90328
    R5        2.54212  -0.00139   0.00245  -0.00524  -0.00280   2.53933
    R6        2.47124   0.00125   0.00299  -0.00089   0.00210   2.47334
    R7        2.03900  -0.00033   0.00183  -0.00234  -0.00051   2.03848
    A1        1.94611  -0.00105   0.00020  -0.00141  -0.00121   1.94490
    A2        1.85589  -0.00155  -0.00051  -0.00429  -0.00479   1.85110
    A3        2.10441  -0.00085  -0.00027  -0.00301  -0.00329   2.10113
    A4        1.88874   0.00159   0.00029   0.00544   0.00573   1.89446
    A5        2.29004  -0.00074  -0.00002  -0.00242  -0.00244   2.28759
    A6        1.84211   0.00074  -0.00034   0.00265   0.00231   1.84442
    A7        1.89194   0.00028   0.00036  -0.00239  -0.00204   1.88990
    A8        2.18007  -0.00020  -0.00020   0.00077   0.00057   2.18064
    A9        2.21118  -0.00007  -0.00015   0.00162   0.00147   2.21265
    D1        0.00000   0.00000   0.00000   0.00000   0.00000   0.00000
    D2        0.00000   0.00000   0.00000   0.00000   0.00000   0.00000
    D3        3.14159   0.00000   0.00000   0.00000   0.00000   3.14159
    D4        0.00000   0.00000   0.00000   0.00000   0.00000   0.00000
    D5        0.00000   0.00000   0.00000   0.00000   0.00000   0.00000
    D6        3.14159   0.00000   0.00000   0.00000   0.00000   3.14159
    D7        3.14159   0.00000   0.00000   0.00000   0.00000   3.14159
    D8        0.00000   0.00000   0.00000   0.00000   0.00000   0.00000
    D9        0.00000   0.00000   0.00000   0.00000   0.00000   0.00000
   D10        3.14159   0.00000   0.00000   0.00000   0.00000   3.14159
         Item               Value     Threshold  Converged?
 Maximum Force            0.005835     0.000450     NO 
 RMS     Force            0.001369     0.000300     NO 
 Maximum Displacement     0.007155     0.001800     NO 
 RMS     Displacement     0.002331     0.001200     NO 
 Predicted change in Energy=-4.613326D-05
 GradGradGradGradGradGradGradGradGradGradGradGradGradGradGradGradGradGrad

                          Input orientation:                          
 ---------------------------------------------------------------------
 Center     Atomic     Atomic              Coordinates (Angstroms)
 Number     Number      Type              X           Y           Z
 ---------------------------------------------------------------------
    1          7             0       -1.139424   -0.262326    0.000000
    2          7             0       -0.679976    0.934041    0.000000
    3          7             0        0.658688    0.818137    0.000000
    4          1             0        1.241182    1.639782    0.000000
    5          7             0       -0.136834   -1.179201    0.000000
    6          6             0        0.974578   -0.487959    0.000000
    7          1             0        1.979303   -0.880595    0.000000
 ---------------------------------------------------------------------
                    Distance matrix (angstroms):
                    1          2          3          4          5
     1  N    0.000000
     2  N    1.281557   0.000000
     3  N    2.097763   1.343673   0.000000
     4  H    3.047179   2.046684   1.007174   0.000000
     5  N    1.358619   2.181925   2.149935   3.137769   0.000000
     6  C    2.126009   2.181658   1.343753   2.144379   1.308837
     7  H    3.179420   3.219421   2.151678   2.626238   2.137101
                    6          7
     6  C    0.000000
     7  H    1.078720   0.000000
 Stoichiometry    CH2N4
 Framework group  CS[SG(CH2N4)]
 Deg. of freedom   11
 Full point group                 CS      NOp   2
 Largest Abelian subgroup         CS      NOp   2
 Largest concise Abelian subgroup C1      NOp   1
                         Standard orientation:                         
 ---------------------------------------------------------------------
 Center     Atomic     Atomic              Coordinates (Angstroms)
 Number     Number      Type              X           Y           Z
 ---------------------------------------------------------------------
    1          7             0       -0.722217   -0.919049    0.000000
    2          7             0       -1.115100    0.300800    0.000000
    3          7             0        0.000000    1.050472    0.000000
    4          1             0       -0.061958    2.055738    0.000000
    5          7             0        0.633748   -1.003934    0.000000
    6          6             0        1.065462    0.231654    0.000000
    7          1             0        2.094165    0.556317    0.000000
 ---------------------------------------------------------------------
 Rotational constants (GHZ):     10.6203401     10.4155486      5.2584737
 Isotopes: N-14,N-14,N-14,H-1,N-14,C-12,H-1
 Standard basis: 6-311G(d) (5D, 7F)
 There are    71 symmetry adapted basis functions of A'  symmetry.
 There are    25 symmetry adapted basis functions of A"  symmetry.
 Crude estimate of integral set expansion from redundant integrals=1.000.
 Integral buffers will be    131072 words long.
 Raffenetti 2 integral format.
 Two-electron integral symmetry is turned on.
    96 basis functions      170 primitive gaussians
    18 alpha electrons       18 beta electrons
       nuclear repulsion energy       167.3633749649 Hartrees.
 One-electron integrals computed using PRISM.
 NBasis=    96 RedAO= T  NBF=    71    25
 NBsUse=    96 1.00D-04 NBFU=    71    25
 Initial guess read from the read-write file:
 Initial guess orbital symmetries:
       Occupied  (A') (A') (A') (A') (A') (A') (A') (A') (A') (A')
                 (A') (A") (A') (A') (A") (A") (A') (A')
       Virtual   (A") (A") (A') (A') (A') (A') (A') (A') (A') (A")
                 (A') (A') (A') (A') (A') (A") (A') (A") (A') (A')
                 (A') (A") (A") (A') (A') (A') (A') (A') (A') (A')
                 (A") (A') (A") (A') (A") (A") (A') (A") (A') (A')
                 (A') (A') (A') (A") (A') (A") (A') (A') (A") (A")
                 (A') (A') (A') (A") (A") (A') (A') (A') (A') (A')
                 (A') (A") (A") (A') (A") (A') (A') (A") (A') (A')
                 (A') (A') (A') (A') (A') (A') (A') (A')
 Requested convergence on RMS density matrix=1.00D-08 within  64 cycles.
 Requested convergence on MAX density matrix=1.00D-06.
 SCF Done:  E(RB+HF-PW91) =  -258.212013703     A.U. after    9 cycles
             Convg  =    0.7367D-08             -V/T =  2.0030
             S**2   =   0.0000
 ***** Axes restored to original set *****
 -------------------------------------------------------------------
 Center     Atomic                   Forces (Hartrees/Bohr)
 Number     Number              X              Y              Z
 -------------------------------------------------------------------
    1          7           0.000179483   -0.002454124    0.000000000
    2          7           0.001387505    0.001270136    0.000000000
    3          7           0.000284649   -0.000360006    0.000000000
    4          1          -0.000054208   -0.000085709    0.000000000
    5          7          -0.001074663    0.000170106    0.000000000
    6          6          -0.000551737    0.001415411    0.000000000
    7          1          -0.000171028    0.000044187    0.000000000
 -------------------------------------------------------------------
 Cartesian Forces:  Max     0.002454124 RMS     0.000796932

 GradGradGradGradGradGradGradGradGradGradGradGradGradGradGradGradGradGrad
 Berny optimization.
 Internal  Forces:  Max     0.001741948 RMS     0.000533631
 Search for a local minimum.
 Step number   3 out of a maximum of  36
 All quantities printed in internal units (Hartrees-Bohrs-Radians)
 Update second derivatives using information from points  1  2  3
 Trust test= 1.06D+00 RLast= 1.41D-02 DXMaxT set to 3.00D-01
     Eigenvalues ---    0.02506   0.02638   0.02674   0.02834   0.15995
     Eigenvalues ---    0.16002   0.24507   0.26803   0.37729   0.41048
     Eigenvalues ---    0.49282   0.52284   0.62825   0.67333   0.68910
     Eigenvalues --- 1000.000001000.000001000.000001000.000001000.00000
     Eigenvalues --- 1000.000001000.000001000.000001000.000001000.00000
     Eigenvalues --- 1000.00000
 RFO step:  Lambda=-1.55957575D-05.
 Quartic linear search produced a step of  0.09833.
 Iteration  1 RMS(Cart)=  0.00127318 RMS(Int)=  0.00000060
 Iteration  2 RMS(Cart)=  0.00000058 RMS(Int)=  0.00000016
 Variable       Old X    -DE/DX   Delta X   Delta X   Delta X     New X
                                 (Linear)    (Quad)   (Total)
    R1        2.42179   0.00174   0.00089   0.00328   0.00417   2.42596
    R2        2.56742  -0.00131   0.00026  -0.00208  -0.00183   2.56559
    R3        2.53917  -0.00063   0.00033  -0.00074  -0.00041   2.53876
    R4        1.90328  -0.00010   0.00001  -0.00010  -0.00009   1.90319
    R5        2.53933  -0.00092  -0.00028  -0.00192  -0.00219   2.53713
    R6        2.47334   0.00048   0.00021   0.00093   0.00114   2.47448
    R7        2.03848  -0.00017  -0.00005  -0.00043  -0.00048   2.03800
    A1        1.94490  -0.00027  -0.00012  -0.00048  -0.00060   1.94430
    A2        1.85110   0.00012  -0.00047   0.00080   0.00032   1.85142
    A3        2.10113   0.00017  -0.00032   0.00083   0.00051   2.10163
    A4        1.89446  -0.00034   0.00056  -0.00174  -0.00118   1.89328
    A5        2.28759   0.00017  -0.00024   0.00091   0.00067   2.28827
    A6        1.84442  -0.00024   0.00023  -0.00125  -0.00102   1.84339
    A7        1.88990   0.00074  -0.00020   0.00268   0.00248   1.89237
    A8        2.18064  -0.00036   0.00006  -0.00127  -0.00121   2.17943
    A9        2.21265  -0.00039   0.00014  -0.00141  -0.00127   2.21138
    D1        0.00000   0.00000   0.00000   0.00000   0.00000   0.00000
    D2        0.00000   0.00000   0.00000   0.00000   0.00000   0.00000
    D3        3.14159   0.00000   0.00000   0.00000   0.00000   3.14159
    D4        0.00000   0.00000   0.00000   0.00000   0.00000   0.00000
    D5        0.00000   0.00000   0.00000   0.00000   0.00000   0.00000
    D6        3.14159   0.00000   0.00000   0.00000   0.00000   3.14159
    D7        3.14159   0.00000   0.00000   0.00000   0.00000   3.14159
    D8        0.00000   0.00000   0.00000   0.00000   0.00000   0.00000
    D9        0.00000   0.00000   0.00000   0.00000   0.00000   0.00000
   D10        3.14159   0.00000   0.00000   0.00000   0.00000   3.14159
         Item               Value     Threshold  Converged?
 Maximum Force            0.001742     0.000450     NO 
 RMS     Force            0.000534     0.000300     NO 
 Maximum Displacement     0.003373     0.001800     NO 
 RMS     Displacement     0.001273     0.001200     NO 
 Predicted change in Energy=-8.194230D-06
 GradGradGradGradGradGradGradGradGradGradGradGradGradGradGradGradGradGrad

                          Input orientation:                          
 ---------------------------------------------------------------------
 Center     Atomic     Atomic              Coordinates (Angstroms)
 Number     Number      Type              X           Y           Z
 ---------------------------------------------------------------------
    1          7             0       -1.139148   -0.264277    0.000000
    2          7             0       -0.678590    0.934028    0.000000
    3          7             0        0.659862    0.818221    0.000000
    4          1             0        1.242695    1.639567    0.000000
    5          7             0       -0.136968   -1.180167    0.000000
    6          6             0        0.974016   -0.487101    0.000000
    7          1             0        1.978540   -0.879556    0.000000
 ---------------------------------------------------------------------
                    Distance matrix (angstroms):
                    1          2          3          4          5
     1  N    0.000000
     2  N    1.283763   0.000000
     3  N    2.099581   1.343453   0.000000
     4  H    3.049229   2.046735   1.007126   0.000000
     5  N    1.357652   2.182470   2.151393   3.139167   0.000000
     6  C    2.124880   2.179614   1.342594   2.143573   1.309438
     7  H    3.177821   3.217052   2.149734   2.624394   2.136760
                    6          7
     6  C    0.000000
     7  H    1.078466   0.000000
 Stoichiometry    CH2N4
 Framework group  CS[SG(CH2N4)]
 Deg. of freedom   11
 Full point group                 CS      NOp   2
 Largest Abelian subgroup         CS      NOp   2
 Largest concise Abelian subgroup C1      NOp   1
                         Standard orientation:                         
 ---------------------------------------------------------------------
 Center     Atomic     Atomic              Coordinates (Angstroms)
 Number     Number      Type              X           Y           Z
 ---------------------------------------------------------------------
    1          7             0       -0.721141   -0.920559    0.000000
    2          7             0       -1.114684    0.301395    0.000000
    3          7             0        0.000000    1.051291    0.000000
    4          1             0       -0.061760    2.056522    0.000000
    5          7             0        0.633908   -1.004591    0.000000
    6          6             0        1.063833    0.232256    0.000000
    7          1             0        2.092182    0.557195    0.000000
 ---------------------------------------------------------------------
 Rotational constants (GHZ):     10.6108252     10.4220954      5.2578068
 Isotopes: N-14,N-14,N-14,H-1,N-14,C-12,H-1
 Standard basis: 6-311G(d) (5D, 7F)
 There are    71 symmetry adapted basis functions of A'  symmetry.
 There are    25 symmetry adapted basis functions of A"  symmetry.
 Crude estimate of integral set expansion from redundant integrals=1.000.
 Integral buffers will be    131072 words long.
 Raffenetti 2 integral format.
 Two-electron integral symmetry is turned on.
    96 basis functions      170 primitive gaussians
    18 alpha electrons       18 beta electrons
       nuclear repulsion energy       167.3485522341 Hartrees.
 One-electron integrals computed using PRISM.
 NBasis=    96 RedAO= T  NBF=    71    25
 NBsUse=    96 1.00D-04 NBFU=    71    25
 Initial guess read from the read-write file:
 Initial guess orbital symmetries:
       Occupied  (A') (A') (A') (A') (A') (A') (A') (A') (A') (A')
                 (A') (A") (A') (A') (A") (A") (A') (A')
       Virtual   (A") (A") (A') (A') (A') (A') (A') (A') (A') (A")
                 (A') (A') (A') (A') (A') (A") (A') (A") (A') (A')
                 (A') (A") (A") (A') (A') (A') (A') (A') (A') (A')
                 (A") (A') (A") (A') (A") (A") (A') (A") (A') (A')
                 (A') (A') (A') (A") (A') (A") (A') (A') (A") (A")
                 (A') (A') (A') (A") (A") (A') (A') (A') (A') (A')
                 (A') (A") (A") (A') (A") (A') (A') (A") (A') (A')
                 (A') (A') (A') (A') (A') (A') (A') (A')
 Requested convergence on RMS density matrix=1.00D-08 within  64 cycles.
 Requested convergence on MAX density matrix=1.00D-06.
 SCF Done:  E(RB+HF-PW91) =  -258.212020875     A.U. after    9 cycles
             Convg  =    0.4415D-08             -V/T =  2.0030
             S**2   =   0.0000
 ***** Axes restored to original set *****
 -------------------------------------------------------------------
 Center     Atomic                   Forces (Hartrees/Bohr)
 Number     Number              X              Y              Z
 -------------------------------------------------------------------
    1          7           0.000855415   -0.000325972    0.000000000
    2          7           0.000119693    0.000124794    0.000000000
    3          7          -0.000773887   -0.000550183    0.000000000
    4          1          -0.000042994   -0.000072987    0.000000000
    5          7          -0.000516226    0.000892102    0.000000000
    6          6           0.000335174    0.000014996    0.000000000
    7          1           0.000022824   -0.000082750    0.000000000
 -------------------------------------------------------------------
 Cartesian Forces:  Max     0.000892102 RMS     0.000375369

 GradGradGradGradGradGradGradGradGradGradGradGradGradGradGradGradGradGrad
 Berny optimization.
 Internal  Forces:  Max     0.000751352 RMS     0.000242675
 Search for a local minimum.
 Step number   4 out of a maximum of  36
 All quantities printed in internal units (Hartrees-Bohrs-Radians)
 Update second derivatives using information from points  1  2  3  4
 Trust test= 8.75D-01 RLast= 6.33D-03 DXMaxT set to 3.00D-01
     Eigenvalues ---    0.02506   0.02638   0.02675   0.02834   0.15965
     Eigenvalues ---    0.16015   0.23366   0.27361   0.37706   0.44298
     Eigenvalues ---    0.48985   0.52795   0.62186   0.67534   0.67953
     Eigenvalues --- 1000.000001000.000001000.000001000.000001000.00000
     Eigenvalues --- 1000.000001000.000001000.000001000.000001000.00000
     Eigenvalues --- 1000.00000
 RFO step:  Lambda=-3.14745701D-06.
 Quartic linear search produced a step of -0.10799.
 Iteration  1 RMS(Cart)=  0.00049460 RMS(Int)=  0.00000019
 Iteration  2 RMS(Cart)=  0.00000017 RMS(Int)=  0.00000009
 Variable       Old X    -DE/DX   Delta X   Delta X   Delta X     New X
                                 (Linear)    (Quad)   (Total)
    R1        2.42596  -0.00027  -0.00045   0.00079   0.00034   2.42630
    R2        2.56559  -0.00075   0.00020  -0.00172  -0.00153   2.56406
    R3        2.53876  -0.00039   0.00004  -0.00070  -0.00066   2.53810
    R4        1.90319  -0.00009   0.00001  -0.00015  -0.00014   1.90305
    R5        2.53713  -0.00022   0.00024  -0.00084  -0.00061   2.53653
    R6        2.47448  -0.00024  -0.00012   0.00004  -0.00008   2.47440
    R7        2.03800   0.00005   0.00005   0.00002   0.00008   2.03808
    A1        1.94430   0.00020   0.00006   0.00039   0.00046   1.94476
    A2        1.85142  -0.00033  -0.00003  -0.00111  -0.00115   1.85027
    A3        2.10163  -0.00017  -0.00005  -0.00056  -0.00062   2.10102
    A4        1.89328   0.00034   0.00013   0.00110   0.00123   1.89451
    A5        2.28827  -0.00017  -0.00007  -0.00054  -0.00061   2.28766
    A6        1.84339   0.00020   0.00011   0.00039   0.00050   1.84389
    A7        1.89237  -0.00041  -0.00027  -0.00077  -0.00103   1.89134
    A8        2.17943   0.00027   0.00013   0.00075   0.00088   2.18031
    A9        2.21138   0.00014   0.00014   0.00001   0.00015   2.21153
    D1        0.00000   0.00000   0.00000   0.00000   0.00000   0.00000
    D2        0.00000   0.00000   0.00000   0.00000   0.00000   0.00000
    D3        3.14159   0.00000   0.00000   0.00000   0.00000   3.14159
    D4        0.00000   0.00000   0.00000   0.00000   0.00000   0.00000
    D5        0.00000   0.00000   0.00000   0.00000   0.00000   0.00000
    D6        3.14159   0.00000   0.00000   0.00000   0.00000   3.14159
    D7        3.14159   0.00000   0.00000   0.00000   0.00000   3.14159
    D8        0.00000   0.00000   0.00000   0.00000   0.00000   0.00000
    D9        0.00000   0.00000   0.00000   0.00000   0.00000   0.00000
   D10        3.14159   0.00000   0.00000   0.00000   0.00000   3.14159
         Item               Value     Threshold  Converged?
 Maximum Force            0.000751     0.000450     NO 
 RMS     Force            0.000243     0.000300     YES
 Maximum Displacement     0.001140     0.001800     YES
 RMS     Displacement     0.000495     0.001200     YES
 Predicted change in Energy=-1.680614D-06
 GradGradGradGradGradGradGradGradGradGradGradGradGradGradGradGradGradGrad

                          Input orientation:                          
 ---------------------------------------------------------------------
 Center     Atomic     Atomic              Coordinates (Angstroms)
 Number     Number      Type              X           Y           Z
 ---------------------------------------------------------------------
    1          7             0       -1.138659   -0.264054    0.000000
    2          7             0       -0.678654    0.934657    0.000000
    3          7             0        0.659378    0.818034    0.000000
    4          1             0        1.242180    1.639309    0.000000
    5          7             0       -0.137024   -1.179343    0.000000
    6          6             0        0.974231   -0.486789    0.000000
    7          1             0        1.978678   -0.879551    0.000000
 ---------------------------------------------------------------------
                    Distance matrix (angstroms):
                    1          2          3          4          5
     1  N    0.000000
     2  N    1.283945   0.000000
     3  N    2.098536   1.343105   0.000000
     4  H    3.048145   2.046006   1.007051   0.000000
     5  N    1.356844   2.182283   2.150295   3.137993   0.000000
     6  C    2.124598   2.180033   1.342273   2.142917   1.309396
     7  H    3.177519   3.217571   2.149964   2.624326   2.136837
                    6          7
     6  C    0.000000
     7  H    1.078506   0.000000
 Stoichiometry    CH2N4
 Framework group  CS[SG(CH2N4)]
 Deg. of freedom   11
 Full point group                 CS      NOp   2
 Largest Abelian subgroup         CS      NOp   2
 Largest concise Abelian subgroup C1      NOp   1
                         Standard orientation:                         
 ---------------------------------------------------------------------
 Center     Atomic     Atomic              Coordinates (Angstroms)
 Number     Number      Type              X           Y           Z
 ---------------------------------------------------------------------
    1          7             0       -0.720738   -0.920306    0.000000
    2          7             0       -1.114907    0.301637    0.000000
    3          7             0        0.000000    1.050580    0.000000
    4          1             0       -0.061690    2.055739    0.000000
    5          7             0        0.633505   -1.004278    0.000000
    6          6             0        1.064024    0.232319    0.000000
    7          1             0        2.092522    0.556921    0.000000
 ---------------------------------------------------------------------
 Rotational constants (GHZ):     10.6175528     10.4240842      5.2599645
 Isotopes: N-14,N-14,N-14,H-1,N-14,C-12,H-1
 Standard basis: 6-311G(d) (5D, 7F)
 There are    71 symmetry adapted basis functions of A'  symmetry.
 There are    25 symmetry adapted basis functions of A"  symmetry.
 Crude estimate of integral set expansion from redundant integrals=1.000.
 Integral buffers will be    131072 words long.
 Raffenetti 2 integral format.
 Two-electron integral symmetry is turned on.
    96 basis functions      170 primitive gaussians
    18 alpha electrons       18 beta electrons
       nuclear repulsion energy       167.3811299315 Hartrees.
 One-electron integrals computed using PRISM.
 NBasis=    96 RedAO= T  NBF=    71    25
 NBsUse=    96 1.00D-04 NBFU=    71    25
 Initial guess read from the read-write file:
 Initial guess orbital symmetries:
       Occupied  (A') (A') (A') (A') (A') (A') (A') (A') (A') (A')
                 (A') (A") (A') (A') (A") (A") (A') (A')
       Virtual   (A") (A") (A') (A') (A') (A') (A') (A') (A') (A")
                 (A') (A') (A') (A') (A') (A") (A') (A") (A') (A')
                 (A') (A") (A') (A") (A') (A') (A') (A') (A') (A')
                 (A") (A') (A") (A') (A") (A") (A') (A") (A') (A')
                 (A') (A') (A') (A") (A') (A") (A') (A') (A") (A")
                 (A') (A') (A') (A") (A") (A') (A') (A') (A') (A')
                 (A') (A") (A") (A') (A") (A') (A') (A") (A') (A')
                 (A') (A') (A') (A') (A') (A') (A') (A')
 Requested convergence on RMS density matrix=1.00D-08 within  64 cycles.
 Requested convergence on MAX density matrix=1.00D-06.
 SCF Done:  E(RB+HF-PW91) =  -258.212022927     A.U. after    8 cycles
             Convg  =    0.7067D-08             -V/T =  2.0030
             S**2   =   0.0000
 ***** Axes restored to original set *****
 -------------------------------------------------------------------
 Center     Atomic                   Forces (Hartrees/Bohr)
 Number     Number              X              Y              Z
 -------------------------------------------------------------------
    1          7           0.000235916   -0.000208409    0.000000000
    2          7           0.000199576   -0.000246669    0.000000000
    3          7          -0.000253032    0.000113721    0.000000000
    4          1           0.000031056   -0.000009970    0.000000000
    5          7          -0.000453312    0.000400635    0.000000000
    6          6           0.000243500   -0.000026362    0.000000000
    7          1          -0.000003705   -0.000022946    0.000000000
 -------------------------------------------------------------------
 Cartesian Forces:  Max     0.000453312 RMS     0.000183136

 GradGradGradGradGradGradGradGradGradGradGradGradGradGradGradGradGradGrad
 Berny optimization.
 Internal  Forces:  Max     0.000432836 RMS     0.000112347
 Search for a local minimum.
 Step number   5 out of a maximum of  36
 All quantities printed in internal units (Hartrees-Bohrs-Radians)
 Update second derivatives using information from points  1  2  3  4  5

 Trust test= 1.22D+00 RLast= 3.03D-03 DXMaxT set to 3.00D-01
     Eigenvalues ---    0.02506   0.02638   0.02675   0.02834   0.15423
     Eigenvalues ---    0.16042   0.19070   0.30748   0.38054   0.44493
     Eigenvalues ---    0.48301   0.52346   0.56026   0.66301   0.74830
     Eigenvalues --- 1000.000001000.000001000.000001000.000001000.00000
     Eigenvalues --- 1000.000001000.000001000.000001000.000001000.00000
     Eigenvalues --- 1000.00000
 RFO step:  Lambda=-8.76954401D-07.
 Quartic linear search produced a step of  0.27494.
 Iteration  1 RMS(Cart)=  0.00031709 RMS(Int)=  0.00000009
 Iteration  2 RMS(Cart)=  0.00000008 RMS(Int)=  0.00000005
 Variable       Old X    -DE/DX   Delta X   Delta X   Delta X     New X
                                 (Linear)    (Quad)   (Total)
    R1        2.42630  -0.00011   0.00009   0.00008   0.00018   2.42648
    R2        2.56406  -0.00043  -0.00042  -0.00104  -0.00146   2.56260
    R3        2.53810  -0.00017  -0.00018  -0.00033  -0.00051   2.53759
    R4        1.90305   0.00001  -0.00004   0.00001  -0.00003   1.90302
    R5        2.53653   0.00001  -0.00017  -0.00008  -0.00024   2.53628
    R6        2.47440   0.00012  -0.00002   0.00032   0.00030   2.47470
    R7        2.03808   0.00001   0.00002  -0.00003  -0.00001   2.03807
    A1        1.94476  -0.00005   0.00013  -0.00060  -0.00047   1.94429
    A2        1.85027   0.00014  -0.00032   0.00054   0.00023   1.85050
    A3        2.10102   0.00006  -0.00017   0.00028   0.00011   2.10112
    A4        1.89451  -0.00007   0.00034  -0.00018   0.00015   1.89466
    A5        2.28766   0.00001  -0.00017  -0.00009  -0.00026   2.28740
    A6        1.84389   0.00014   0.00014   0.00071   0.00085   1.84474
    A7        1.89134  -0.00015  -0.00028  -0.00047  -0.00076   1.89058
    A8        2.18031   0.00009   0.00024   0.00035   0.00060   2.18091
    A9        2.21153   0.00006   0.00004   0.00012   0.00016   2.21169
    D1        0.00000   0.00000   0.00000   0.00000   0.00000   0.00000
    D2        0.00000   0.00000   0.00000   0.00000   0.00000   0.00000
    D3        3.14159   0.00000   0.00000   0.00000   0.00000   3.14159
    D4        0.00000   0.00000   0.00000   0.00000   0.00000   0.00000
    D5        0.00000   0.00000   0.00000   0.00000   0.00000   0.00000
    D6        3.14159   0.00000   0.00000   0.00000   0.00000   3.14159
    D7        3.14159   0.00000   0.00000   0.00000   0.00000   3.14159
    D8        0.00000   0.00000   0.00000   0.00000   0.00000   0.00000
    D9        0.00000   0.00000   0.00000   0.00000   0.00000   0.00000
   D10        3.14159   0.00000   0.00000   0.00000   0.00000   3.14159
         Item               Value     Threshold  Converged?
 Maximum Force            0.000433     0.000450     YES
 RMS     Force            0.000112     0.000300     YES
 Maximum Displacement     0.001173     0.001800     YES
 RMS     Displacement     0.000317     0.001200     YES
 Predicted change in Energy=-5.378038D-07
 Optimization completed.
    -- Stationary point found.
                         ----------------------------
                         !   Optimized Parameters   !
                         ! (Angstroms and Degrees)  !
 ------------------------                            -------------------------
 ! Name  Definition              Value          Derivative Info.             !
 -----------------------------------------------------------------------------
 ! R1    R(1,2)                  1.2839         -DE/DX =   -0.0001           !
 ! R2    R(1,5)                  1.3568         -DE/DX =   -0.0004           !
 ! R3    R(2,3)                  1.3431         -DE/DX =   -0.0002           !
 ! R4    R(3,4)                  1.0071         -DE/DX =    0.               !
 ! R5    R(3,6)                  1.3423         -DE/DX =    0.               !
 ! R6    R(5,6)                  1.3094         -DE/DX =    0.0001           !
 ! R7    R(6,7)                  1.0785         -DE/DX =    0.               !
 ! A1    A(2,1,5)              111.4266         -DE/DX =   -0.0001           !
 ! A2    A(1,2,3)              106.0129         -DE/DX =    0.0001           !
 ! A3    A(2,3,4)              120.3793         -DE/DX =    0.0001           !
 ! A4    A(2,3,6)              108.5474         -DE/DX =   -0.0001           !
 ! A5    A(4,3,6)              131.0732         -DE/DX =    0.               !
 ! A6    A(1,5,6)              105.6473         -DE/DX =    0.0001           !
 ! A7    A(3,6,5)              108.3657         -DE/DX =   -0.0002           !
 ! A8    A(3,6,7)              124.9227         -DE/DX =    0.0001           !
 ! A9    A(5,6,7)              126.7115         -DE/DX =    0.0001           !
 ! D1    D(5,1,2,3)              0.             -DE/DX =    0.               !
 ! D2    D(2,1,5,6)              0.             -DE/DX =    0.               !
 ! D3    D(1,2,3,4)            180.             -DE/DX =    0.               !
 ! D4    D(1,2,3,6)              0.             -DE/DX =    0.               !
 ! D5    D(2,3,6,5)              0.             -DE/DX =    0.               !
 ! D6    D(2,3,6,7)            180.             -DE/DX =    0.               !
 ! D7    D(4,3,6,5)            180.             -DE/DX =    0.               !
 ! D8    D(4,3,6,7)              0.             -DE/DX =    0.               !
 ! D9    D(1,5,6,3)              0.             -DE/DX =    0.               !
 ! D10   D(1,5,6,7)            180.             -DE/DX =    0.               !
 -----------------------------------------------------------------------------
 GradGradGradGradGradGradGradGradGradGradGradGradGradGradGradGradGradGrad

                          Input orientation:                          
 ---------------------------------------------------------------------
 Center     Atomic     Atomic              Coordinates (Angstroms)
 Number     Number      Type              X           Y           Z
 ---------------------------------------------------------------------
    1          7             0       -1.138702   -0.264168    0.000000
    2          7             0       -0.678697    0.934544    0.000000
    3          7             0        0.659336    0.817921    0.000000
    4          1             0        1.242138    1.639196    0.000000
    5          7             0       -0.137067   -1.179456    0.000000
    6          6             0        0.974189   -0.486903    0.000000
    7          1             0        1.978635   -0.879664    0.000000
 ---------------------------------------------------------------------
                    Distance matrix (angstroms):
                    1          2          3          4          5
     1  N    0.000000
     2  N    1.283945   0.000000
     3  N    2.098536   1.343105   0.000000
     4  H    3.048145   2.046006   1.007051   0.000000
     5  N    1.356844   2.182283   2.150295   3.137993   0.000000
     6  C    2.124598   2.180033   1.342273   2.142917   1.309396
     7  H    3.177519   3.217571   2.149964   2.624326   2.136837
                    6          7
     6  C    0.000000
     7  H    1.078506   0.000000
 Stoichiometry    CH2N4
 Framework group  CS[SG(CH2N4)]
 Deg. of freedom   11
 Full point group                 CS      NOp   2
 Largest Abelian subgroup         CS      NOp   2
 Largest concise Abelian subgroup C1      NOp   1
                         Standard orientation:                         
 ---------------------------------------------------------------------
 Center     Atomic     Atomic              Coordinates (Angstroms)
 Number     Number      Type              X           Y           Z
 ---------------------------------------------------------------------
    1          7             0       -0.720738   -0.920306    0.000000
    2          7             0       -1.114907    0.301637    0.000000
    3          7             0        0.000000    1.050580    0.000000
    4          1             0       -0.061690    2.055739    0.000000
    5          7             0        0.633505   -1.004278    0.000000
    6          6             0        1.064024    0.232319    0.000000
    7          1             0        2.092522    0.556921    0.000000
 ---------------------------------------------------------------------
 Rotational constants (GHZ):     10.6175528     10.4240842      5.2599645
 Isotopes: N-14,N-14,N-14,H-1,N-14,C-12,H-1

 **********************************************************************

            Population analysis using the SCF density.

 **********************************************************************

 Orbital Symmetries:
       Occupied  (A') (A') (A') (A') (A') (A') (A') (A') (A') (A')
                 (A') (A") (A') (A') (A") (A") (A') (A')
       Virtual   (A") (A") (A') (A') (A') (A') (A') (A') (A') (A")
                 (A') (A') (A') (A') (A') (A") (A') (A") (A') (A')
                 (A') (A") (A') (A") (A') (A') (A') (A') (A') (A')
                 (A") (A') (A") (A') (A") (A") (A') (A") (A') (A')
                 (A') (A') (A') (A") (A') (A") (A') (A') (A") (A")
                 (A') (A') (A') (A") (A") (A') (A') (A') (A') (A')
                 (A') (A") (A") (A') (A") (A') (A') (A") (A') (A')
                 (A') (A') (A') (A') (A') (A') (A') (A')
  The electronic state is 1-A'.
 Alpha  occ. eigenvalues --  -14.42218 -14.38459 -14.36645 -14.33822 -10.25501
 Alpha  occ. eigenvalues --   -1.16468  -0.96346  -0.90986  -0.69440  -0.67954
 Alpha  occ. eigenvalues --   -0.61070  -0.51149  -0.51105  -0.39005  -0.34391
 Alpha  occ. eigenvalues --   -0.32182  -0.31294  -0.29819
 Alpha virt. eigenvalues --   -0.02833   0.00845   0.02687   0.07039   0.16565
 Alpha virt. eigenvalues --    0.18360   0.21883   0.27324   0.32328   0.38918
 Alpha virt. eigenvalues --    0.39985   0.43137   0.49313   0.54496   0.55903
 Alpha virt. eigenvalues --    0.56816   0.60139   0.60420   0.61776   0.64983
 Alpha virt. eigenvalues --    0.67666   0.69402   0.73590   0.73607   0.82491
 Alpha virt. eigenvalues --    0.85894   0.92592   0.96967   1.00924   1.17010
 Alpha virt. eigenvalues --    1.17930   1.21814   1.23629   1.36685   1.50195
 Alpha virt. eigenvalues --    1.64220   1.67799   1.70797   1.75058   1.82042
 Alpha virt. eigenvalues --    1.85839   2.01739   2.18729   2.20117   2.22604
 Alpha virt. eigenvalues --    2.30291   2.31624   2.42139   2.45099   2.58336
 Alpha virt. eigenvalues --    2.58667   2.64030   2.70148   2.74701   2.76117
 Alpha virt. eigenvalues --    2.80879   3.02594   3.11222   3.20969   3.28196
 Alpha virt. eigenvalues --    3.45591   3.52060   3.63260   3.76674   3.82077
 Alpha virt. eigenvalues --    3.86397   3.88807   3.91852   4.36127   4.50936
 Alpha virt. eigenvalues --    4.59752   4.83059   5.68761  23.77081  35.23002
 Alpha virt. eigenvalues --   35.43136  35.52896  35.56809
          Condensed to atoms (all electrons):
              1          2          3          4          5          6
  1  N    6.694597   0.288925  -0.066639   0.006945   0.299536  -0.138023
  2  N    0.288925   6.753201   0.193392  -0.022278  -0.087357  -0.114939
  3  N   -0.066639   0.193392   6.760834   0.299613  -0.065589   0.343582
  4  H    0.006945  -0.022278   0.299613   0.356088   0.007491  -0.030695
  5  N    0.299536  -0.087357  -0.065589   0.007491   6.631841   0.474470
  6  C   -0.138023  -0.114939   0.343582  -0.030695   0.474470   4.952047
  7  H    0.002844   0.003213  -0.027358  -0.000046  -0.016054   0.373988
              7
  1  N    0.002844
  2  N    0.003213
  3  N   -0.027358
  4  H   -0.000046
  5  N   -0.016054
  6  C    0.373988
  7  H    0.401348
 Total atomic charges:
              1
  1  N   -0.088185
  2  N   -0.014158
  3  N   -0.437835
  4  H    0.382882
  5  N   -0.244337
  6  C    0.139569
  7  H    0.262064
 Sum of Mulliken charges=   0.00000
 Atomic charges with hydrogens summed into heavy atoms:
              1
  1  N   -0.088185
  2  N   -0.014158
  3  N   -0.054953
  4  H    0.000000
  5  N   -0.244337
  6  C    0.401633
  7  H    0.000000
 Sum of Mulliken charges=   0.00000
 Electronic spatial extent (au):  <R**2>=   249.4849
 Charge=     0.0000 electrons
 Dipole moment (Debye):
    X=     2.5188    Y=     4.8278    Z=     0.0000  Tot=     5.4454
 Quadrupole moment (Debye-Ang):
   XX=   -28.7434   YY=   -26.2128   ZZ=   -28.2799
   XY=     1.8180   XZ=     0.0000   YZ=     0.0000
 Octapole moment (Debye-Ang**2):
  XXX=    12.0354  YYY=    22.6995  ZZZ=     0.0000  XYY=    -0.5749
  XXY=     4.6519  XXZ=     0.0000  XZZ=    -0.7637  YZZ=     0.4713
  YYZ=     0.0000  XYZ=     0.0000
 Hexadecapole moment (Debye-Ang**3):
 XXXX=  -140.6746 YYYY=  -119.3862 ZZZZ=   -25.3028 XXXY=     6.9620
 XXXZ=     0.0000 YYYX=    -0.3467 YYYZ=     0.0000 ZZZX=     0.0000
 ZZZY=     0.0000 XXYY=   -53.2769 XXZZ=   -30.2698 YYZZ=   -28.5709
 XXYZ=     0.0000 YYXZ=     0.0000 ZZXY=    -0.0993
 N-N= 1.673811299315D+02 E-N=-9.382026744625D+02  KE= 2.574494150744D+02
 Symmetry A'   KE= 2.479325658155D+02
 Symmetry A"   KE= 9.516849258940D+00
 1\1\ NATIONAL INSTITUTE OF STANDARDS AND TECHNOLOGY-NEVA\FOpt\RB3PW91\
 6-311G(d)\C1H2N4\RDJ3\26-May-2000\0\\#B3PW91/6-311G* OPT FREQ\\1H tetr
 azole c CH-NH-N=N-N= casno=288948\\0,1\N,-1.1387016246,-0.2641677438,0
 .\N,-0.6786968353,0.9345438615,0.\N,0.6593357605,0.8179205118,0.\H,1.2
 421375163,1.6391958867,0.\N,-0.1370667645,-1.1794558863,0.\C,0.9741888
 814,-0.4869028037,0.\H,1.978635443,-0.879664267,0.\\Version=SGI64-G98R
 evA.7\State=1-A'\HF=-258.2120229\RMSD=7.067e-09\RMSF=1.831e-04\Dipole=
 1.9635709,0.8568354,0.\PG=CS [SG(C1H2N4)]\\@


 "I COULD HAVE DONE IT IN A MUCH MORE COMPLICATED WAY"
 SAID THE RED QUEEN, IMMENSELY PROUD.

                                      -- LEWIS CARROLL
 Job cpu time:  0 days  0 hours  6 minutes 25.9 seconds.
 File lengths (MBytes):  RWF=   10 Int=    0 D2E=    0 Chk=    4 Scr=    1
 Normal termination of Gaussian 98.
 Link1:  Proceeding to internal job step number  2.
 ----------------------------------------------------
 #N Geom=AllCheck Guess=TCheck RB3PW91/6-311G(d) Freq
 ----------------------------------------------------
 1/10=4,29=7,30=1,38=1/1,3;
 2//2;
 3/5=4,6=6,7=1,11=2,25=1,30=1/1,2,3;
 4/5=101,7=1/1;
 5/5=2,42=-6/2;
 8/6=4,11=11,23=2/1;
 11/6=1,8=1,9=11,15=111,16=11/1,2,10;
 10/6=1/2;
 6/7=2,8=2,9=2,10=2,18=1,28=1/1;
 7/8=1,10=1,25=1/1,2,3,16;
 1/10=4,30=1/3;
 99//99;
 ----------------------------------------
 1H tetrazole c CH-NH-N=N-N= casno=288948
 ----------------------------------------
 Redundant internal coordinates taken from checkpointfile:
 /tmp/Gau-1675449.chk
 Charge =  0 Multiplicity = 1
 N,0,-1.1387016246,-0.2641677438,0.
 N,0,-0.6786968353,0.9345438615,0.
 N,0,0.6593357605,0.8179205118,0.
 H,0,1.2421375163,1.6391958867,0.
 N,0,-0.1370667645,-1.1794558863,0.
 C,0,0.9741888814,-0.4869028037,0.
 H,0,1.978635443,-0.879664267,0.
 Recover connectivity data from disk.

 GradGradGradGradGradGradGradGradGradGradGradGradGradGradGradGradGradGrad
 Berny optimization.
 Initialization pass.
                         ----------------------------
                         !    Initial Parameters    !
                         ! (Angstroms and Degrees)  !
 ------------------------                            -------------------------
 ! Name  Definition              Value          Derivative Info.             !
 -----------------------------------------------------------------------------
 ! R1    R(1,2)                  1.2839         calculate D2E/DX2 analyticall!
 ! R2    R(1,5)                  1.3568         calculate D2E/DX2 analyticall!
 ! R3    R(2,3)                  1.3431         calculate D2E/DX2 analyticall!
 ! R4    R(3,4)                  1.0071         calculate D2E/DX2 analyticall!
 ! R5    R(3,6)                  1.3423         calculate D2E/DX2 analyticall!
 ! R6    R(5,6)                  1.3094         calculate D2E/DX2 analyticall!
 ! R7    R(6,7)                  1.0785         calculate D2E/DX2 analyticall!
 ! A1    A(2,1,5)              111.4266         calculate D2E/DX2 analyticall!
 ! A2    A(1,2,3)              106.0129         calculate D2E/DX2 analyticall!
 ! A3    A(2,3,4)              120.3793         calculate D2E/DX2 analyticall!
 ! A4    A(2,3,6)              108.5474         calculate D2E/DX2 analyticall!
 ! A5    A(4,3,6)              131.0732         calculate D2E/DX2 analyticall!
 ! A6    A(1,5,6)              105.6473         calculate D2E/DX2 analyticall!
 ! A7    A(3,6,5)              108.3657         calculate D2E/DX2 analyticall!
 ! A8    A(3,6,7)              124.9227         calculate D2E/DX2 analyticall!
 ! A9    A(5,6,7)              126.7115         calculate D2E/DX2 analyticall!
 ! D1    D(5,1,2,3)              0.             calculate D2E/DX2 analyticall!
 ! D2    D(2,1,5,6)              0.             calculate D2E/DX2 analyticall!
 ! D3    D(1,2,3,4)            180.             calculate D2E/DX2 analyticall!
 ! D4    D(1,2,3,6)              0.             calculate D2E/DX2 analyticall!
 ! D5    D(2,3,6,5)              0.             calculate D2E/DX2 analyticall!
 ! D6    D(2,3,6,7)            180.             calculate D2E/DX2 analyticall!
 ! D7    D(4,3,6,5)            180.             calculate D2E/DX2 analyticall!
 ! D8    D(4,3,6,7)              0.             calculate D2E/DX2 analyticall!
 ! D9    D(1,5,6,3)              0.             calculate D2E/DX2 analyticall!
 ! D10   D(1,5,6,7)            180.             calculate D2E/DX2 analyticall!
 -----------------------------------------------------------------------------
 Trust Radius=3.00D-01 FncErr=1.00D-07 GrdErr=1.00D-07
 Number of steps in this run=  36 maximum allowed number of steps= 100.
 GradGradGradGradGradGradGradGradGradGradGradGradGradGradGradGradGradGrad

                          Input orientation:                          
 ---------------------------------------------------------------------
 Center     Atomic     Atomic              Coordinates (Angstroms)
 Number     Number      Type              X           Y           Z
 ---------------------------------------------------------------------
    1          7             0       -1.138702   -0.264168    0.000000
    2          7             0       -0.678697    0.934544    0.000000
    3          7             0        0.659336    0.817921    0.000000
    4          1             0        1.242138    1.639196    0.000000
    5          7             0       -0.137067   -1.179456    0.000000
    6          6             0        0.974189   -0.486903    0.000000
    7          1             0        1.978635   -0.879664    0.000000
 ---------------------------------------------------------------------
                    Distance matrix (angstroms):
                    1          2          3          4          5
     1  N    0.000000
     2  N    1.283945   0.000000
     3  N    2.098536   1.343105   0.000000
     4  H    3.048145   2.046006   1.007051   0.000000
     5  N    1.356844   2.182283   2.150295   3.137993   0.000000
     6  C    2.124598   2.180033   1.342273   2.142917   1.309396
     7  H    3.177519   3.217571   2.149964   2.624326   2.136837
                    6          7
     6  C    0.000000
     7  H    1.078506   0.000000
                           Interatomic angles:
       N1-N2-N3=106.0129       N1-N2-H4=131.1397       N1-N3-H4=156.4009
       N2-N3-H4=120.3793       N2-N1-N5=111.4266       N3-N1-N5= 73.4611
       N2-N3-N5= 73.243        H4-N2-N5= 95.7747       H4-N3-N5=166.3777
       N2-N1-C6= 75.0235       N1-N3-C6= 72.5259       N2-N3-C6=108.5474
       N1-C6-H4= 91.1653       N2-H4-C6= 62.6716       H4-N3-C6=131.0732
       N1-N5-C6=105.6473       N2-C6-N5= 72.6267       N3-C6-N5=108.3657
       H4-C6-N5=129.1149       N1-N3-H7= 96.8128       N2-N3-H7=132.8344
       N2-H4-H7= 86.1532       H4-N3-H7=106.7863       N1-N5-H7=129.5141
       N2-N5-H7= 96.3057       N3-H7-N5= 60.212        H4-H7-N5= 81.7665
       N1-C6-H7=164.6611       N2-C6-H7=160.6618       N3-C6-H7=124.9227
       H4-C6-H7=104.1736       N5-C6-H7=126.7115
 Stoichiometry    CH2N4
 Framework group  CS[SG(CH2N4)]
 Deg. of freedom   11
 Full point group                 CS      NOp   2
 Largest Abelian subgroup         CS      NOp   2
 Largest concise Abelian subgroup C1      NOp   1
                         Standard orientation:                         
 ---------------------------------------------------------------------
 Center     Atomic     Atomic              Coordinates (Angstroms)
 Number     Number      Type              X           Y           Z
 ---------------------------------------------------------------------
    1          7             0       -0.720738   -0.920306    0.000000
    2          7             0       -1.114907    0.301637    0.000000
    3          7             0        0.000000    1.050580    0.000000
    4          1             0       -0.061690    2.055739    0.000000
    5          7             0        0.633505   -1.004278    0.000000
    6          6             0        1.064024    0.232319    0.000000
    7          1             0        2.092522    0.556921    0.000000
 ---------------------------------------------------------------------
 Rotational constants (GHZ):     10.6175528     10.4240842      5.2599645
 Isotopes: N-14,N-14,N-14,H-1,N-14,C-12,H-1
 Standard basis: 6-311G(d) (5D, 7F)
 There are    71 symmetry adapted basis functions of A'  symmetry.
 There are    25 symmetry adapted basis functions of A"  symmetry.
 Crude estimate of integral set expansion from redundant integrals=1.000.
 Integral buffers will be    131072 words long.
 Raffenetti 2 integral format.
 Two-electron integral symmetry is turned on.
    96 basis functions      170 primitive gaussians
    18 alpha electrons       18 beta electrons
       nuclear repulsion energy       167.3811299315 Hartrees.
 One-electron integrals computed using PRISM.
 NBasis=    96 RedAO= T  NBF=    71    25
 NBsUse=    96 1.00D-04 NBFU=    71    25
 Initial guess read from the checkpoint file:
 /tmp/Gau-1675449.chk
 Initial guess orbital symmetries:
       Occupied  (A') (A') (A') (A') (A') (A') (A') (A') (A') (A')
                 (A') (A") (A') (A') (A") (A") (A') (A')
       Virtual   (A") (A") (A') (A') (A') (A') (A') (A') (A') (A")
                 (A') (A') (A') (A') (A') (A") (A') (A") (A') (A')
                 (A') (A") (A') (A") (A') (A') (A') (A') (A') (A')
                 (A") (A') (A") (A') (A") (A") (A') (A") (A') (A')
                 (A') (A') (A') (A") (A') (A") (A') (A') (A") (A")
                 (A') (A') (A') (A") (A") (A') (A') (A') (A') (A')
                 (A') (A") (A") (A') (A") (A') (A') (A") (A') (A')
                 (A') (A') (A') (A') (A') (A') (A') (A')
 Requested convergence on RMS density matrix=1.00D-08 within  64 cycles.
 Requested convergence on MAX density matrix=1.00D-06.
 SCF Done:  E(RB+HF-PW91) =  -258.212022927     A.U. after    1 cycles
             Convg  =    0.2531D-08             -V/T =  2.0030
             S**2   =   0.0000
 Range of M.O.s used for correlation:     1    96
 NBasis=    96 NAE=    18 NBE=    18 NFC=     0 NFV=     0
 NROrb=     96 NOA=    18 NOB=    18 NVA=    78 NVB=    78
 G2DrvN: will do    7 atoms at a time, making    1 passes doing MaxLOS=2.
 FoFDir used for L=0 through L=2.
          Differentiating once with respect to electric field.
                with respect to dipole field.
          Differentiating once with respect to nuclear coordinates.
 Integrals replicated using symmetry in FoFDir.
 MinBra= 0 MaxBra= 2 Meth= 1.
 IRaf=       0 NMat=  24 IRICut=      24 DoRegI=T DoRafI=T ISym2E= 2 JSym2E=2.
          There are  24 degrees of freedom in the 1st order CPHF.
  24 vectors were produced by pass  0.
 AX will form  24 AO Fock derivatives at one time.
  23 vectors were produced by pass  1.
  21 vectors were produced by pass  2.
  21 vectors were produced by pass  3.
  21 vectors were produced by pass  4.
  21 vectors were produced by pass  5.
   7 vectors were produced by pass  6.
   2 vectors were produced by pass  7.
 Inv2:  IOpt= 1 Iter= 1 AM= 2.42D-15 Conv= 1.00D-12.
 Inverted reduced A of dimension 140 with in-core refinement.

 **********************************************************************

            Population analysis using the SCF density.

 **********************************************************************

 Orbital Symmetries:
       Occupied  (A') (A') (A') (A') (A') (A') (A') (A') (A') (A')
                 (A') (A") (A') (A') (A") (A") (A') (A')
       Virtual   (A") (A") (A') (A') (A') (A') (A') (A') (A') (A")
                 (A') (A') (A') (A') (A') (A") (A') (A") (A') (A')
                 (A') (A") (A') (A") (A') (A') (A') (A') (A') (A')
                 (A") (A') (A") (A') (A") (A") (A') (A") (A') (A')
                 (A') (A') (A') (A") (A') (A") (A') (A') (A") (A")
                 (A') (A') (A') (A") (A") (A') (A') (A') (A') (A')
                 (A') (A") (A") (A') (A") (A') (A') (A") (A') (A')
                 (A') (A') (A') (A') (A') (A') (A') (A')
  The electronic state is 1-A'.
 Alpha  occ. eigenvalues --  -14.42218 -14.38459 -14.36645 -14.33822 -10.25501
 Alpha  occ. eigenvalues --   -1.16468  -0.96346  -0.90986  -0.69440  -0.67954
 Alpha  occ. eigenvalues --   -0.61070  -0.51149  -0.51105  -0.39005  -0.34391
 Alpha  occ. eigenvalues --   -0.32182  -0.31294  -0.29819
 Alpha virt. eigenvalues --   -0.02833   0.00845   0.02687   0.07039   0.16565
 Alpha virt. eigenvalues --    0.18360   0.21883   0.27324   0.32328   0.38918
 Alpha virt. eigenvalues --    0.39985   0.43137   0.49313   0.54496   0.55903
 Alpha virt. eigenvalues --    0.56816   0.60139   0.60420   0.61776   0.64983
 Alpha virt. eigenvalues --    0.67666   0.69402   0.73590   0.73607   0.82491
 Alpha virt. eigenvalues --    0.85894   0.92592   0.96967   1.00924   1.17010
 Alpha virt. eigenvalues --    1.17930   1.21814   1.23629   1.36685   1.50195
 Alpha virt. eigenvalues --    1.64220   1.67799   1.70797   1.75058   1.82042
 Alpha virt. eigenvalues --    1.85839   2.01739   2.18729   2.20117   2.22604
 Alpha virt. eigenvalues --    2.30291   2.31624   2.42139   2.45099   2.58336
 Alpha virt. eigenvalues --    2.58667   2.64030   2.70148   2.74701   2.76117
 Alpha virt. eigenvalues --    2.80879   3.02594   3.11222   3.20969   3.28196
 Alpha virt. eigenvalues --    3.45591   3.52060   3.63260   3.76674   3.82077
 Alpha virt. eigenvalues --    3.86397   3.88807   3.91852   4.36127   4.50936
 Alpha virt. eigenvalues --    4.59752   4.83059   5.68761  23.77081  35.23002
 Alpha virt. eigenvalues --   35.43136  35.52896  35.56809
          Condensed to atoms (all electrons):
[...]
   1   7     0.00   0.00   0.00     0.00   0.00   0.04     0.00   0.00   0.47
   2   7     0.00   0.00  -0.10     0.00   0.00   0.08     0.00   0.00  -0.40
   3   7     0.00   0.00   0.23     0.00   0.00  -0.07     0.00   0.00   0.11
   4   1     0.00   0.00  -0.92     0.00   0.00  -0.83     0.00   0.00   0.70
   5   7     0.00   0.00   0.04     0.00   0.00  -0.16     0.00   0.00  -0.31
   6   6     0.00   0.00  -0.10     0.00   0.00   0.16     0.00   0.00   0.09
   7   1     0.00   0.00  -0.28     0.00   0.00   0.49     0.00   0.00   0.06
                     4                      5                      6
                    A"                     A'                     A'
 Frequencies --   853.7169               982.1179              1022.5220
 Red. masses --     1.3724                 4.4677                 6.3598
 Frc consts  --     0.5893                 2.5390                 3.9178
 IR Inten    --    20.1502                 4.8125                 0.5293
 Raman Activ --     0.0000                 0.0000                 0.0000
 Depolar     --     0.0000                 0.0000                 0.0000
 Atom AN      X      Y      Z        X      Y      Z        X      Y      Z
   1   7     0.00   0.00   0.02    -0.05   0.18   0.00     0.23  -0.05   0.00
   2   7     0.00   0.00  -0.01    -0.13   0.14   0.00     0.10  -0.05   0.00
   3   7     0.00   0.00   0.03    -0.10  -0.05   0.00     0.01   0.41   0.00
   4   1     0.00   0.00   0.07     0.38  -0.02   0.00     0.18   0.43   0.00
   5   7     0.00   0.00   0.03     0.35  -0.22   0.00    -0.02  -0.24   0.00
   6   6     0.00   0.00  -0.17    -0.09  -0.11   0.00    -0.37  -0.07   0.00
   7   1     0.00   0.00   0.98    -0.34   0.69   0.00    -0.25  -0.53   0.00
                     7                      8                      9
                    A'                     A'                     A'
 Frequencies --  1066.5871              1084.7772              1154.8181
 Red. masses --     4.5345                 3.5659                 2.0029
 Frc consts  --     3.0393                 2.4723                 1.5737
 IR Inten    --    17.2903                29.8292                14.6455
 Raman Activ --     0.0000                 0.0000                 0.0000
 Depolar     --     0.0000                 0.0000                 0.0000
 Atom AN      X      Y      Z        X      Y      Z        X      Y      Z
   1   7     0.16   0.00   0.00     0.29   0.05   0.00    -0.13  -0.12   0.00
   2   7     0.31   0.22   0.00    -0.23   0.02   0.00     0.07  -0.05   0.00
   3   7    -0.18  -0.18   0.00     0.09  -0.14   0.00     0.14   0.02   0.00
   4   1    -0.45  -0.21   0.00     0.86  -0.10   0.00     0.43   0.04   0.00
   5   7    -0.16  -0.06   0.00    -0.16   0.03   0.00    -0.03  -0.01   0.00
   6   6    -0.09  -0.01   0.00    -0.05   0.04   0.00    -0.08   0.11   0.00
   7   1    -0.31   0.62   0.00    -0.10   0.19   0.00    -0.30   0.80   0.00
                    10                     11                     12
                    A'                     A'                     A'
 Frequencies --  1280.0868              1315.8424              1478.3005
 Red. masses --     2.4450                10.2871                 3.3979
 Frc consts  --     2.3605                10.4942                 4.3751
 IR Inten    --     1.8766                16.8884                 9.0388
 Raman Activ --     0.0000                 0.0000                 0.0000
 Depolar     --     0.0000                 0.0000                 0.0000
 Atom AN      X      Y      Z        X      Y      Z        X      Y      Z
   1   7    -0.05  -0.07   0.00    -0.03   0.58   0.00     0.02   0.00   0.00
   2   7     0.09   0.07   0.00     0.20  -0.48   0.00     0.05  -0.09   0.00
   3   7    -0.05  -0.11   0.00     0.13  -0.15   0.00    -0.18   0.14   0.00
   4   1     0.68  -0.08   0.00    -0.32  -0.21   0.00     0.67   0.22   0.00
   5   7     0.11   0.18   0.00    -0.03   0.12   0.00    -0.06   0.15   0.00
   6   6    -0.19  -0.02   0.00    -0.25  -0.07   0.00     0.15  -0.30   0.00
   7   1    -0.02  -0.65   0.00    -0.35   0.09   0.00    -0.09   0.54   0.00
                    13                     14                     15
                    A'                     A'                     A'
 Frequencies --  1530.8922              3291.6454              3684.0735
 Red. masses --     3.0143                 1.1012                 1.0836
 Frc consts  --     4.1623                 7.0301                 8.6649
 IR Inten    --    18.0636                 0.4717                75.4663
 Raman Activ --     0.0000                 0.0000                 0.0000
 Depolar     --     0.0000                 0.0000                 0.0000
 Atom AN      X      Y      Z        X      Y      Z        X      Y      Z
   1   7     0.05  -0.08   0.00     0.00   0.00   0.00     0.00   0.00   0.00
   2   7    -0.10   0.08   0.00     0.00   0.00   0.00     0.00   0.00   0.00
   3   7     0.18   0.01   0.00     0.00   0.00   0.00     0.01  -0.08   0.00
   4   1    -0.80  -0.05   0.00     0.01   0.02   0.00    -0.06   0.99   0.00
   5   7     0.05   0.18   0.00     0.00   0.00   0.00     0.00   0.00   0.00
   6   6    -0.12  -0.24   0.00     0.09   0.03   0.00     0.00   0.00   0.00
   7   1    -0.33   0.29   0.00    -0.95  -0.30   0.00     0.02   0.00   0.00

 -------------------
 - Thermochemistry -
 -------------------
 Temperature   298.150 Kelvin.  Pressure   1.00000 Atm.
 Atom  1 has atomic number  7 and mass  14.00307
 Atom  2 has atomic number  7 and mass  14.00307
 Atom  3 has atomic number  7 and mass  14.00307
 Atom  4 has atomic number  1 and mass   1.00783
 Atom  5 has atomic number  7 and mass  14.00307
 Atom  6 has atomic number  6 and mass  12.00000
 Atom  7 has atomic number  1 and mass   1.00783
 Molecular mass:    70.02795 amu.
 Principal axes and moments of inertia in atomic units:
                           1         2         3
     EIGENVALUES --   169.97713 173.13187 343.10900
           X            0.85502   0.51860   0.00000
           Y           -0.51860   0.85502   0.00000
           Z            0.00000   0.00000   1.00000
 THIS MOLECULE IS AN ASYMMETRIC TOP.
 ROTATIONAL SYMMETRY NUMBER  1.
 ROTATIONAL TEMPERATURES (KELVIN)      0.50956     0.50027     0.25244
 ROTATIONAL CONSTANTS (GHZ)           10.61755    10.42408     5.25996
 Zero-point vibrational energy     124454.0 (Joules/Mol)
                                   29.74522 (Kcal/Mol)
 WARNING-- EXPLICIT CONSIDERATION OF   1 DEGREES OF FREEDOM AS
           VIBRATIONS MAY CAUSE SIGNIFICANT ERROR
 VIBRATIONAL TEMPERATURES:    880.52  1010.37  1075.42  1228.30  1413.04
          (KELVIN)           1471.17  1534.57  1560.74  1661.52  1841.75
                             1893.19  2126.93  2202.60  4735.92  5300.53
 
 Zero-point correction=                           0.047402 (Hartree/Particle)
 Thermal correction to Energy=                    0.050840
 Thermal correction to Enthalpy=                  0.051784
 Thermal correction to Gibbs Free Energy=         0.021332
 Sum of electronic and zero-point Energies=           -258.164621
 Sum of electronic and thermal Energies=              -258.161183
 Sum of electronic and thermal Enthalpies=            -258.160239
 Sum of electronic and thermal Free Energies=         -258.190691
 
                     E (Thermal)             CV                S
                      KCAL/MOL        CAL/MOL-KELVIN    CAL/MOL-KELVIN
 TOTAL                   31.902             11.137             64.091
 ELECTRONIC               0.000              0.000              0.000
 TRANSLATIONAL            0.889              2.981             38.656
 ROTATIONAL               0.889              2.981             23.828
 VIBRATIONAL             30.125              5.175              1.607
 VIBRATION  1             0.971              1.006              0.429
                       Q            LOG10(Q)             LN(Q)
 TOTAL BOT       0.154177D-09         -9.811980        -22.592919
 TOTAL V=0       0.980149D+12         11.991292         27.610970
 VIB (BOT)       0.186081D-21        -21.730297        -50.035858
 VIB (BOT)  1    0.240974D+00         -0.618030         -1.423067
 VIB (V=0)       0.118297D+01          0.072975          0.168032
 VIB (V=0)  1    0.105504D+01          0.023269          0.053578
 ELECTRONIC      0.100000D+01          0.000000          0.000000
 TRANSLATIONAL   0.230339D+08          7.362368         16.952478
 ROTATIONAL      0.359707D+05          4.555949         10.490461
 ***** Axes restored to original set *****
 -------------------------------------------------------------------
 Center     Atomic                   Forces (Hartrees/Bohr)
 Number     Number              X              Y              Z
 -------------------------------------------------------------------
    1          7           0.000235905   -0.000208378    0.000000000
    2          7           0.000199513   -0.000246625    0.000000000
    3          7          -0.000252995    0.000113650    0.000000000
    4          1           0.000031052   -0.000009952    0.000000000
    5          7          -0.000453191    0.000400649    0.000000000
    6          6           0.000243447   -0.000026417    0.000000000
    7          1          -0.000003731   -0.000022928    0.000000000
 -------------------------------------------------------------------
 Cartesian Forces:  Max     0.000453191 RMS     0.000183107

 GradGradGradGradGradGradGradGradGradGradGradGradGradGradGradGradGradGrad
 Berny optimization.
 Internal  Forces:  Max     0.000432784 RMS     0.000112329
 Search for a local minimum.
 Step number   1 out of a maximum of  36
 All quantities printed in internal units (Hartrees-Bohrs-Radians)
 Second derivative matrix not updated -- analytic derivatives used.
     Eigenvalues ---    0.00896   0.02523   0.07318   0.07910   0.10218
     Eigenvalues ---    0.10808   0.20283   0.25160   0.35424   0.37829
     Eigenvalues ---    0.44219   0.47657   0.48717   0.58642   0.64201
     Eigenvalues --- 1000.000001000.000001000.000001000.000001000.00000
     Eigenvalues --- 1000.000001000.000001000.000001000.000001000.00000
     Eigenvalues --- 1000.00000
 Angle between quadratic step and forces=  23.40 degrees.
 Linear search not attempted -- first point.
 Iteration  1 RMS(Cart)=  0.00028951 RMS(Int)=  0.00000006
 Iteration  2 RMS(Cart)=  0.00000006 RMS(Int)=  0.00000003
 Variable       Old X    -DE/DX   Delta X   Delta X   Delta X     New X
                                 (Linear)    (Quad)   (Total)
    R1        2.42630  -0.00011   0.00000   0.00011   0.00011   2.42642
    R2        2.56406  -0.00043   0.00000  -0.00158  -0.00158   2.56248
    R3        2.53810  -0.00017   0.00000  -0.00063  -0.00063   2.53747
    R4        1.90305   0.00001   0.00000   0.00002   0.00002   1.90307
    R5        2.53653   0.00001   0.00000   0.00014   0.00014   2.53667
    R6        2.47440   0.00012   0.00000   0.00042   0.00042   2.47482
    R7        2.03808   0.00001   0.00000  -0.00003  -0.00003   2.03805
    A1        1.94476  -0.00005   0.00000  -0.00009  -0.00009   1.94467
    A2        1.85027   0.00014   0.00000   0.00012   0.00012   1.85039
    A3        2.10102   0.00006   0.00000   0.00014   0.00014   2.10116
    A4        1.89451  -0.00007   0.00000   0.00009   0.00009   1.89460
    A5        2.28766   0.00001   0.00000  -0.00023  -0.00023   2.28743
    A6        1.84389   0.00014   0.00000   0.00057   0.00057   1.84447
    A7        1.89134  -0.00015   0.00000  -0.00069  -0.00069   1.89065
    A8        2.18031   0.00009   0.00000   0.00056   0.00056   2.18088
    A9        2.21153   0.00006   0.00000   0.00013   0.00013   2.21166
    D1        0.00000   0.00000   0.00000   0.00000   0.00000   0.00000
    D2        0.00000   0.00000   0.00000   0.00000   0.00000   0.00000
    D3        3.14159   0.00000   0.00000   0.00000   0.00000   3.14159
    D4        0.00000   0.00000   0.00000   0.00000   0.00000   0.00000
    D5        0.00000   0.00000   0.00000   0.00000   0.00000   0.00000
    D6        3.14159   0.00000   0.00000   0.00000   0.00000   3.14159
    D7        3.14159   0.00000   0.00000   0.00000   0.00000   3.14159
    D8        0.00000   0.00000   0.00000   0.00000   0.00000   0.00000
    D9        0.00000   0.00000   0.00000   0.00000   0.00000   0.00000
   D10        3.14159   0.00000   0.00000   0.00000   0.00000   3.14159
         Item               Value     Threshold  Converged?
 Maximum Force            0.000433     0.000450     YES
 RMS     Force            0.000112     0.000300     YES
 Maximum Displacement     0.000852     0.001800     YES
 RMS     Displacement     0.000290     0.001200     YES
 Predicted change in Energy=-5.488626D-07
 Optimization completed.
    -- Stationary point found.
                         ----------------------------
                         !   Optimized Parameters   !
                         ! (Angstroms and Degrees)  !
 ------------------------                            -------------------------
 ! Name  Definition              Value          Derivative Info.             !
 -----------------------------------------------------------------------------
 ! R1    R(1,2)                  1.2839         -DE/DX =   -0.0001           !
 ! R2    R(1,5)                  1.3568         -DE/DX =   -0.0004           !
 ! R3    R(2,3)                  1.3431         -DE/DX =   -0.0002           !
 ! R4    R(3,4)                  1.0071         -DE/DX =    0.               !
 ! R5    R(3,6)                  1.3423         -DE/DX =    0.               !
 ! R6    R(5,6)                  1.3094         -DE/DX =    0.0001           !
 ! R7    R(6,7)                  1.0785         -DE/DX =    0.               !
 ! A1    A(2,1,5)              111.4266         -DE/DX =   -0.0001           !
 ! A2    A(1,2,3)              106.0129         -DE/DX =    0.0001           !
 ! A3    A(2,3,4)              120.3793         -DE/DX =    0.0001           !
 ! A4    A(2,3,6)              108.5474         -DE/DX =   -0.0001           !
 ! A5    A(4,3,6)              131.0732         -DE/DX =    0.               !
 ! A6    A(1,5,6)              105.6473         -DE/DX =    0.0001           !
 ! A7    A(3,6,5)              108.3657         -DE/DX =   -0.0002           !
 ! A8    A(3,6,7)              124.9227         -DE/DX =    0.0001           !
 ! A9    A(5,6,7)              126.7115         -DE/DX =    0.0001           !
 ! D1    D(5,1,2,3)              0.             -DE/DX =    0.               !
 ! D2    D(2,1,5,6)              0.             -DE/DX =    0.               !
 ! D3    D(1,2,3,4)            180.             -DE/DX =    0.               !
 ! D4    D(1,2,3,6)              0.             -DE/DX =    0.               !
 ! D5    D(2,3,6,5)              0.             -DE/DX =    0.               !
 ! D6    D(2,3,6,7)            180.             -DE/DX =    0.               !
 ! D7    D(4,3,6,5)            180.             -DE/DX =    0.               !
 ! D8    D(4,3,6,7)              0.             -DE/DX =    0.               !
 ! D9    D(1,5,6,3)              0.             -DE/DX =    0.               !
 ! D10   D(1,5,6,7)            180.             -DE/DX =    0.               !
 -----------------------------------------------------------------------------
 GradGradGradGradGradGradGradGradGradGradGradGradGradGradGradGradGradGrad

 1\1\ NATIONAL INSTITUTE OF STANDARDS AND TECHNOLOGY-NEVA\Freq\RB3PW91\
 6-311G(d)\C1H2N4\RDJ3\26-May-2000\0\\#N GEOM=ALLCHECK GUESS=TCHECK RB3
 PW91/6-311G(D) FREQ\\1H tetrazole c CH-NH-N=N-N= casno=288948\\0,1\N,-
 1.1387016246,-0.2641677438,0.\N,-0.6786968353,0.9345438615,0.\N,0.6593
 357605,0.8179205118,0.\H,1.2421375163,1.6391958867,0.\N,-0.1370667645,
 -1.1794558863,0.\C,0.9741888814,-0.4869028037,0.\H,1.978635443,-0.8796
 64267,0.\\Version=SGI64-G98RevA.7\State=1-A'\HF=-258.2120229\RMSD=2.53
 1e-09\RMSF=1.831e-04\Dipole=1.9635718,0.8568349,0.\DipoleDeriv=-0.0560
 795,-0.1591466,-0.000041,-0.2096306,0.0935907,0.0000058,-0.0000356,0.0
 00018,-0.1574284,0.2520453,0.266735,0.0000051,0.2360594,-0.3255582,0.0
 000335,0.0000036,0.0000637,-0.0940816,-0.3330718,-0.2845243,-0.0000023
 ,-0.1945907,-0.2039922,0.0000051,0.0000366,-0.0000417,-0.1582327,0.214
 074,0.029999,-0.0000003,0.0140774,0.2426723,0.0000045,-0.0000125,-0.00
 00219,0.3546096,-0.3467662,0.1278941,0.0000354,-0.000546,-0.3527763,-0
 .0000416,-0.000052,-0.0000347,-0.2077494,0.230401,0.0065063,0.0000182,
 0.1346261,0.4279608,-0.0000094,0.0000971,0.0000162,0.0877109,0.0393985
 ,0.0125363,-0.0000151,0.0200048,0.1181031,0.0000022,-0.000037,0.000000
 4,0.1751716\Polar=39.3171396,-0.0797765,37.2953717,0.0008971,0.0007868
 ,17.5083559\PG=CS [SG(C1H2N4)]\NImag=0\\0.56072552,0.09567457,0.490454
 99,0.00000159,-0.00000134,0.12714374,-0.14152160,-0.11226207,-0.000003
 70,0.43807198,-0.05232368,-0.32865306,-0.00000250,-0.03301571,0.622569
 27,-0.00000164,0.00000474,-0.09900232,0.00000376,0.00000241,0.11754653
 ,-0.11599702,-0.11203471,0.00000130,-0.21868464,0.02480091,-0.00000735
 ,0.66659355,-0.03301447,-0.06366917,-0.00000303,0.05851891,-0.12335850
 ,-0.00000288,0.20188403,0.93891937,-0.00000119,-0.00000061,0.02694251,
 -0.00000092,-0.00000035,-0.07036052,0.00000182,0.00000196,0.09684050,-
 0.01134523,-0.00169351,0.00000282,-0.00693761,-0.03349764,0.00000089,-
 0.19831452,-0.17902850,-0.00000023,0.20169905,0.00785787,0.00152294,0.
 00000329,0.00211648,0.01254855,0.00000240,-0.18788869,-0.34458526,-0.0
 0000060,0.19863027,0.34092682,-0.00000052,-0.00000043,0.00813261,-0.00
 000013,0.00000067,-0.01204229,-0.00000041,-0.00000036,-0.00885300,0.00
 000061,0.00000089,0.01503728,-0.16657754,0.06162685,-0.00000336,-0.001
 96774,0.09079136,0.00000565,-0.00333234,-0.11422353,0.00000153,-0.0006
 1664,-0.00110307,0.00000047,0.49292508,0.02340491,-0.12903095,0.000003
 96,-0.01730424,-0.12575928,-0.00000496,0.00174487,-0.08358438,0.000000
 97,0.00910826,-0.00623348,-0.00000037,0.10731777,0.53620956,0.00000368
 ,-0.00000408,-0.09185776,0.00000142,-0.00000097,0.03613006,0.00001079,
 0.00000876,0.02123237,-0.00000888,-0.00001292,0.00776429,-0.00001107,-
 0.00000055,0.11181218,-0.12215939,0.06888933,0.00000351,-0.06862863,0.
 00711659,-0.00000231,-0.13552086,0.06916976,-0.00000029,0.01592116,-0.
 02027341,0.00000036,-0.30529636,-0.13470790,-0.00000064,0.93716910,-0.
 03526178,0.03071968,-0.00000114,0.10253453,-0.05113303,-0.00000147,0.0
 3994824,-0.31932250,-0.00000144,0.00664490,-0.00381855,-0.00000048,-0.
 12804362,-0.20622007,0.00001142,-0.09443129,0.64748056,-0.00000180,0.0
 0000291,0.01953526,-0.00000212,-0.00000100,0.02157228,-0.00000724,-0.0
 0000595,-0.06303420,0.00000680,0.00000968,-0.00916537,0.00000787,0.000
 00197,-0.07980399,0.00000041,-0.00000921,0.14002681,-0.00312474,-0.000
 20046,-0.00000215,-0.00033175,-0.00387182,0.00000098,0.00525581,-0.003
 30621,-0.00000072,-0.00040621,0.00066055,-0.00000037,-0.01513445,0.010
 43631,0.00000471,-0.32148510,0.10860905,-0.00000392,0.33522649,-0.0063
 3742,-0.00134442,0.00000076,-0.00058793,-0.00621396,-0.00000024,0.0315
 4535,-0.00439958,0.00000008,-0.00016377,-0.00036101,0.00000010,-0.0163
 6576,0.01461860,-0.00000166,0.10423690,-0.09770608,0.00000161,-0.11232
 740,0.09540645,-0.00000014,-0.00000119,0.00910596,0.00000169,0.0000017
 5,0.00615627,0.00000111,0.00000149,-0.00276767,-0.00000200,-0.00000273
 ,-0.00087352,-0.00000107,-0.00000100,-0.00527715,-0.00000106,0.0000023
 4,-0.02913079,0.00000147,-0.00000065,0.02278690\\-0.00023591,0.0002083
 8,0.,-0.00019951,0.00024662,0.,0.00025300,-0.00011365,0.,-0.00003105,0
 .00000995,0.,0.00045319,-0.00040065,0.,-0.00024345,0.00002642,0.,0.000
 00373,0.00002293,0.\\\@


 ART, GLORY, FREEDOM FAIL, BUT NATURE STILL IS FAIR.

                                           -- BYRON
 Job cpu time:  0 days  0 hours  3 minutes 54.7 seconds.
 File lengths (MBytes):  RWF=   15 Int=    0 D2E=    0 Chk=    4 Scr=    1
 Normal termination of Gaussian 98.
