 Entering Gaussian System, Link 0=g98
 Initial command:
 /usr/local/apps/g98/g98/l1.exe /wrk/rdj3/Gau-17312.inp -scrdir=/wrk/rdj3/
 Entering Link 1 = /usr/local/apps/g98/g98/l1.exe PID=     14754.
  
 Copyright (c) 1988,1990,1992,1993,1995,1998 Gaussian, Inc.
                  All Rights Reserved.
  
 This is part of the Gaussian(R) 98 program.  It is based on
 the Gaussian 94(TM) system (copyright 1995 Gaussian, Inc.),
 the Gaussian 92(TM) system (copyright 1992 Gaussian, Inc.),
 the Gaussian 90(TM) system (copyright 1990 Gaussian, Inc.),
 the Gaussian 88(TM) system (copyright 1988 Gaussian, Inc.),
 the Gaussian 86(TM) system (copyright 1986 Carnegie Mellon
 University), and the Gaussian 82(TM) system (copyright 1983
 Carnegie Mellon University). Gaussian is a federally registered
 trademark of Gaussian, Inc.
  
 This software contains proprietary and confidential information,
 including trade secrets, belonging to Gaussian, Inc.
  
 This software is provided under written license and may be
 used, copied, transmitted, or stored only in accord with that
 written license.
  
 The following legend is applicable only to US Government
 contracts under DFARS:
  
                    RESTRICTED RIGHTS LEGEND
  
 Use, duplication or disclosure by the US Government is subject
 to restrictions as set forth in subparagraph (c)(1)(ii) of the
 Rights in Technical Data and Computer Software clause at DFARS
 252.227-7013.
  
 Gaussian, Inc.
 Carnegie Office Park, Building 6, Pittsburgh, PA 15106 USA
  
 The following legend is applicable only to US Government
 contracts under FAR:
  
                    RESTRICTED RIGHTS LEGEND
  
 Use, reproduction and disclosure by the US Government is subject
 to restrictions as set forth in subparagraph (c) of the
 Commercial Computer Software - Restricted Rights clause at FAR
 52.227-19.
  
 Gaussian, Inc.
 Carnegie Office Park, Building 6, Pittsburgh, PA 15106 USA
  
  
 ---------------------------------------------------------------
 Warning -- This program may not be used in any manner that
 competes with the business of Gaussian, Inc. or will provide
 assistance to any competitor of Gaussian, Inc.  The licensee
 of this program is prohibited from giving any competitor of
 Gaussian, Inc. access to this program.  By using this program,
 the user acknowledges that Gaussian, Inc. is engaged in the
 business of creating and licensing software in the field of
 computational chemistry and represents and warrants to the
 licensee that it is not a competitor of Gaussian, Inc. and that
 it will not use this program in any manner prohibited above.
 ---------------------------------------------------------------
  

 Cite this work as:
 Gaussian 98, Revision A.4,
 M. J. Frisch, G. W. Trucks, H. B. Schlegel, G. E. Scuseria, 
 M. A. Robb, J. R. Cheeseman, V. G. Zakrzewski, J. A. Montgomery, Jr., 
 R. E. Stratmann, J. C. Burant, S. Dapprich, J. M. Millam, 
 A. D. Daniels, K. N. Kudin, M. C. Strain, O. Farkas, J. Tomasi, 
 V. Barone, M. Cossi, R. Cammi, B. Mennucci, C. Pomelli, C. Adamo, 
 S. Clifford, J. Ochterski, G. A. Petersson, P. Y. Ayala, Q. Cui, 
 K. Morokuma, D. K. Malick, A. D. Rabuck, K. Raghavachari, 
 J. B. Foresman, J. Cioslowski, J. V. Ortiz, B. B. Stefanov, G. Liu, 
 A. Liashenko, P. Piskorz, I. Komaromi, R. Gomperts, R. L. Martin, 
 D. J. Fox, T. Keith, M. A. Al-Laham, C. Y. Peng, A. Nanayakkara, 
 C. Gonzalez, M. Challacombe, P. M. W. Gill, B. Johnson, W. Chen, 
 M. W. Wong, J. L. Andres, C. Gonzalez, M. Head-Gordon, 
 E. S. Replogle, and J. A. Pople, 
 Gaussian, Inc., Pittsburgh PA, 1998.

 **********************************************
 Gaussian 98:  IBM-RS6000-G98RevA.4 11-Sep-1998
                  22-Jun-2000 
 **********************************************
 %mem=24000000
 ----------------------
 #B3PW91/6-31G opt freq
 ----------------------
 1/14=-1,18=20,26=3,38=1/1,3;
 2/9=110,17=6,18=5/2;
 3/5=1,6=6,11=2,25=1,30=1/1,2,3;
 4//1;
 5/5=2,38=4,42=-6/2;
 6/7=2,8=2,9=2,10=2,28=1/1;
 7//1,2,3,16;
 1/14=-1,18=20/3(1);
 99//99;
 2/9=110/2;
 3/5=1,6=6,11=2,25=1,30=1/1,2,3;
 4/5=5,16=2/1;
 5/5=2,38=4,42=-6/2;
 7//1,2,3,16;
 1/14=-1,18=20/3(-5);
 2/9=110/2;
 6/7=2,8=2,9=2,10=2,19=2,28=1/1;
 99/9=1/99;
 ----------------------------------------
 1H tetrazole c CH-NH-N=N-N= casno=288948
 ----------------------------------------
 Symbolic Z-matrix:
 Charge =  0 Multiplicity = 1
 7                    -1.12329  -0.25456   0. 
 7                    -0.67158   0.91328   0. 
 7                     0.65055   0.80984   0. 
 1                     1.224     1.62189   0. 
 7                    -0.13465  -1.16105   0. 
 6                     0.96218  -0.48332   0. 
 1                     1.95569  -0.87454   0. 

 GradGradGradGradGradGradGradGradGradGradGradGradGradGradGradGradGradGrad
 Berny optimization.
 Initialization pass.
                         ----------------------------
                         !    Initial Parameters    !
                         ! (Angstroms and Degrees)  !
 ------------------------                            -------------------------
 ! Name  Definition              Value          Derivative Info.             !
 -----------------------------------------------------------------------------
 ! R1    R(1,2)                  1.2522         estimate D2E/DX2             !
 ! R2    R(1,5)                  1.3413         estimate D2E/DX2             !
 ! R3    R(2,3)                  1.3262         estimate D2E/DX2             !
 ! R4    R(3,4)                  0.9941         estimate D2E/DX2             !
 ! R5    R(3,6)                  1.3302         estimate D2E/DX2             !
 ! R6    R(5,6)                  1.2893         estimate D2E/DX2             !
 ! R7    R(6,7)                  1.0678         estimate D2E/DX2             !
 ! A1    A(2,1,5)              111.3714         estimate D2E/DX2             !
 ! A2    A(1,2,3)              106.673          estimate D2E/DX2             !
 ! A3    A(2,3,4)              120.7559         estimate D2E/DX2             !
 ! A4    A(2,3,6)              108.0227         estimate D2E/DX2             !
 ! A5    A(4,3,6)              131.2214         estimate D2E/DX2             !
 ! A6    A(1,5,6)              105.77           estimate D2E/DX2             !
 ! A7    A(3,6,5)              108.1628         estimate D2E/DX2             !
 ! A8    A(3,6,7)              125.0426         estimate D2E/DX2             !
 ! A9    A(5,6,7)              126.7945         estimate D2E/DX2             !
 ! D1    D(5,1,2,3)              0.             estimate D2E/DX2             !
 ! D2    D(2,1,5,6)              0.             estimate D2E/DX2             !
 ! D3    D(1,2,3,4)            180.             estimate D2E/DX2             !
 ! D4    D(1,2,3,6)              0.             estimate D2E/DX2             !
 ! D5    D(2,3,6,5)              0.             estimate D2E/DX2             !
 ! D6    D(2,3,6,7)            180.             estimate D2E/DX2             !
 ! D7    D(4,3,6,5)            180.             estimate D2E/DX2             !
 ! D8    D(4,3,6,7)              0.             estimate D2E/DX2             !
 ! D9    D(1,5,6,3)              0.             estimate D2E/DX2             !
 ! D10   D(1,5,6,7)            180.             estimate D2E/DX2             !
 -----------------------------------------------------------------------------
 Trust Radius=3.00D-01 FncErr=1.00D-07 GrdErr=1.00D-06
 Number of steps in this run=  36 maximum allowed number of steps= 100.
 GradGradGradGradGradGradGradGradGradGradGradGradGradGradGradGradGradGrad

                          Input orientation:                          
 ---------------------------------------------------------------------
 Center     Atomic     Atomic              Coordinates (Angstroms)
 Number     Number      Type              X           Y           Z
 ---------------------------------------------------------------------
    1          7             0       -1.123293   -0.254560    0.000000
    2          7             0       -0.671576    0.913277    0.000000
    3          7             0        0.650545    0.809842    0.000000
    4          1             0        1.224004    1.621891    0.000000
    5          7             0       -0.134646   -1.161053    0.000000
    6          6             0        0.962183   -0.483316    0.000000
    7          1             0        1.955691   -0.874535    0.000000
 ---------------------------------------------------------------------
                    Distance matrix (angstroms):
                    1          2          3          4          5
     1  N    0.000000
     2  N    1.252155   0.000000
     3  N    2.068684   1.326161   0.000000
     4  H    3.005141   2.023699   0.994122   0.000000
     5  N    1.341325   2.142694   2.121545   3.096887   0.000000
     6  C    2.097985   2.149335   1.330179   2.121426   1.289326
     7  H    3.140782   3.177861   2.130852   2.601444   2.109882
                    6          7
     6  C    0.000000
     7  H    1.067760   0.000000
 Stoichiometry    CH2N4
 Framework group  CS[SG(CH2N4)]
 Deg. of freedom   11
 Full point group                 CS      NOp   2
 Largest Abelian subgroup         CS      NOp   2
 Largest concise Abelian subgroup C1      NOp   1
                         Standard orientation:                         
 ---------------------------------------------------------------------
 Center     Atomic     Atomic              Coordinates (Angstroms)
 Number     Number      Type              X           Y           Z
 ---------------------------------------------------------------------
    1          7             0       -0.716312   -0.901934    0.000000
    2          7             0       -1.095520    0.291420    0.000000
    3          7             0        0.000000    1.038775    0.000000
    4          1             0       -0.061479    2.030994    0.000000
    5          7             0        0.622151   -0.989495    0.000000
    6          6             0        1.052813    0.225779    0.000000
    7          1             0        2.072370    0.542976    0.000000
 ---------------------------------------------------------------------
 Rotational constants (GHZ):     10.9198679     10.7343949      5.4131685
 Isotopes: N-14,N-14,N-14,H-1,N-14,C-12,H-1
 Standard basis: 6-31G (6D, 7F)
 There are    39 symmetry adapted basis functions of A'  symmetry.
 There are    10 symmetry adapted basis functions of A"  symmetry.
 Crude estimate of integral set expansion from redundant integrals=1.000.
 Integral buffers will be    262144 words long.
 Raffenetti 2 integral format.
 Two-electron integral symmetry is turned on.
    49 basis functions      118 primitive gaussians
    18 alpha electrons       18 beta electrons
       nuclear repulsion energy       169.8288422228 Hartrees.
 One-electron integrals computed using PRISM.
 NBasis=    49 RedAO= T  NBF=    39    10
 NBsUse=    49 1.00D-04 NBFU=    39    10
 Projected INDO Guess.
 Initial guess orbital symmetries:
       Occupied  (A') (A') (A') (A') (A') (A') (A') (A') (A') (A')
                 (A') (A") (A') (A') (A") (A") (A') (A')
       Virtual   (A") (A') (A") (A') (A') (A') (A') (A') (A') (A')
                 (A') (A') (A') (A') (A') (A') (A') (A') (A') (A')
                 (A') (A') (A') (A') (A') (A') (A") (A") (A") (A")
                 (A")
 Requested convergence on RMS density matrix=1.00D-08 within  64 cycles.
 Requested convergence on MAX density matrix=1.00D-06.
 Keep R1 and R2 integrals in memory in canonical form, NReq=     1914419.
 Integral accuracy reduced to 1.0D-05 until final iterations.
 Initial convergence to 1.0D-05 achieved.  Increase integral accuracy.
 SCF Done:  E(RB+HF-PW91) =  -258.021196280     A.U. after   15 cycles
             Convg  =    0.3665D-08             -V/T =  2.0021
             S**2   =   0.0000

 **********************************************************************

            Population analysis using the SCF density.

 **********************************************************************

 Orbital Symmetries:
       Occupied  (A') (A') (A') (A') (A') (A') (A') (A') (A') (A')
                 (A') (A") (A') (A') (A") (A") (A') (A')
       Virtual   (A") (A") (A') (A') (A') (A') (A') (A') (A') (A")
                 (A') (A') (A') (A") (A') (A') (A") (A') (A") (A')
                 (A") (A') (A') (A') (A') (A') (A') (A') (A') (A')
                 (A')
  The electronic state is 1-A'.
 Alpha  occ. eigenvalues --  -14.44718 -14.41498 -14.39337 -14.36764 -10.27599
 Alpha  occ. eigenvalues --   -1.23292  -0.99951  -0.95372  -0.71588  -0.70468
 Alpha  occ. eigenvalues --   -0.63187  -0.53726  -0.52699  -0.38767  -0.35862
 Alpha  occ. eigenvalues --   -0.33898  -0.30646  -0.28621
 Alpha virt. eigenvalues --   -0.02958   0.01127   0.06157   0.11145   0.18434
 Alpha virt. eigenvalues --    0.20524   0.28769   0.31994   0.42748   0.51444
 Alpha virt. eigenvalues --    0.54849   0.62419   0.65649   0.66471   0.67831
 Alpha virt. eigenvalues --    0.70305   0.71128   0.73164   0.78870   0.79052
 Alpha virt. eigenvalues --    0.83234   0.84173   0.87713   0.90217   1.02323
 Alpha virt. eigenvalues --    1.06792   1.16583   1.22383   1.36493   1.53675
 Alpha virt. eigenvalues --    1.59816
          Condensed to atoms (all electrons):
              1          2          3          4          5          6
  1  N    7.005542   0.103681  -0.100120   0.009054   0.206182  -0.131624
  2  N    0.103681   7.107094   0.023036  -0.021851  -0.112856  -0.134695
  3  N   -0.100120   0.023036   7.375332   0.292106  -0.089935   0.128359
  4  H    0.009054  -0.021851   0.292106   0.337128   0.005585  -0.017798
  5  N    0.206182  -0.112856  -0.089935   0.005585   6.986641   0.328165
  6  C   -0.131624  -0.134695   0.128359  -0.017798   0.328165   5.155179
  7  H    0.006690   0.002383  -0.045873   0.002926  -0.024304   0.364282
              7
  1  N    0.006690
  2  N    0.002383
  3  N   -0.045873
  4  H    0.002926
  5  N   -0.024304
  6  C    0.364282
  7  H    0.446299
 Total atomic charges:
              1
  1  N   -0.099405
  2  N    0.033208
  3  N   -0.582906
  4  H    0.392851
  5  N   -0.299478
  6  C    0.308132
  7  H    0.247598
 Sum of Mulliken charges=   0.00000
 Atomic charges with hydrogens summed into heavy atoms:
              1
  1  N   -0.099405
  2  N    0.033208
  3  N   -0.190055
  4  H    0.000000
  5  N   -0.299478
  6  C    0.555730
  7  H    0.000000
 Sum of Mulliken charges=   0.00000
 Electronic spatial extent (au):  <R**2>=   245.6258
 Charge=     0.0000 electrons
 Dipole moment (Debye):
    X=     2.7474    Y=     5.1665    Z=     0.0000  Tot=     5.8516
 Quadrupole moment (Debye-Ang):
   XX=   -29.7359   YY=   -27.2183   ZZ=   -28.1079
   XY=     1.8565   XZ=     0.0000   YZ=     0.0000
 Octapole moment (Debye-Ang**2):
  XXX=    12.9705  YYY=    23.7479  ZZZ=     0.0000  XYY=    -0.4589
  XXY=     4.9848  XXZ=     0.0000  XZZ=    -0.6092  YZZ=     0.4813
  YYZ=     0.0000  XYZ=     0.0000
 Hexadecapole moment (Debye-Ang**3):
 XXXX=  -138.1252 YYYY=  -116.4544 ZZZZ=   -24.3973 XXXY=     6.6479
 XXXZ=     0.0000 YYYX=    -0.4949 YYYZ=     0.0000 ZZZX=     0.0000
 ZZZY=     0.0000 XXYY=   -52.4386 XXZZ=   -29.2458 YYZZ=   -27.6827
 XXYZ=     0.0000 YYXZ=     0.0000 ZZXY=    -0.1328
 N-N= 1.698288422228D+02 E-N=-9.419132850193D+02  KE= 2.574818532177D+02
 Symmetry A'   KE= 2.479461214110D+02
 Symmetry A"   KE= 9.535731806704D+00
 ***** Axes restored to original set *****
 -------------------------------------------------------------------
 Center     Atomic                   Forces (Hartrees/Bohr)
 Number     Number              X              Y              Z
 -------------------------------------------------------------------
    1          7          -0.069358718   -0.039812018    0.000000000
    2          7          -0.022402734    0.076879543    0.000000000
    3          7           0.033108900    0.019653710    0.000000000
    4          1           0.006271753    0.007882816    0.000000000
    5          7          -0.007922466   -0.056240140    0.000000000
    6          6           0.056315081   -0.005927785    0.000000000
    7          1           0.003988184   -0.002436127    0.000000000
 -------------------------------------------------------------------
 Cartesian Forces:  Max     0.076879543 RMS     0.031506615

 GradGradGradGradGradGradGradGradGradGradGradGradGradGradGradGradGradGrad
 Berny optimization.
 Internal  Forces:  Max     0.074221773 RMS     0.024373701
 Search for a local minimum.
 Step number   1 out of a maximum of  36
 All quantities printed in internal units (Hartrees-Bohrs-Radians)
 Second derivative matrix not updated -- first step.
     Eigenvalues ---    0.02505   0.02639   0.02674   0.02834   0.16000
     Eigenvalues ---    0.16000   0.22605   0.24688   0.37515   0.48737
     Eigenvalues ---    0.50885   0.56605   0.58506   0.66912   0.78894
     Eigenvalues --- 1000.000001000.000001000.000001000.000001000.00000
     Eigenvalues --- 1000.000001000.000001000.000001000.000001000.00000
     Eigenvalues --- 1000.00000
 RFO step:  Lambda=-2.22309259D-02.
 Linear search not attempted -- first point.
 Iteration  1 RMS(Cart)=  0.03610090 RMS(Int)=  0.00022343
 Iteration  2 RMS(Cart)=  0.00019272 RMS(Int)=  0.00008823
 Iteration  3 RMS(Cart)=  0.00000003 RMS(Int)=  0.00008823
 Variable       Old X    -DE/DX   Delta X   Delta X   Delta X     New X
                                 (Linear)    (Quad)   (Total)
    R1        2.36623   0.07422   0.00000   0.09035   0.09047   2.45670
    R2        2.53474   0.04866   0.00000   0.08485   0.08493   2.61967
    R3        2.50608   0.05231   0.00000   0.08341   0.08340   2.58948
    R4        1.87862   0.01006   0.00000   0.01973   0.01973   1.89835
    R5        2.51367   0.03810   0.00000   0.05805   0.05792   2.57160
    R6        2.43647   0.05538   0.00000   0.07452   0.07446   2.51093
    R7        2.01777   0.00460   0.00000   0.01159   0.01159   2.02936
    A1        1.94380  -0.00965   0.00000  -0.02034  -0.02011   1.92369
    A2        1.86179  -0.00303   0.00000  -0.00244  -0.00232   1.85947
    A3        2.10759  -0.00247   0.00000  -0.00447  -0.00440   2.10319
    A4        1.88535   0.00601   0.00000   0.01482   0.01468   1.90003
    A5        2.29025  -0.00354   0.00000  -0.01035  -0.01028   2.27997
    A6        1.84604   0.00577   0.00000   0.01905   0.01903   1.86507
    A7        1.88780   0.00089   0.00000  -0.01109  -0.01129   1.87651
    A8        2.18241   0.00036   0.00000   0.00997   0.01007   2.19248
    A9        2.21298  -0.00125   0.00000   0.00112   0.00122   2.21420
    D1        0.00000   0.00000   0.00000   0.00000   0.00000   0.00000
    D2        0.00000   0.00000   0.00000   0.00000   0.00000   0.00000
    D3        3.14159   0.00000   0.00000   0.00000   0.00000   3.14159
    D4        0.00000   0.00000   0.00000   0.00000   0.00000   0.00000
    D5        0.00000   0.00000   0.00000   0.00000   0.00000   0.00000
    D6        3.14159   0.00000   0.00000   0.00000   0.00000   3.14159
    D7        3.14159   0.00000   0.00000   0.00000   0.00000   3.14159
    D8        0.00000   0.00000   0.00000   0.00000   0.00000   0.00000
    D9        0.00000   0.00000   0.00000   0.00000   0.00000   0.00000
   D10        3.14159   0.00000   0.00000   0.00000   0.00000   3.14159
         Item               Value     Threshold  Converged?
 Maximum Force            0.074222     0.000450     NO 
 RMS     Force            0.024374     0.000300     NO 
 Maximum Displacement     0.103521     0.001800     NO 
 RMS     Displacement     0.036108     0.001200     NO 
 Predicted change in Energy=-1.075071D-02
 GradGradGradGradGradGradGradGradGradGradGradGradGradGradGradGradGradGrad

                          Input orientation:                          
 ---------------------------------------------------------------------
 Center     Atomic     Atomic              Coordinates (Angstroms)
 Number     Number      Type              X           Y           Z
 ---------------------------------------------------------------------
    1          7             0       -1.178074   -0.267352    0.000000
    2          7             0       -0.702992    0.942762    0.000000
    3          7             0        0.662307    0.825840    0.000000
    4          1             0        1.244211    1.644704    0.000000
    5          7             0       -0.142294   -1.188712    0.000000
    6          6             0        0.990810   -0.494746    0.000000
    7          1             0        1.988940   -0.890951    0.000000
 ---------------------------------------------------------------------
                    Distance matrix (angstroms):
                    1          2          3          4          5
     1  N    0.000000
     2  N    1.300031   0.000000
     3  N    2.140577   1.370296   0.000000
     4  H    3.086004   2.069860   1.004565   0.000000
     5  N    1.386270   2.203988   2.169286   3.154464   0.000000
     6  C    2.180772   2.221574   1.360831   2.154404   1.328726
     7  H    3.227825   3.257146   2.169638   2.642758   2.151934
                    6          7
     6  C    0.000000
     7  H    1.073891   0.000000
 Stoichiometry    CH2N4
 Framework group  CS[SG(CH2N4)]
 Deg. of freedom   11
 Full point group                 CS      NOp   2
 Largest Abelian subgroup         CS      NOp   2
 Largest concise Abelian subgroup C1      NOp   1
                         Standard orientation:                         
 ---------------------------------------------------------------------
 Center     Atomic     Atomic              Coordinates (Angstroms)
 Number     Number      Type              X           Y           Z
 ---------------------------------------------------------------------
    1          7             0       -0.738389   -0.943899    0.000000
    2          7             0       -1.133129    0.294754    0.000000
    3          7             0        0.000000    1.065293    0.000000
    4          1             0       -0.065044    2.067749    0.000000
    5          7             0        0.646515   -1.005413    0.000000
    6          6             0        1.087950    0.247842    0.000000
    7          1             0        2.112362    0.570059    0.000000
 ---------------------------------------------------------------------
 Rotational constants (GHZ):     10.3195466     10.0763609      5.0982520
 Isotopes: N-14,N-14,N-14,H-1,N-14,C-12,H-1
 Standard basis: 6-31G (6D, 7F)
 There are    39 symmetry adapted basis functions of A'  symmetry.
 There are    10 symmetry adapted basis functions of A"  symmetry.
 Crude estimate of integral set expansion from redundant integrals=1.000.
 Integral buffers will be    262144 words long.
 Raffenetti 2 integral format.
 Two-electron integral symmetry is turned on.
    49 basis functions      118 primitive gaussians
    18 alpha electrons       18 beta electrons
       nuclear repulsion energy       164.8549765462 Hartrees.
 One-electron integrals computed using PRISM.
 NBasis=    49 RedAO= T  NBF=    39    10
 NBsUse=    49 1.00D-04 NBFU=    39    10
 Initial guess read from the read-write file:
 Initial guess orbital symmetries:
       Occupied  (A') (A') (A') (A') (A') (A') (A') (A') (A') (A')
                 (A') (A") (A') (A') (A") (A") (A') (A')
       Virtual   (A") (A") (A') (A') (A') (A') (A') (A') (A') (A")
                 (A') (A') (A') (A") (A') (A') (A") (A') (A") (A')
                 (A") (A') (A') (A') (A') (A') (A') (A') (A') (A')
                 (A')
 Requested convergence on RMS density matrix=1.00D-08 within  64 cycles.
 Requested convergence on MAX density matrix=1.00D-06.
 Keep R1 and R2 integrals in memory in canonical form, NReq=     1914419.
 Integral accuracy reduced to 1.0D-05 until final iterations.
 Initial convergence to 1.0D-05 achieved.  Increase integral accuracy.
 SCF Done:  E(RB+HF-PW91) =  -258.032953324     A.U. after   14 cycles
             Convg  =    0.6623D-08             -V/T =  2.0045
             S**2   =   0.0000
 ***** Axes restored to original set *****
 -------------------------------------------------------------------
 Center     Atomic                   Forces (Hartrees/Bohr)
 Number     Number              X              Y              Z
 -------------------------------------------------------------------
    1          7          -0.003197589   -0.006270711    0.000000000
    2          7          -0.003362268    0.018680726    0.000000000
    3          7           0.006742118   -0.003920286    0.000000000
    4          1           0.000004101    0.001387451    0.000000000
    5          7           0.004227950   -0.015478396    0.000000000
    6          6          -0.004061505    0.006229311    0.000000000
    7          1          -0.000352807   -0.000628095    0.000000000
 -------------------------------------------------------------------
 Cartesian Forces:  Max     0.018680726 RMS     0.006117290

 GradGradGradGradGradGradGradGradGradGradGradGradGradGradGradGradGradGrad
 Berny optimization.
 Internal  Forces:  Max     0.013712506 RMS     0.004205712
 Search for a local minimum.
 Step number   2 out of a maximum of  36
 All quantities printed in internal units (Hartrees-Bohrs-Radians)
 Update second derivatives using information from points  1  2
 Trust test= 1.09D+00 RLast= 1.82D-01 DXMaxT set to 4.24D-01
     Eigenvalues ---    0.02504   0.02634   0.02674   0.02833   0.15988
     Eigenvalues ---    0.16007   0.22786   0.24805   0.37541   0.48645
     Eigenvalues ---    0.50117   0.56102   0.58410   0.68605   0.73829
     Eigenvalues --- 1000.000001000.000001000.000001000.000001000.00000
     Eigenvalues --- 1000.000001000.000001000.000001000.000001000.00000
     Eigenvalues --- 1000.00000
 RFO step:  Lambda=-1.11605483D-03.
 Quartic linear search produced a step of  0.12871.
 Iteration  1 RMS(Cart)=  0.01214395 RMS(Int)=  0.00013807
 Iteration  2 RMS(Cart)=  0.00013993 RMS(Int)=  0.00001651
 Iteration  3 RMS(Cart)=  0.00000001 RMS(Int)=  0.00001651
 Variable       Old X    -DE/DX   Delta X   Delta X   Delta X     New X
                                 (Linear)    (Quad)   (Total)
    R1        2.45670   0.01371   0.01164   0.01424   0.02590   2.48260
    R2        2.61967   0.00729   0.01093   0.01048   0.02143   2.64110
    R3        2.58948   0.00443   0.01073   0.00309   0.01381   2.60329
    R4        1.89835   0.00113   0.00254   0.00145   0.00399   1.90234
    R5        2.57160   0.00101   0.00746  -0.00376   0.00367   2.57527
    R6        2.51093   0.00232   0.00958  -0.00225   0.00733   2.51826
    R7        2.02936  -0.00010   0.00149  -0.00091   0.00058   2.02994
    A1        1.92369   0.00478  -0.00259   0.03059   0.02804   1.95174
    A2        1.85947  -0.00655  -0.00030  -0.02426  -0.02457   1.83490
    A3        2.10319  -0.00166  -0.00057  -0.00663  -0.00717   2.09601
    A4        1.90003   0.00179   0.00189   0.00240   0.00425   1.90428
    A5        2.27997  -0.00013  -0.00132   0.00423   0.00292   2.28289
    A6        1.86507  -0.00690   0.00245  -0.03455  -0.03207   1.83300
    A7        1.87651   0.00688  -0.00145   0.02583   0.02435   1.90087
    A8        2.19248  -0.00272   0.00130  -0.00798  -0.00668   2.18580
    A9        2.21420  -0.00416   0.00016  -0.01785  -0.01768   2.19652
    D1        0.00000   0.00000   0.00000   0.00000   0.00000   0.00000
    D2        0.00000   0.00000   0.00000   0.00000   0.00000   0.00000
    D3        3.14159   0.00000   0.00000   0.00000   0.00000   3.14159
    D4        0.00000   0.00000   0.00000   0.00000   0.00000   0.00000
    D5        0.00000   0.00000   0.00000   0.00000   0.00000   0.00000
    D6        3.14159   0.00000   0.00000   0.00000   0.00000   3.14159
    D7        3.14159   0.00000   0.00000   0.00000   0.00000   3.14159
    D8        0.00000   0.00000   0.00000   0.00000   0.00000   0.00000
    D9        0.00000   0.00000   0.00000   0.00000   0.00000   0.00000
   D10        3.14159   0.00000   0.00000   0.00000   0.00000   3.14159
         Item               Value     Threshold  Converged?
 Maximum Force            0.013713     0.000450     NO 
 RMS     Force            0.004206     0.000300     NO 
 Maximum Displacement     0.044392     0.001800     NO 
 RMS     Displacement     0.012169     0.001200     NO 
 Predicted change in Energy=-7.215909D-04
 GradGradGradGradGradGradGradGradGradGradGradGradGradGradGradGradGradGrad

                          Input orientation:                          
 ---------------------------------------------------------------------
 Center     Atomic     Atomic              Coordinates (Angstroms)
 Number     Number      Type              X           Y           Z
 ---------------------------------------------------------------------
    1          7             0       -1.160489   -0.268898    0.000000
    2          7             0       -0.698655    0.960986    0.000000
    3          7             0        0.672721    0.830150    0.000000
    4          1             0        1.257908    1.649264    0.000000
    5          7             0       -0.128546   -1.211454    0.000000
    6          6             0        0.994497   -0.494089    0.000000
    7          1             0        1.993403   -0.889172    0.000000
 ---------------------------------------------------------------------
                    Distance matrix (angstroms):
                    1          2          3          4          5
     1  N    0.000000
     2  N    1.313737   0.000000
     3  N    2.137420   1.377603   0.000000
     4  H    3.086745   2.074094   1.006674   0.000000
     5  N    1.397612   2.246001   2.193211   3.178988   0.000000
     6  C    2.166721   2.232489   1.362772   2.159479   1.332606
     7  H    3.214309   3.266537   2.168010   2.642842   2.146284
                    6          7
     6  C    0.000000
     7  H    1.074199   0.000000
 Stoichiometry    CH2N4
 Framework group  CS[SG(CH2N4)]
 Deg. of freedom   11
 Full point group                 CS      NOp   2
 Largest Abelian subgroup         CS      NOp   2
 Largest concise Abelian subgroup C1      NOp   1
                         Standard orientation:                         
 ---------------------------------------------------------------------
 Center     Atomic     Atomic              Coordinates (Angstroms)
 Number     Number      Type              X           Y           Z
 ---------------------------------------------------------------------
    1          7             0       -0.733818   -0.938611    0.000000
    2          7             0       -1.148400    0.307995    0.000000
    3          7             0        0.000000    1.068893    0.000000
    4          1             0       -0.060309    2.073760    0.000000
    5          7             0        0.661289   -1.022248    0.000000
    6          6             0        1.083109    0.241836    0.000000
    7          1             0        2.108166    0.563023    0.000000
 ---------------------------------------------------------------------
 Rotational constants (GHZ):     10.2595666      9.9233955      5.0443407
 Isotopes: N-14,N-14,N-14,H-1,N-14,C-12,H-1
 Standard basis: 6-31G (6D, 7F)
 There are    39 symmetry adapted basis functions of A'  symmetry.
 There are    10 symmetry adapted basis functions of A"  symmetry.
 Crude estimate of integral set expansion from redundant integrals=1.000.
 Integral buffers will be    262144 words long.
 Raffenetti 2 integral format.
 Two-electron integral symmetry is turned on.
    49 basis functions      118 primitive gaussians
    18 alpha electrons       18 beta electrons
       nuclear repulsion energy       163.9896850691 Hartrees.
 One-electron integrals computed using PRISM.
 NBasis=    49 RedAO= T  NBF=    39    10
 NBsUse=    49 1.00D-04 NBFU=    39    10
 Initial guess read from the read-write file:
 Initial guess orbital symmetries:
       Occupied  (A') (A') (A') (A') (A') (A') (A') (A') (A') (A')
                 (A') (A') (A") (A') (A") (A") (A') (A')
       Virtual   (A") (A") (A') (A') (A') (A') (A') (A') (A') (A")
                 (A') (A') (A') (A') (A") (A') (A") (A') (A") (A')
                 (A") (A') (A') (A') (A') (A') (A') (A') (A') (A')
                 (A')
 Requested convergence on RMS density matrix=1.00D-08 within  64 cycles.
 Requested convergence on MAX density matrix=1.00D-06.
 Keep R1 and R2 integrals in memory in canonical form, NReq=     1914419.
 Integral accuracy reduced to 1.0D-05 until final iterations.
 Initial convergence to 1.0D-05 achieved.  Increase integral accuracy.
 SCF Done:  E(RB+HF-PW91) =  -258.033259429     A.U. after   13 cycles
             Convg  =    0.2583D-08             -V/T =  2.0049
             S**2   =   0.0000
 ***** Axes restored to original set *****
 -------------------------------------------------------------------
 Center     Atomic                   Forces (Hartrees/Bohr)
 Number     Number              X              Y              Z
 -------------------------------------------------------------------
    1          7          -0.010970281   -0.000953588    0.000000000
    2          7           0.001328468   -0.006293751    0.000000000
    3          7           0.005253571   -0.004373218    0.000000000
    4          1           0.000364471   -0.000920768    0.000000000
    5          7           0.002469574    0.007887909    0.000000000
    6          6           0.001290008    0.004390365    0.000000000
    7          1           0.000264188    0.000263051    0.000000000
 -------------------------------------------------------------------
 Cartesian Forces:  Max     0.010970281 RMS     0.003777972

 GradGradGradGradGradGradGradGradGradGradGradGradGradGradGradGradGradGrad
 Berny optimization.
 Internal  Forces:  Max     0.010241353 RMS     0.003381710
 Search for a local minimum.
 Step number   3 out of a maximum of  36
 All quantities printed in internal units (Hartrees-Bohrs-Radians)
 Update second derivatives using information from points  1  2  3
 Trust test= 4.24D-01 RLast= 6.97D-02 DXMaxT set to 4.24D-01
     Eigenvalues ---    0.02505   0.02636   0.02674   0.02830   0.15960
     Eigenvalues ---    0.16044   0.22341   0.34422   0.37598   0.43728
     Eigenvalues ---    0.48915   0.53811   0.63512   0.67320   0.78082
     Eigenvalues --- 1000.000001000.000001000.000001000.000001000.00000
     Eigenvalues --- 1000.000001000.000001000.000001000.000001000.00000
     Eigenvalues --- 1000.00000
 RFO step:  Lambda=-2.51292524D-04.
 Quartic linear search produced a step of -0.35956.
 Iteration  1 RMS(Cart)=  0.00650159 RMS(Int)=  0.00003908
 Iteration  2 RMS(Cart)=  0.00003045 RMS(Int)=  0.00001210
 Iteration  3 RMS(Cart)=  0.00000000 RMS(Int)=  0.00001210
 Variable       Old X    -DE/DX   Delta X   Delta X   Delta X     New X
                                 (Linear)    (Quad)   (Total)
    R1        2.48260  -0.00115  -0.00931   0.01205   0.00275   2.48535
    R2        2.64110   0.00092  -0.00771   0.01151   0.00382   2.64492
    R3        2.60329   0.00413  -0.00496   0.01077   0.00580   2.60909
    R4        1.90234  -0.00054  -0.00143   0.00107  -0.00036   1.90198
    R5        2.57527  -0.00824  -0.00132  -0.00854  -0.00987   2.56539
    R6        2.51826   0.00041  -0.00264   0.00312   0.00047   2.51873
    R7        2.02994   0.00015  -0.00021   0.00036   0.00015   2.03009
    A1        1.95174  -0.01024  -0.01008  -0.01056  -0.02061   1.93112
    A2        1.83490   0.00609   0.00884   0.00433   0.01318   1.84808
    A3        2.09601   0.00137   0.00258   0.00162   0.00421   2.10023
    A4        1.90428  -0.00116  -0.00153  -0.00219  -0.00374   1.90054
    A5        2.28289  -0.00020  -0.00105   0.00057  -0.00047   2.28241
    A6        1.83300   0.00754   0.01153   0.00276   0.01429   1.84729
    A7        1.90087  -0.00222  -0.00876   0.00566  -0.00312   1.89775
    A8        2.18580   0.00076   0.00240  -0.00154   0.00087   2.18667
    A9        2.19652   0.00146   0.00636  -0.00412   0.00225   2.19877
    D1        0.00000   0.00000   0.00000   0.00000   0.00000   0.00000
    D2        0.00000   0.00000   0.00000   0.00000   0.00000   0.00000
    D3        3.14159   0.00000   0.00000   0.00000   0.00000   3.14159
    D4        0.00000   0.00000   0.00000   0.00000   0.00000   0.00000
    D5        0.00000   0.00000   0.00000   0.00000   0.00000   0.00000
    D6        3.14159   0.00000   0.00000   0.00000   0.00000   3.14159
    D7        3.14159   0.00000   0.00000   0.00000   0.00000   3.14159
    D8        0.00000   0.00000   0.00000   0.00000   0.00000   0.00000
    D9        0.00000   0.00000   0.00000   0.00000   0.00000   0.00000
   D10        3.14159   0.00000   0.00000   0.00000   0.00000   3.14159
         Item               Value     Threshold  Converged?
 Maximum Force            0.010241     0.000450     NO 
 RMS     Force            0.003382     0.000300     NO 
 Maximum Displacement     0.022876     0.001800     NO 
 RMS     Displacement     0.006503     0.001200     NO 
 Predicted change in Energy=-2.649329D-04
 GradGradGradGradGradGradGradGradGradGradGradGradGradGradGradGradGradGrad

                          Input orientation:                          
 ---------------------------------------------------------------------
 Center     Atomic     Atomic              Coordinates (Angstroms)
 Number     Number      Type              X           Y           Z
 ---------------------------------------------------------------------
    1          7             0       -1.172970   -0.271074    0.000000
    2          7             0       -0.698768    0.955655    0.000000
    3          7             0        0.676119    0.829382    0.000000
    4          1             0        1.261753    1.647943    0.000000
    5          7             0       -0.129247   -1.203606    0.000000
    6          6             0        0.996388   -0.489846    0.000000
    7          1             0        1.994938   -0.886036    0.000000
 ---------------------------------------------------------------------
                    Distance matrix (angstroms):
                    1          2          3          4          5
     1  N    0.000000
     2  N    1.315192   0.000000
     3  N    2.151775   1.380674   0.000000
     4  H    3.100081   2.079160   1.006483   0.000000
     5  N    1.399634   2.233106   2.186700   3.172730   0.000000
     6  C    2.180361   2.227785   1.357548   2.154196   1.332856
     7  H    3.227046   3.263109   2.163780   2.637918   2.147793
                    6          7
     6  C    0.000000
     7  H    1.074276   0.000000
 Stoichiometry    CH2N4
 Framework group  CS[SG(CH2N4)]
 Deg. of freedom   11
 Full point group                 CS      NOp   2
 Largest Abelian subgroup         CS      NOp   2
 Largest concise Abelian subgroup C1      NOp   1
                         Standard orientation:                         
 ---------------------------------------------------------------------
 Center     Atomic     Atomic              Coordinates (Angstroms)
 Number     Number      Type              X           Y           Z
 ---------------------------------------------------------------------
    1          7             0       -0.736440   -0.950990    0.000000
    2          7             0       -1.144895    0.299168    0.000000
    3          7             0        0.000000    1.070839    0.000000
    4          1             0       -0.064008    2.075285    0.000000
    5          7             0        0.661805   -1.013309    0.000000
    6          6             0        1.082379    0.251454    0.000000
    7          1             0        2.106447    0.576038    0.000000
 ---------------------------------------------------------------------
 Rotational constants (GHZ):     10.1734896      9.9936734      5.0413899
 Isotopes: N-14,N-14,N-14,H-1,N-14,C-12,H-1
 Standard basis: 6-31G (6D, 7F)
 There are    39 symmetry adapted basis functions of A'  symmetry.
 There are    10 symmetry adapted basis functions of A"  symmetry.
 Crude estimate of integral set expansion from redundant integrals=1.000.
 Integral buffers will be    262144 words long.
 Raffenetti 2 integral format.
 Two-electron integral symmetry is turned on.
    49 basis functions      118 primitive gaussians
    18 alpha electrons       18 beta electrons
       nuclear repulsion energy       163.9326347022 Hartrees.
 One-electron integrals computed using PRISM.
 NBasis=    49 RedAO= T  NBF=    39    10
 NBsUse=    49 1.00D-04 NBFU=    39    10
 Initial guess read from the read-write file:
 Initial guess orbital symmetries:
       Occupied  (A') (A') (A') (A') (A') (A') (A') (A') (A') (A')
                 (A') (A') (A") (A') (A") (A") (A') (A')
       Virtual   (A") (A") (A') (A') (A') (A') (A') (A') (A') (A")
                 (A') (A') (A') (A') (A") (A') (A") (A') (A") (A')
                 (A") (A') (A') (A') (A') (A') (A') (A') (A') (A')
                 (A')
 Requested convergence on RMS density matrix=1.00D-08 within  64 cycles.
 Requested convergence on MAX density matrix=1.00D-06.
 Keep R1 and R2 integrals in memory in canonical form, NReq=     1914419.
 Integral accuracy reduced to 1.0D-05 until final iterations.
 Initial convergence to 1.0D-05 achieved.  Increase integral accuracy.
 SCF Done:  E(RB+HF-PW91) =  -258.033495103     A.U. after   11 cycles
             Convg  =    0.9877D-08             -V/T =  2.0049
             S**2   =   0.0000
 ***** Axes restored to original set *****
 -------------------------------------------------------------------
 Center     Atomic                   Forces (Hartrees/Bohr)
 Number     Number              X              Y              Z
 -------------------------------------------------------------------
    1          7           0.002336699    0.001736996    0.000000000
    2          7          -0.001217284   -0.000023367    0.000000000
    3          7          -0.000532206   -0.002884990    0.000000000
    4          1          -0.000453859   -0.000249488    0.000000000
    5          7           0.001380591    0.000715987    0.000000000
    6          6          -0.001432223    0.000945644    0.000000000
    7          1          -0.000081719   -0.000240782    0.000000000
 -------------------------------------------------------------------
 Cartesian Forces:  Max     0.002884990 RMS     0.001074889

 GradGradGradGradGradGradGradGradGradGradGradGradGradGradGradGradGradGrad
 Berny optimization.
 Internal  Forces:  Max     0.002205409 RMS     0.000844747
 Search for a local minimum.
 Step number   4 out of a maximum of  36
 All quantities printed in internal units (Hartrees-Bohrs-Radians)
 Update second derivatives using information from points  1  2  3  4
 Trust test= 8.90D-01 RLast= 3.17D-02 DXMaxT set to 4.24D-01
     Eigenvalues ---    0.02505   0.02634   0.02677   0.02832   0.15894
     Eigenvalues ---    0.16043   0.23670   0.33326   0.37591   0.48736
     Eigenvalues ---    0.49812   0.55109   0.59262   0.73976   0.76113
     Eigenvalues --- 1000.000001000.000001000.000001000.000001000.00000
     Eigenvalues --- 1000.000001000.000001000.000001000.000001000.00000
     Eigenvalues --- 1000.00000
 RFO step:  Lambda=-2.86590347D-05.
 Quartic linear search produced a step of -0.09330.
 Iteration  1 RMS(Cart)=  0.00187363 RMS(Int)=  0.00000236
 Iteration  2 RMS(Cart)=  0.00000185 RMS(Int)=  0.00000141
 Iteration  3 RMS(Cart)=  0.00000000 RMS(Int)=  0.00000141
 Variable       Old X    -DE/DX   Delta X   Delta X   Delta X     New X
                                 (Linear)    (Quad)   (Total)
    R1        2.48535  -0.00194  -0.00026  -0.00200  -0.00226   2.48309
    R2        2.64492  -0.00020  -0.00036   0.00002  -0.00034   2.64459
    R3        2.60909  -0.00043  -0.00054   0.00018  -0.00036   2.60873
    R4        1.90198  -0.00047   0.00003  -0.00092  -0.00089   1.90109
    R5        2.56539  -0.00161   0.00092  -0.00395  -0.00303   2.56237
    R6        2.51873  -0.00221  -0.00004  -0.00264  -0.00269   2.51604
    R7        2.03009   0.00001  -0.00001   0.00007   0.00006   2.03015
    A1        1.93112   0.00118   0.00192   0.00006   0.00198   1.93310
    A2        1.84808  -0.00168  -0.00123  -0.00283  -0.00406   1.84402
    A3        2.10023  -0.00082  -0.00039  -0.00244  -0.00284   2.09739
    A4        1.90054   0.00119   0.00035   0.00363   0.00398   1.90452
    A5        2.28241  -0.00038   0.00004  -0.00119  -0.00115   2.28127
    A6        1.84729  -0.00047  -0.00133   0.00153   0.00020   1.84748
    A7        1.89775  -0.00022   0.00029  -0.00239  -0.00209   1.89565
    A8        2.18667   0.00036  -0.00008   0.00230   0.00222   2.18889
    A9        2.19877  -0.00014  -0.00021   0.00008  -0.00013   2.19864
    D1        0.00000   0.00000   0.00000   0.00000   0.00000   0.00000
    D2        0.00000   0.00000   0.00000   0.00000   0.00000   0.00000
    D3        3.14159   0.00000   0.00000   0.00000   0.00000   3.14159
    D4        0.00000   0.00000   0.00000   0.00000   0.00000   0.00000
    D5        0.00000   0.00000   0.00000   0.00000   0.00000   0.00000
    D6        3.14159   0.00000   0.00000   0.00000   0.00000   3.14159
    D7        3.14159   0.00000   0.00000   0.00000   0.00000   3.14159
    D8        0.00000   0.00000   0.00000   0.00000   0.00000   0.00000
    D9        0.00000   0.00000   0.00000   0.00000   0.00000   0.00000
   D10        3.14159   0.00000   0.00000   0.00000   0.00000   3.14159
         Item               Value     Threshold  Converged?
 Maximum Force            0.002205     0.000450     NO 
 RMS     Force            0.000845     0.000300     NO 
 Maximum Displacement     0.003850     0.001800     NO 
 RMS     Displacement     0.001874     0.001200     NO 
 Predicted change in Energy=-1.685268D-05
 GradGradGradGradGradGradGradGradGradGradGradGradGradGradGradGradGradGrad

                          Input orientation:                          
 ---------------------------------------------------------------------
 Center     Atomic     Atomic              Coordinates (Angstroms)
 Number     Number      Type              X           Y           Z
 ---------------------------------------------------------------------
    1          7             0       -1.170126   -0.269356    0.000000
    2          7             0       -0.698449    0.957064    0.000000
    3          7             0        0.675946    0.827575    0.000000
    4          1             0        1.260911    1.646036    0.000000
    5          7             0       -0.126784   -1.202049    0.000000
    6          6             0        0.997981   -0.489575    0.000000
    7          1             0        1.996326   -0.886369    0.000000
 ---------------------------------------------------------------------
                    Distance matrix (angstroms):
                    1          2          3          4          5
     1  N    0.000000
     2  N    1.313996   0.000000
     3  N    2.147379   1.380481   0.000000
     4  H    3.094942   2.076962   1.006012   0.000000
     5  N    1.399456   2.233511   2.182601   3.168167   0.000000
     6  C    2.179262   2.229493   1.355946   2.151735   1.331434
     7  H    3.226007   3.264974   2.163564   2.637027   2.146451
                    6          7
     6  C    0.000000
     7  H    1.074309   0.000000
 Stoichiometry    CH2N4
 Framework group  CS[SG(CH2N4)]
 Deg. of freedom   11
 Full point group                 CS      NOp   2
 Largest Abelian subgroup         CS      NOp   2
 Largest concise Abelian subgroup C1      NOp   1
                         Standard orientation:                         
 ---------------------------------------------------------------------
 Center     Atomic     Atomic              Coordinates (Angstroms)
 Number     Number      Type              X           Y           Z
 ---------------------------------------------------------------------
    1          7             0       -0.735741   -0.949344    0.000000
    2          7             0       -1.146322    0.298858    0.000000
    3          7             0        0.000000    1.068061    0.000000
    4          1             0       -0.064756    2.071987    0.000000
    5          7             0        0.662329   -1.011619    0.000000
    6          6             0        1.082672    0.251720    0.000000
    7          1             0        2.106868    0.576007    0.000000
 ---------------------------------------------------------------------
 Rotational constants (GHZ):     10.2125555      9.9835708      5.0483825
 Isotopes: N-14,N-14,N-14,H-1,N-14,C-12,H-1
 Standard basis: 6-31G (6D, 7F)
 There are    39 symmetry adapted basis functions of A'  symmetry.
 There are    10 symmetry adapted basis functions of A"  symmetry.
 Crude estimate of integral set expansion from redundant integrals=1.000.
 Integral buffers will be    262144 words long.
 Raffenetti 2 integral format.
 Two-electron integral symmetry is turned on.
    49 basis functions      118 primitive gaussians
    18 alpha electrons       18 beta electrons
       nuclear repulsion energy       164.0449465114 Hartrees.
 One-electron integrals computed using PRISM.
 NBasis=    49 RedAO= T  NBF=    39    10
 NBsUse=    49 1.00D-04 NBFU=    39    10
 Initial guess read from the read-write file:
 Initial guess orbital symmetries:
       Occupied  (A') (A') (A') (A') (A') (A') (A') (A') (A') (A')
                 (A') (A') (A") (A') (A") (A") (A') (A')
       Virtual   (A") (A") (A') (A') (A') (A') (A') (A') (A') (A")
                 (A') (A') (A') (A') (A") (A') (A") (A') (A") (A')
                 (A") (A') (A') (A') (A') (A') (A') (A') (A') (A')
                 (A')
 Requested convergence on RMS density matrix=1.00D-08 within  64 cycles.
 Requested convergence on MAX density matrix=1.00D-06.
 Keep R1 and R2 integrals in memory in canonical form, NReq=     1914419.
 SCF Done:  E(RB+HF-PW91) =  -258.033509903     A.U. after    9 cycles
             Convg  =    0.7691D-08             -V/T =  2.0048
             S**2   =   0.0000
 ***** Axes restored to original set *****
 -------------------------------------------------------------------
 Center     Atomic                   Forces (Hartrees/Bohr)
 Number     Number              X              Y              Z
 -------------------------------------------------------------------
    1          7           0.000418821    0.000368390    0.000000000
    2          7          -0.000039794   -0.000901881    0.000000000
    3          7           0.000829903    0.000102371    0.000000000
    4          1          -0.000037846    0.000049155    0.000000000
    5          7          -0.000099746   -0.000404542    0.000000000
    6          6          -0.001005780    0.000852359    0.000000000
    7          1          -0.000065557   -0.000065852    0.000000000
 -------------------------------------------------------------------
 Cartesian Forces:  Max     0.001005780 RMS     0.000422550

 GradGradGradGradGradGradGradGradGradGradGradGradGradGradGradGradGradGrad
 Berny optimization.
 Internal  Forces:  Max     0.000599746 RMS     0.000273946
 Search for a local minimum.
 Step number   5 out of a maximum of  36
 All quantities printed in internal units (Hartrees-Bohrs-Radians)
 Update second derivatives using information from points  1  2  3  4  5

 Trust test= 8.78D-01 RLast= 8.80D-03 DXMaxT set to 4.24D-01
     Eigenvalues ---    0.02505   0.02634   0.02676   0.02831   0.15502
     Eigenvalues ---    0.16016   0.30743   0.37342   0.37647   0.46548
     Eigenvalues ---    0.49073   0.52560   0.56113   0.71470   0.76333
     Eigenvalues --- 1000.000001000.000001000.000001000.000001000.00000
     Eigenvalues --- 1000.000001000.000001000.000001000.000001000.00000
     Eigenvalues --- 1000.00000
 RFO step:  Lambda=-4.77131846D-06.
 Quartic linear search produced a step of -0.10817.
 Iteration  1 RMS(Cart)=  0.00073265 RMS(Int)=  0.00000039
 Iteration  2 RMS(Cart)=  0.00000039 RMS(Int)=  0.00000016
 Variable       Old X    -DE/DX   Delta X   Delta X   Delta X     New X
                                 (Linear)    (Quad)   (Total)
    R1        2.48309  -0.00043   0.00024  -0.00110  -0.00086   2.48223
    R2        2.64459  -0.00033   0.00004  -0.00059  -0.00056   2.64403
    R3        2.60873  -0.00005   0.00004  -0.00008  -0.00004   2.60869
    R4        1.90109   0.00002   0.00010  -0.00021  -0.00011   1.90098
    R5        2.56237  -0.00048   0.00033  -0.00151  -0.00118   2.56119
    R6        2.51604   0.00003   0.00029  -0.00066  -0.00037   2.51568
    R7        2.03015  -0.00004  -0.00001  -0.00005  -0.00005   2.03010
    A1        1.93310   0.00007  -0.00021   0.00045   0.00024   1.93334
    A2        1.84402   0.00036   0.00044   0.00034   0.00078   1.84479
    A3        2.09739   0.00024   0.00031   0.00007   0.00037   2.09776
    A4        1.90452  -0.00060  -0.00043  -0.00118  -0.00161   1.90292
    A5        2.28127   0.00036   0.00012   0.00111   0.00124   2.28251
    A6        1.84748  -0.00043  -0.00002  -0.00123  -0.00125   1.84623
    A7        1.89565   0.00060   0.00023   0.00162   0.00185   1.89750
    A8        2.18889  -0.00022  -0.00024  -0.00006  -0.00030   2.18859
    A9        2.19864  -0.00038   0.00001  -0.00156  -0.00155   2.19709
    D1        0.00000   0.00000   0.00000   0.00000   0.00000   0.00000
    D2        0.00000   0.00000   0.00000   0.00000   0.00000   0.00000
    D3        3.14159   0.00000   0.00000   0.00000   0.00000   3.14159
    D4        0.00000   0.00000   0.00000   0.00000   0.00000   0.00000
    D5        0.00000   0.00000   0.00000   0.00000   0.00000   0.00000
    D6        3.14159   0.00000   0.00000   0.00000   0.00000   3.14159
    D7        3.14159   0.00000   0.00000   0.00000   0.00000   3.14159
    D8        0.00000   0.00000   0.00000   0.00000   0.00000   0.00000
    D9        0.00000   0.00000   0.00000   0.00000   0.00000   0.00000
   D10        3.14159   0.00000   0.00000   0.00000   0.00000   3.14159
         Item               Value     Threshold  Converged?
 Maximum Force            0.000600     0.000450     NO 
 RMS     Force            0.000274     0.000300     YES
 Maximum Displacement     0.001963     0.001800     NO 
 RMS     Displacement     0.000733     0.001200     YES
 Predicted change in Energy=-2.606553D-06
 GradGradGradGradGradGradGradGradGradGradGradGradGradGradGradGradGradGrad

                          Input orientation:                          
 ---------------------------------------------------------------------
 Center     Atomic     Atomic              Coordinates (Angstroms)
 Number     Number      Type              X           Y           Z
 ---------------------------------------------------------------------
    1          7             0       -1.169824   -0.270039    0.000000
    2          7             0       -0.698247    0.955933    0.000000
    3          7             0        0.676218    0.827444    0.000000
    4          1             0        1.260859    1.646063    0.000000
    5          7             0       -0.126971   -1.202835    0.000000
    6          6             0        0.996943   -0.489382    0.000000
    7          1             0        1.995031   -0.886747    0.000000
 ---------------------------------------------------------------------
                    Distance matrix (angstroms):
                    1          2          3          4          5
     1  N    0.000000
     2  N    1.313542   0.000000
     3  N    2.147636   1.380458   0.000000
     4  H    3.095104   2.077108   1.005953   0.000000
     5  N    1.399160   2.233078   2.183380   3.168958   0.000000
     6  C    2.177841   2.227690   1.355321   2.151692   1.331240
     7  H    3.224381   3.263314   2.162804   2.637070   2.145415
                    6          7
     6  C    0.000000
     7  H    1.074281   0.000000
 Stoichiometry    CH2N4
 Framework group  CS[SG(CH2N4)]
 Deg. of freedom   11
 Full point group                 CS      NOp   2
 Largest Abelian subgroup         CS      NOp   2
 Largest concise Abelian subgroup C1      NOp   1
                         Standard orientation:                         
 ---------------------------------------------------------------------
 Center     Atomic     Atomic              Coordinates (Angstroms)
 Number     Number      Type              X           Y           Z
 ---------------------------------------------------------------------
    1          7             0       -0.735282   -0.949259    0.000000
    2          7             0       -1.145711    0.298515    0.000000
    3          7             0        0.000000    1.068587    0.000000
    4          1             0       -0.065151    2.072427    0.000000
    5          7             0        0.662477   -1.011864    0.000000
    6          6             0        1.081488    0.251714    0.000000
    7          1             0        2.105832    0.575440    0.000000
 ---------------------------------------------------------------------
 Rotational constants (GHZ):     10.2093446      9.9950691      5.0505353
 Isotopes: N-14,N-14,N-14,H-1,N-14,C-12,H-1
 Standard basis: 6-31G (6D, 7F)
 There are    39 symmetry adapted basis functions of A'  symmetry.
 There are    10 symmetry adapted basis functions of A"  symmetry.
 Crude estimate of integral set expansion from redundant integrals=1.000.
 Integral buffers will be    262144 words long.
 Raffenetti 2 integral format.
 Two-electron integral symmetry is turned on.
    49 basis functions      118 primitive gaussians
    18 alpha electrons       18 beta electrons
       nuclear repulsion energy       164.0797163082 Hartrees.
 One-electron integrals computed using PRISM.
 NBasis=    49 RedAO= T  NBF=    39    10
 NBsUse=    49 1.00D-04 NBFU=    39    10
 Initial guess read from the read-write file:
 Initial guess orbital symmetries:
       Occupied  (A') (A') (A') (A') (A') (A') (A') (A') (A') (A')
                 (A') (A') (A") (A') (A") (A") (A') (A')
       Virtual   (A") (A") (A') (A') (A') (A') (A') (A') (A') (A")
                 (A') (A') (A') (A') (A") (A') (A") (A') (A") (A')
                 (A") (A') (A') (A') (A') (A') (A') (A') (A') (A')
                 (A')
 Requested convergence on RMS density matrix=1.00D-08 within  64 cycles.
 Requested convergence on MAX density matrix=1.00D-06.
 Keep R1 and R2 integrals in memory in canonical form, NReq=     1914419.
 SCF Done:  E(RB+HF-PW91) =  -258.033512555     A.U. after    9 cycles
             Convg  =    0.3015D-08             -V/T =  2.0048
             S**2   =   0.0000
 ***** Axes restored to original set *****
 -------------------------------------------------------------------
 Center     Atomic                   Forces (Hartrees/Bohr)
 Number     Number              X              Y              Z
 -------------------------------------------------------------------
    1          7           0.000004511    0.000320661    0.000000000
    2          7          -0.000437463   -0.000211275    0.000000000
    3          7           0.000334979   -0.000059103    0.000000000
    4          1           0.000006673    0.000038392    0.000000000
    5          7          -0.000057267   -0.000155954    0.000000000
    6          6           0.000159638    0.000109361    0.000000000
    7          1          -0.000011070   -0.000042082    0.000000000
 -------------------------------------------------------------------
 Cartesian Forces:  Max     0.000437463 RMS     0.000157815

 GradGradGradGradGradGradGradGradGradGradGradGradGradGradGradGradGradGrad
 Berny optimization.
 Internal  Forces:  Max     0.000345797 RMS     0.000094433
 Search for a local minimum.
 Step number   6 out of a maximum of  36
 All quantities printed in internal units (Hartrees-Bohrs-Radians)
 Update second derivatives using information from points  1  2  3  4  5
                                                        6
 Trust test= 1.02D+00 RLast= 3.87D-03 DXMaxT set to 4.24D-01
     Eigenvalues ---    0.02505   0.02634   0.02676   0.02831   0.14481
     Eigenvalues ---    0.16011   0.28069   0.37558   0.38602   0.45549
     Eigenvalues ---    0.48928   0.56066   0.56605   0.72242   0.78274
     Eigenvalues --- 1000.000001000.000001000.000001000.000001000.00000
     Eigenvalues --- 1000.000001000.000001000.000001000.000001000.00000
     Eigenvalues --- 1000.00000
 RFO step:  Lambda=-4.07914021D-07.
 Quartic linear search produced a step of  0.01918.
 Iteration  1 RMS(Cart)=  0.00015803 RMS(Int)=  0.00000003
 Iteration  2 RMS(Cart)=  0.00000002 RMS(Int)=  0.00000001
 Variable       Old X    -DE/DX   Delta X   Delta X   Delta X     New X
                                 (Linear)    (Quad)   (Total)
    R1        2.48223  -0.00024  -0.00002  -0.00035  -0.00036   2.48187
    R2        2.64403   0.00013  -0.00001   0.00024   0.00023   2.64426
    R3        2.60869   0.00035   0.00000   0.00066   0.00066   2.60934
    R4        1.90098   0.00003   0.00000   0.00005   0.00005   1.90103
    R5        2.56119   0.00000  -0.00002  -0.00018  -0.00020   2.56098
    R6        2.51568   0.00016  -0.00001   0.00017   0.00016   2.51584
    R7        2.03010   0.00001   0.00000   0.00002   0.00002   2.03011
    A1        1.93334   0.00004   0.00000   0.00012   0.00012   1.93346
    A2        1.84479   0.00002   0.00001  -0.00004  -0.00002   1.84477
    A3        2.09776   0.00000   0.00001  -0.00016  -0.00015   2.09761
    A4        1.90292  -0.00004  -0.00003  -0.00009  -0.00012   1.90279
    A5        2.28251   0.00004   0.00002   0.00025   0.00027   2.28278
    A6        1.84623   0.00002  -0.00002  -0.00008  -0.00011   1.84612
    A7        1.89750  -0.00005   0.00004   0.00009   0.00013   1.89763
    A8        2.18859   0.00006  -0.00001   0.00030   0.00029   2.18889
    A9        2.19709  -0.00002  -0.00003  -0.00039  -0.00042   2.19667
    D1        0.00000   0.00000   0.00000   0.00000   0.00000   0.00000
    D2        0.00000   0.00000   0.00000   0.00000   0.00000   0.00000
    D3        3.14159   0.00000   0.00000   0.00000   0.00000   3.14159
    D4        0.00000   0.00000   0.00000   0.00000   0.00000   0.00000
    D5        0.00000   0.00000   0.00000   0.00000   0.00000   0.00000
    D6        3.14159   0.00000   0.00000   0.00000   0.00000   3.14159
    D7        3.14159   0.00000   0.00000   0.00000   0.00000   3.14159
    D8        0.00000   0.00000   0.00000   0.00000   0.00000   0.00000
    D9        0.00000   0.00000   0.00000   0.00000   0.00000   0.00000
   D10        3.14159   0.00000   0.00000   0.00000   0.00000   3.14159
         Item               Value     Threshold  Converged?
 Maximum Force            0.000346     0.000450     YES
 RMS     Force            0.000094     0.000300     YES
 Maximum Displacement     0.000443     0.001800     YES
 RMS     Displacement     0.000158     0.001200     YES
 Predicted change in Energy=-2.048978D-07
 Optimization completed.
    -- Stationary point found.
                         ----------------------------
                         !   Optimized Parameters   !
                         ! (Angstroms and Degrees)  !
 ------------------------                            -------------------------
 ! Name  Definition              Value          Derivative Info.             !
 -----------------------------------------------------------------------------
 ! R1    R(1,2)                  1.3135         -DE/DX =   -0.0002           !
 ! R2    R(1,5)                  1.3992         -DE/DX =    0.0001           !
 ! R3    R(2,3)                  1.3805         -DE/DX =    0.0003           !
 ! R4    R(3,4)                  1.006          -DE/DX =    0.               !
 ! R5    R(3,6)                  1.3553         -DE/DX =    0.               !
 ! R6    R(5,6)                  1.3312         -DE/DX =    0.0002           !
 ! R7    R(6,7)                  1.0743         -DE/DX =    0.               !
 ! A1    A(2,1,5)              110.772          -DE/DX =    0.               !
 ! A2    A(1,2,3)              105.6989         -DE/DX =    0.               !
 ! A3    A(2,3,4)              120.193          -DE/DX =    0.               !
 ! A4    A(2,3,6)              109.029          -DE/DX =    0.               !
 ! A5    A(4,3,6)              130.778          -DE/DX =    0.               !
 ! A6    A(1,5,6)              105.7813         -DE/DX =    0.               !
 ! A7    A(3,6,5)              108.7187         -DE/DX =    0.               !
 ! A8    A(3,6,7)              125.3972         -DE/DX =    0.0001           !
 ! A9    A(5,6,7)              125.8841         -DE/DX =    0.               !
 ! D1    D(5,1,2,3)              0.             -DE/DX =    0.               !
 ! D2    D(2,1,5,6)              0.             -DE/DX =    0.               !
 ! D3    D(1,2,3,4)            180.             -DE/DX =    0.               !
 ! D4    D(1,2,3,6)              0.             -DE/DX =    0.               !
 ! D5    D(2,3,6,5)              0.             -DE/DX =    0.               !
 ! D6    D(2,3,6,7)            180.             -DE/DX =    0.               !
 ! D7    D(4,3,6,5)            180.             -DE/DX =    0.               !
 ! D8    D(4,3,6,7)              0.             -DE/DX =    0.               !
 ! D9    D(1,5,6,3)              0.             -DE/DX =    0.               !
 ! D10   D(1,5,6,7)            180.             -DE/DX =    0.               !
 -----------------------------------------------------------------------------
 GradGradGradGradGradGradGradGradGradGradGradGradGradGradGradGradGradGrad

                          Input orientation:                          
 ---------------------------------------------------------------------
 Center     Atomic     Atomic              Coordinates (Angstroms)
 Number     Number      Type              X           Y           Z
 ---------------------------------------------------------------------
    1          7             0       -1.169984   -0.269943    0.000000
    2          7             0       -0.698408    0.956029    0.000000
    3          7             0        0.676058    0.827540    0.000000
    4          1             0        1.260699    1.646159    0.000000
    5          7             0       -0.127132   -1.202739    0.000000
    6          6             0        0.996782   -0.489286    0.000000
    7          1             0        1.994870   -0.886651    0.000000
 ---------------------------------------------------------------------
                    Distance matrix (angstroms):
                    1          2          3          4          5
     1  N    0.000000
     2  N    1.313542   0.000000
     3  N    2.147636   1.380458   0.000000
     4  H    3.095104   2.077108   1.005953   0.000000
     5  N    1.399160   2.233078   2.183380   3.168958   0.000000
     6  C    2.177841   2.227690   1.355321   2.151692   1.331240
     7  H    3.224381   3.263314   2.162804   2.637070   2.145415
                    6          7
     6  C    0.000000
     7  H    1.074281   0.000000
 Stoichiometry    CH2N4
 Framework group  CS[SG(CH2N4)]
 Deg. of freedom   11
 Full point group                 CS      NOp   2
 Largest Abelian subgroup         CS      NOp   2
 Largest concise Abelian subgroup C1      NOp   1
                         Standard orientation:                         
 ---------------------------------------------------------------------
 Center     Atomic     Atomic              Coordinates (Angstroms)
 Number     Number      Type              X           Y           Z
 ---------------------------------------------------------------------
    1          7             0       -0.735282   -0.949259    0.000000
    2          7             0       -1.145711    0.298515    0.000000
    3          7             0        0.000000    1.068587    0.000000
    4          1             0       -0.065151    2.072427    0.000000
    5          7             0        0.662477   -1.011864    0.000000
    6          6             0        1.081488    0.251714    0.000000
    7          1             0        2.105832    0.575440    0.000000
 ---------------------------------------------------------------------
 Rotational constants (GHZ):     10.2093446      9.9950691      5.0505353
 Isotopes: N-14,N-14,N-14,H-1,N-14,C-12,H-1

 **********************************************************************

            Population analysis using the SCF density.

 **********************************************************************

 Orbital Symmetries:
       Occupied  (A') (A') (A') (A') (A') (A') (A') (A') (A') (A')
                 (A') (A') (A") (A') (A") (A") (A') (A')
       Virtual   (A") (A") (A') (A') (A') (A') (A') (A') (A') (A")
                 (A') (A') (A') (A') (A") (A') (A") (A') (A") (A')
                 (A") (A') (A') (A') (A') (A') (A') (A') (A') (A')
                 (A')
  The electronic state is 1-A'.
 Alpha  occ. eigenvalues --  -14.45033 -14.42566 -14.40632 -14.37837 -10.28547
 Alpha  occ. eigenvalues --   -1.18164  -0.97560  -0.93319  -0.70304  -0.68932
 Alpha  occ. eigenvalues --   -0.61893  -0.51839  -0.51213  -0.38453  -0.34932
 Alpha  occ. eigenvalues --   -0.33104  -0.31375  -0.30219
 Alpha virt. eigenvalues --   -0.04741  -0.00859   0.05674   0.09525   0.15148
 Alpha virt. eigenvalues --    0.17905   0.23724   0.30178   0.37219   0.51801
 Alpha virt. eigenvalues --    0.53524   0.60920   0.64638   0.65741   0.66692
 Alpha virt. eigenvalues --    0.69315   0.71316   0.72785   0.78444   0.79345
 Alpha virt. eigenvalues --    0.82815   0.83778   0.86946   0.90300   1.00916
 Alpha virt. eigenvalues --    1.04758   1.16243   1.21890   1.36089   1.51827
 Alpha virt. eigenvalues --    1.58434
          Condensed to atoms (all electrons):
              1          2          3          4          5          6
  1  N    6.997343   0.094410  -0.091035   0.007053   0.180289  -0.101810
  2  N    0.094410   7.072308   0.035686  -0.016610  -0.090660  -0.116236
  3  N   -0.091035   0.035686   7.339778   0.288893  -0.086503   0.130110
  4  H    0.007053  -0.016610   0.288893   0.331764   0.004712  -0.012443
  5  N    0.180289  -0.090660  -0.086503   0.004712   7.005682   0.307650
  6  C   -0.101810  -0.116236   0.130110  -0.012443   0.307650   5.130901
  7  H    0.005751   0.002319  -0.042882   0.002824  -0.023904   0.362062
              7
  1  N    0.005751
  2  N    0.002319
  3  N   -0.042882
  4  H    0.002824
  5  N   -0.023904
  6  C    0.362062
  7  H    0.442874
 Total atomic charges:
              1
  1  N   -0.092001
  2  N    0.018783
  3  N   -0.574046
  4  H    0.393807
  5  N   -0.297265
  6  C    0.299765
  7  H    0.250956
 Sum of Mulliken charges=   0.00000
 Atomic charges with hydrogens summed into heavy atoms:
              1
  1  N   -0.092001
  2  N    0.018783
  3  N   -0.180238
  4  H    0.000000
  5  N   -0.297265
  6  C    0.550721
  7  H    0.000000
 Sum of Mulliken charges=   0.00000
 Electronic spatial extent (au):  <R**2>=   258.4895
 Charge=     0.0000 electrons
 Dipole moment (Debye):
    X=     2.7496    Y=     5.1679    Z=     0.0000  Tot=     5.8538
 Quadrupole moment (Debye-Ang):
   XX=   -29.6133   YY=   -27.1757   ZZ=   -28.6362
   XY=     2.0550   XZ=     0.0000   YZ=     0.0000
 Octapole moment (Debye-Ang**2):
  XXX=    13.6092  YYY=    24.6189  ZZZ=     0.0000  XYY=    -0.4755
  XXY=     5.3511  XXZ=     0.0000  XZZ=    -0.5478  YZZ=     0.4958
  YYZ=     0.0000  XYZ=     0.0000
 Hexadecapole moment (Debye-Ang**3):
 XXXX=  -146.1173 YYYY=  -122.7829 ZZZZ=   -25.1931 XXXY=     7.5470
 XXXZ=     0.0000 YYYX=    -0.7695 YYYZ=     0.0000 ZZZX=     0.0000
 ZZZY=     0.0000 XXYY=   -55.4989 XXZZ=   -31.0802 YYZZ=   -29.3635
 XXYZ=     0.0000 YYXZ=     0.0000 ZZXY=    -0.1867
 N-N= 1.640797163082D+02 E-N=-9.300830332918D+02  KE= 2.567928905082D+02
 Symmetry A'   KE= 2.473702720891D+02
 Symmetry A"   KE= 9.422618419055D+00
 1\1\GINC-INDIUM\FOpt\RB3PW91\6-31G\C1H2N4\RDJ3\22-Jun-2000\0\\#B3PW91/
 6-31G OPT FREQ\\1H tetrazole c CH-NH-N=N-N= casno=288948\\0,1\N,-1.169
 9843993,-0.2699431125,0.\N,-0.6984075288,0.9560288862,0.\N,0.676057758
 6,0.827540414,0.\H,1.260698622,1.6461589208,0.\N,-0.1271319665,-1.2027
 393421,0.\C,0.9967823246,-0.4892859072,0.\H,1.9948703824,-0.8866513956
 ,0.\\Version=IBM-RS6000-G98RevA.4\State=1-A'\HF=-258.0335126\RMSD=3.01
 5e-09\RMSF=1.578e-04\Dipole=2.1240651,0.8901521,0.\PG=CS [SG(C1H2N4)]\
 \@


 IF YOU BELIEVE CERTAIN WORDS, YOU BELIEVE THEIR HIDDEN ARGUMENTS.
 WHEN YOU BELIEVE SOMETHING IS RIGHT OR WRONG, TRUE OR FALSE, 
 YOU BELIEVE THE ASSUMPTIONS IN THE WORDS WHICH EXPRESS THE ARGUMENTS.
 SUCH ASSUMPTIONS ARE OFTEN FULL OF HOLES, BUT REMAIN MOST PRECIOUS 
 TO THE CONVINCED.

                 -- THE OPEN-ENDED PROOF FROM THE PANOPLIA PROPHETICA
                    CHILDREN OF DUNE BY FRANK HERBERT
 Job cpu time:  0 days  0 hours  9 minutes 46.2 seconds.
 File lengths (MBytes):  RWF=    6 Int=    0 D2E=    0 Chk=    3 Scr=    1
 Normal termination of Gaussian 98.
 Link1:  Proceeding to internal job step number  2.
 ------------------------------------------------
 #N Geom=AllCheck Guess=TCheck RB3PW91/6-31G Freq
 ------------------------------------------------
 1/10=4,29=7,30=1,38=1/1,3;
 2//2;
 3/5=1,6=6,11=2,25=1,30=1/1,2,3;
 4/5=101,7=1/1;
 5/5=2,42=-6/2;
 8/6=4,11=11,23=2/1;
 11/6=1,8=1,9=11,15=111,16=11/1,2,10;
 10/6=1/2;
 6/7=2,8=2,9=2,10=2,18=1,28=1/1;
 7/8=1,10=1,25=1/1,2,3,16;
 1/10=4,30=1/3;
 99//99;
 ----------------------------------------
 1H tetrazole c CH-NH-N=N-N= casno=288948
 ----------------------------------------
 Redundant internal coordinates taken from checkpointfile:
 /wrk/rdj3/Gau-14754.chk
 Charge =  0 Multiplicity = 1
 N,0,-1.1699843993,-0.2699431125,0.
 N,0,-0.6984075288,0.9560288862,0.
 N,0,0.6760577586,0.827540414,0.
 H,0,1.260698622,1.6461589208,0.
 N,0,-0.1271319665,-1.2027393421,0.
 C,0,0.9967823246,-0.4892859072,0.
 H,0,1.9948703824,-0.8866513956,0.
 Recover connectivity data from disk.

 GradGradGradGradGradGradGradGradGradGradGradGradGradGradGradGradGradGrad
 Berny optimization.
 Initialization pass.
                         ----------------------------
                         !    Initial Parameters    !
                         ! (Angstroms and Degrees)  !
 ------------------------                            -------------------------
 ! Name  Definition              Value          Derivative Info.             !
 -----------------------------------------------------------------------------
 ! R1    R(1,2)                  1.3135         calculate D2E/DX2 analyticall!
 ! R2    R(1,5)                  1.3992         calculate D2E/DX2 analyticall!
 ! R3    R(2,3)                  1.3805         calculate D2E/DX2 analyticall!
 ! R4    R(3,4)                  1.006          calculate D2E/DX2 analyticall!
 ! R5    R(3,6)                  1.3553         calculate D2E/DX2 analyticall!
 ! R6    R(5,6)                  1.3312         calculate D2E/DX2 analyticall!
 ! R7    R(6,7)                  1.0743         calculate D2E/DX2 analyticall!
 ! A1    A(2,1,5)              110.772          calculate D2E/DX2 analyticall!
 ! A2    A(1,2,3)              105.6989         calculate D2E/DX2 analyticall!
 ! A3    A(2,3,4)              120.193          calculate D2E/DX2 analyticall!
 ! A4    A(2,3,6)              109.029          calculate D2E/DX2 analyticall!
 ! A5    A(4,3,6)              130.778          calculate D2E/DX2 analyticall!
 ! A6    A(1,5,6)              105.7813         calculate D2E/DX2 analyticall!
 ! A7    A(3,6,5)              108.7187         calculate D2E/DX2 analyticall!
 ! A8    A(3,6,7)              125.3972         calculate D2E/DX2 analyticall!
 ! A9    A(5,6,7)              125.8841         calculate D2E/DX2 analyticall!
 ! D1    D(5,1,2,3)              0.             calculate D2E/DX2 analyticall!
 ! D2    D(2,1,5,6)              0.             calculate D2E/DX2 analyticall!
 ! D3    D(1,2,3,4)            180.             calculate D2E/DX2 analyticall!
 ! D4    D(1,2,3,6)              0.             calculate D2E/DX2 analyticall!
 ! D5    D(2,3,6,5)              0.             calculate D2E/DX2 analyticall!
 ! D6    D(2,3,6,7)            180.             calculate D2E/DX2 analyticall!
 ! D7    D(4,3,6,5)            180.             calculate D2E/DX2 analyticall!
 ! D8    D(4,3,6,7)              0.             calculate D2E/DX2 analyticall!
 ! D9    D(1,5,6,3)              0.             calculate D2E/DX2 analyticall!
 ! D10   D(1,5,6,7)            180.             calculate D2E/DX2 analyticall!
 -----------------------------------------------------------------------------
 Trust Radius=3.00D-01 FncErr=1.00D-07 GrdErr=1.00D-07
 Number of steps in this run=  36 maximum allowed number of steps= 100.
 GradGradGradGradGradGradGradGradGradGradGradGradGradGradGradGradGradGrad

                          Input orientation:                          
 ---------------------------------------------------------------------
 Center     Atomic     Atomic              Coordinates (Angstroms)
 Number     Number      Type              X           Y           Z
 ---------------------------------------------------------------------
    1          7             0       -1.169984   -0.269943    0.000000
    2          7             0       -0.698408    0.956029    0.000000
    3          7             0        0.676058    0.827540    0.000000
    4          1             0        1.260699    1.646159    0.000000
    5          7             0       -0.127132   -1.202739    0.000000
    6          6             0        0.996782   -0.489286    0.000000
    7          1             0        1.994870   -0.886651    0.000000
 ---------------------------------------------------------------------
                    Distance matrix (angstroms):
                    1          2          3          4          5
     1  N    0.000000
     2  N    1.313542   0.000000
     3  N    2.147636   1.380458   0.000000
     4  H    3.095104   2.077108   1.005953   0.000000
     5  N    1.399160   2.233078   2.183380   3.168958   0.000000
     6  C    2.177841   2.227690   1.355321   2.151692   1.331240
     7  H    3.224381   3.263314   2.162804   2.637070   2.145415
                    6          7
     6  C    0.000000
     7  H    1.074281   0.000000
                           Interatomic angles:
       N1-N2-N3=105.6989       N1-N2-H4=130.4452       N1-N3-H4=156.2654
       N2-N3-H4=120.193        N2-N1-N5=110.772        N3-N1-N5= 72.5433
       N2-N3-N5= 73.7566       H4-N2-N5= 94.5833       H4-N3-N5=166.0504
       N2-N1-C6= 74.7409       N1-N3-C6= 72.9566       N2-N3-C6=109.029 
       N1-C6-H4= 91.265        N2-H4-C6= 63.5489       H4-N3-C6=130.778 
       N1-N5-C6=105.7813       N2-C6-N5= 72.8579       N3-C6-N5=108.7187
       H4-C6-N5=129.4525       N1-N3-H7= 96.8411       N2-N3-H7=132.9135
       N2-H4-H7= 86.7593       H4-N3-H7=106.8935       N1-N5-H7=129.7161
       N2-N5-H7= 96.3501       N3-H7-N5= 60.8995       H4-H7-N5= 82.3073
       N1-C6-H7=164.0716       N2-C6-H7=161.258        N3-C6-H7=125.3972
       H4-C6-H7=104.6635       N5-C6-H7=125.8841
 Stoichiometry    CH2N4
 Framework group  CS[SG(CH2N4)]
 Deg. of freedom   11
 Full point group                 CS      NOp   2
 Largest Abelian subgroup         CS      NOp   2
 Largest concise Abelian subgroup C1      NOp   1
                         Standard orientation:                         
 ---------------------------------------------------------------------
 Center     Atomic     Atomic              Coordinates (Angstroms)
 Number     Number      Type              X           Y           Z
 ---------------------------------------------------------------------
    1          7             0       -0.735282   -0.949259    0.000000
    2          7             0       -1.145711    0.298515    0.000000
[...]
 Frc consts  --     1.0918                 3.6743                 0.3645
 IR Inten    --    12.2194                 0.0916               162.1383
 Raman Activ --     0.0000                 0.0000                 0.0000
 Depolar     --     0.0000                 0.0000                 0.0000
 Atom AN      X      Y      Z        X      Y      Z        X      Y      Z
   1   7     0.00   0.00  -0.01     0.00   0.00   0.59     0.00   0.00  -0.03
   2   7     0.00   0.00   0.23     0.00   0.00  -0.45     0.00   0.00   0.03
   3   7     0.00   0.00  -0.31     0.00   0.00   0.16     0.00   0.00   0.08
   4   1     0.00   0.00  -0.15     0.00   0.00  -0.10     0.00   0.00  -1.00
   5   7     0.00   0.00  -0.18     0.00   0.00  -0.49     0.00   0.00  -0.02
   6   6     0.00   0.00   0.26     0.00   0.00   0.20     0.00   0.00   0.02
   7   1     0.00   0.00   0.85     0.00   0.00   0.36     0.00   0.00  -0.02
                     4                      5                      6
                    ?A                     ?A                     A'
 Frequencies --   871.5949               885.8074               955.2253
 Red. masses --     8.4581                 1.3957                 5.7464
 Frc consts  --     3.7858                 0.6452                 3.0893
 IR Inten    --     8.5435                15.7220                17.1884
 Raman Activ --     0.0000                 0.0000                 0.0000
 Depolar     --     0.0000                 0.0000                 0.0000
 Atom AN      X      Y      Z        X      Y      Z        X      Y      Z
   1   7     0.43  -0.15   0.00     0.00   0.00   0.02     0.04  -0.04   0.00
   2   7     0.02  -0.10   0.00     0.00   0.00  -0.01     0.35   0.27   0.00
   3   7     0.12   0.08   0.00     0.00   0.00   0.05    -0.26  -0.29   0.00
   4   1     0.03   0.07   0.00     0.00   0.00  -0.03    -0.55  -0.32   0.00
   5   7    -0.56   0.14   0.00     0.00   0.00   0.03    -0.12   0.06   0.00
   6   6    -0.04   0.08   0.00     0.00   0.00  -0.18     0.03  -0.01   0.00
   7   1     0.17  -0.62  -0.01     0.00   0.00   0.98    -0.13   0.47   0.00
                     7                      8                      9
                    A'                     A'                     A'
 Frequencies --  1012.4052              1040.4361              1151.9180
 Red. masses --     6.7004                 4.7465                 2.1112
 Frc consts  --     4.0463                 3.0273                 1.6505
 IR Inten    --     4.8512                13.1784                13.7946
 Raman Activ --     0.0000                 0.0000                 0.0000
 Depolar     --     0.0000                 0.0000                 0.0000
 Atom AN      X      Y      Z        X      Y      Z        X      Y      Z
   1   7     0.33   0.09   0.00    -0.17  -0.15   0.00     0.08   0.19   0.00
   2   7     0.01   0.18   0.00     0.33  -0.09   0.00    -0.03  -0.05   0.00
   3   7    -0.12   0.16   0.00    -0.03   0.32   0.00    -0.14   0.01   0.00
   4   1     0.44   0.20   0.00    -0.62   0.29   0.00    -0.54  -0.02   0.00
   5   7     0.09  -0.35   0.00     0.01  -0.05   0.00     0.03   0.00   0.00
   6   6    -0.36  -0.12   0.00    -0.12   0.00   0.00     0.09  -0.12   0.00
   7   1    -0.50   0.25   0.00     0.02  -0.49   0.00     0.28  -0.73   0.00
                    10                     11                     12
                    A'                     A'                     A'
 Frequencies --  1201.3548              1251.9544              1422.6246
 Red. masses --     4.0458                 2.7992                 3.1307
 Frc consts  --     3.4403                 2.5850                 3.7332
 IR Inten    --    11.9605                 1.6188                 3.9164
 Raman Activ --     0.0000                 0.0000                 0.0000
 Depolar     --     0.0000                 0.0000                 0.0000
 Atom AN      X      Y      Z        X      Y      Z        X      Y      Z
   1   7    -0.02   0.31   0.00    -0.02   0.06   0.00     0.01  -0.02   0.00
   2   7     0.14  -0.28   0.00     0.10  -0.05   0.00     0.03  -0.07   0.00
   3   7     0.10  -0.06   0.00     0.01  -0.11   0.00    -0.13   0.14   0.00
   4   1    -0.23  -0.10   0.00     0.68  -0.09   0.00     0.53   0.21   0.00
   5   7    -0.11  -0.07   0.00     0.08   0.22   0.00    -0.05   0.15   0.00
   6   6    -0.08   0.06   0.00    -0.25  -0.06   0.00     0.14  -0.31   0.00
   7   1    -0.31   0.78   0.00    -0.12  -0.60   0.00    -0.16   0.68   0.00
                    13                     14                     15
                    A'                     A'                     A'
 Frequencies --  1492.8519              3369.4730              3727.8704
 Red. masses --     2.1375                 1.1024                 1.0846
 Frc consts  --     2.8066                 7.3742                 8.8803
 IR Inten    --    38.5279                 4.2562               106.8214
 Raman Activ --     0.0000                 0.0000                 0.0000
 Depolar     --     0.0000                 0.0000                 0.0000
 Atom AN      X      Y      Z        X      Y      Z        X      Y      Z
   1   7     0.04  -0.03   0.00     0.00   0.00   0.00     0.00   0.00   0.00
   2   7    -0.07   0.06   0.00     0.00   0.00   0.00     0.00   0.00   0.00
   3   7     0.16   0.00   0.00     0.00   0.00   0.00     0.01  -0.08   0.00
   4   1    -0.88  -0.08   0.00     0.01   0.03   0.00    -0.07   0.99   0.00
   5   7     0.04   0.11   0.00     0.00   0.00   0.00     0.00   0.00   0.00
   6   6    -0.11  -0.17   0.00     0.09   0.03   0.00     0.00   0.00   0.00
   7   1    -0.28   0.24   0.00    -0.95  -0.30   0.00     0.02   0.00   0.00

 -------------------
 - Thermochemistry -
 -------------------
 Temperature   298.150 Kelvin.  Pressure   1.00000 Atm.
 Atom  1 has atomic number  7 and mass  14.00307
 Atom  2 has atomic number  7 and mass  14.00307
 Atom  3 has atomic number  7 and mass  14.00307
 Atom  4 has atomic number  1 and mass   1.00783
 Atom  5 has atomic number  7 and mass  14.00307
 Atom  6 has atomic number  6 and mass  12.00000
 Atom  7 has atomic number  1 and mass   1.00783
 Molecular mass:    70.02795 amu.
 Principal axes and moments of inertia in atomic units:
                           1         2         3
     EIGENVALUES --   176.77346 180.56315 357.33661
           X            0.99277   0.12004   0.00000
           Y           -0.12004   0.99277   0.00000
           Z            0.00000   0.00000   1.00000
 THIS MOLECULE IS AN ASYMMETRIC TOP.
 ROTATIONAL SYMMETRY NUMBER  1.
 ROTATIONAL TEMPERATURES (KELVIN)      0.48997     0.47968     0.24239
 ROTATIONAL CONSTANTS (GHZ)           10.20934     9.99507     5.05054
 Zero-point vibrational energy     122716.1 (Joules/Mol)
                                   29.32986 (Kcal/Mol)
 VIBRATIONAL TEMPERATURES:    968.03  1033.81  1067.08  1254.02  1274.47
          (KELVIN)           1374.35  1456.62  1496.95  1657.34  1728.47
                             1801.27  2046.83  2147.87  4847.89  5363.54
 
 Zero-point correction=                           0.046740 (Hartree/Particle)
 Thermal correction to Energy=                    0.050189
 Thermal correction to Enthalpy=                  0.051133
 Thermal correction to Gibbs Free Energy=         0.020616
 Sum of electronic and zero-point Energies=           -257.986772
 Sum of electronic and thermal Energies=              -257.983324
 Sum of electronic and thermal Enthalpies=            -257.982379
 Sum of electronic and thermal Free Energies=         -258.012896
 
                     E (Thermal)             CV                S
                      KCAL/MOL        CAL/MOL-KELVIN    CAL/MOL-KELVIN
 TOTAL                   31.494             11.368             64.228
 ELECTRONIC               0.000              0.000              0.000
 TRANSLATIONAL            0.889              2.981             38.656
 ROTATIONAL               0.889              2.981             23.949
 VIBRATIONAL             29.717              5.406              1.623
                       Q            LOG10(Q)             LN(Q)
 TOTAL BOT       0.328995D-09         -9.482811        -21.834979
 TOTAL V=0       0.103752D+13         12.015997         27.667855
 VIB (BOT)       0.373603D-21        -21.427590        -49.338849
 VIB (V=0)       0.117820D+01          0.071218          0.163985
 ELECTRONIC      0.100000D+01          0.000000          0.000000
 TRANSLATIONAL   0.230339D+08          7.362368         16.952478
 ROTATIONAL      0.382306D+05          4.582411         10.551392
 ***** Axes restored to original set *****
 -------------------------------------------------------------------
 Center     Atomic                   Forces (Hartrees/Bohr)
 Number     Number              X              Y              Z
 -------------------------------------------------------------------
    1          7           0.000004513    0.000320650    0.000000000
    2          7          -0.000437439   -0.000211288    0.000000000
    3          7           0.000334966   -0.000059061    0.000000000
    4          1           0.000006671    0.000038379    0.000000000
    5          7          -0.000057318   -0.000155974    0.000000000
    6          6           0.000159657    0.000109388    0.000000000
    7          1          -0.000011049   -0.000042094    0.000000000
 -------------------------------------------------------------------
 Cartesian Forces:  Max     0.000437439 RMS     0.000157813

 GradGradGradGradGradGradGradGradGradGradGradGradGradGradGradGradGradGrad
 Berny optimization.
 Internal  Forces:  Max     0.000345782 RMS     0.000094433
 Search for a local minimum.
 Step number   1 out of a maximum of  36
 All quantities printed in internal units (Hartrees-Bohrs-Radians)
 Second derivative matrix not updated -- analytic derivatives used.
     Eigenvalues ---    0.01195   0.02759   0.07417   0.07845   0.10213
     Eigenvalues ---    0.11009   0.15983   0.19708   0.32456   0.38105
     Eigenvalues ---    0.39964   0.45326   0.49470   0.55593   0.62725
     Eigenvalues --- 1000.000001000.000001000.000001000.000001000.00000
     Eigenvalues --- 1000.000001000.000001000.000001000.000001000.00000
     Eigenvalues --- 1000.00000
 Angle between quadratic step and forces=  26.44 degrees.
 Linear search not attempted -- first point.
 Iteration  1 RMS(Cart)=  0.00032612 RMS(Int)=  0.00000009
 Iteration  2 RMS(Cart)=  0.00000008 RMS(Int)=  0.00000002
 Variable       Old X    -DE/DX   Delta X   Delta X   Delta X     New X
                                 (Linear)    (Quad)   (Total)
    R1        2.48223  -0.00024   0.00000  -0.00105  -0.00105   2.48118
    R2        2.64403   0.00013   0.00000   0.00060   0.00060   2.64463
    R3        2.60869   0.00035   0.00000   0.00155   0.00155   2.61024
    R4        1.90098   0.00003   0.00000   0.00006   0.00006   1.90104
    R5        2.56119   0.00000   0.00000  -0.00021  -0.00021   2.56098
    R6        2.51568   0.00016   0.00000   0.00035   0.00035   2.51603
    R7        2.03010   0.00001   0.00000   0.00002   0.00002   2.03012
    A1        1.93334   0.00004   0.00000   0.00037   0.00037   1.93370
    A2        1.84479   0.00002   0.00000  -0.00001  -0.00001   1.84479
    A3        2.09776   0.00000   0.00000  -0.00019  -0.00019   2.09758
    A4        1.90292  -0.00004   0.00000  -0.00035  -0.00035   1.90257
    A5        2.28251   0.00004   0.00000   0.00054   0.00054   2.28304
    A6        1.84623   0.00002   0.00000  -0.00026  -0.00026   1.84597
    A7        1.89750  -0.00005   0.00000   0.00025   0.00025   1.89775
    A8        2.18859   0.00006   0.00000   0.00038   0.00038   2.18897
    A9        2.19709  -0.00002   0.00000  -0.00063  -0.00063   2.19646
    D1        0.00000   0.00000   0.00000   0.00000   0.00000   0.00000
    D2        0.00000   0.00000   0.00000   0.00000   0.00000   0.00000
    D3        3.14159   0.00000   0.00000   0.00000   0.00000   3.14159
    D4        0.00000   0.00000   0.00000   0.00000   0.00000   0.00000
    D5        0.00000   0.00000   0.00000   0.00000   0.00000   0.00000
    D6        3.14159   0.00000   0.00000   0.00000   0.00000   3.14159
    D7        3.14159   0.00000   0.00000   0.00000   0.00000   3.14159
    D8        0.00000   0.00000   0.00000   0.00000   0.00000   0.00000
    D9        0.00000   0.00000   0.00000   0.00000   0.00000   0.00000
   D10        3.14159   0.00000   0.00000   0.00000   0.00000   3.14159
         Item               Value     Threshold  Converged?
 Maximum Force            0.000346     0.000450     YES
 RMS     Force            0.000094     0.000300     YES
 Maximum Displacement     0.000972     0.001800     YES
 RMS     Displacement     0.000326     0.001200     YES
 Predicted change in Energy=-4.959311D-07
 Optimization completed.
    -- Stationary point found.
                         ----------------------------
                         !   Optimized Parameters   !
                         ! (Angstroms and Degrees)  !
 ------------------------                            -------------------------
 ! Name  Definition              Value          Derivative Info.             !
 -----------------------------------------------------------------------------
 ! R1    R(1,2)                  1.3135         -DE/DX =   -0.0002           !
 ! R2    R(1,5)                  1.3992         -DE/DX =    0.0001           !
 ! R3    R(2,3)                  1.3805         -DE/DX =    0.0003           !
 ! R4    R(3,4)                  1.006          -DE/DX =    0.               !
 ! R5    R(3,6)                  1.3553         -DE/DX =    0.               !
 ! R6    R(5,6)                  1.3312         -DE/DX =    0.0002           !
 ! R7    R(6,7)                  1.0743         -DE/DX =    0.               !
 ! A1    A(2,1,5)              110.772          -DE/DX =    0.               !
 ! A2    A(1,2,3)              105.6989         -DE/DX =    0.               !
 ! A3    A(2,3,4)              120.193          -DE/DX =    0.               !
 ! A4    A(2,3,6)              109.029          -DE/DX =    0.               !
 ! A5    A(4,3,6)              130.778          -DE/DX =    0.               !
 ! A6    A(1,5,6)              105.7813         -DE/DX =    0.               !
 ! A7    A(3,6,5)              108.7187         -DE/DX =    0.               !
 ! A8    A(3,6,7)              125.3972         -DE/DX =    0.0001           !
 ! A9    A(5,6,7)              125.8841         -DE/DX =    0.               !
 ! D1    D(5,1,2,3)              0.             -DE/DX =    0.               !
 ! D2    D(2,1,5,6)              0.             -DE/DX =    0.               !
 ! D3    D(1,2,3,4)            180.             -DE/DX =    0.               !
 ! D4    D(1,2,3,6)              0.             -DE/DX =    0.               !
 ! D5    D(2,3,6,5)              0.             -DE/DX =    0.               !
 ! D6    D(2,3,6,7)            180.             -DE/DX =    0.               !
 ! D7    D(4,3,6,5)            180.             -DE/DX =    0.               !
 ! D8    D(4,3,6,7)              0.             -DE/DX =    0.               !
 ! D9    D(1,5,6,3)              0.             -DE/DX =    0.               !
 ! D10   D(1,5,6,7)            180.             -DE/DX =    0.               !
 -----------------------------------------------------------------------------
 GradGradGradGradGradGradGradGradGradGradGradGradGradGradGradGradGradGrad

 1\1\GINC-INDIUM\Freq\RB3PW91\6-31G\C1H2N4\RDJ3\22-Jun-2000\0\\#N GEOM=
 ALLCHECK GUESS=TCHECK RB3PW91/6-31G FREQ\\1H tetrazole c CH-NH-N=N-N= 
 casno=288948\\0,1\N,-1.1699843993,-0.2699431125,0.\N,-0.6984075288,0.9
 560288862,0.\N,0.6760577586,0.827540414,0.\H,1.260698622,1.6461589208,
 0.\N,-0.1271319665,-1.2027393421,0.\C,0.9967823246,-0.4892859072,0.\H,
 1.9948703824,-0.8866513956,0.\\Version=IBM-RS6000-G98RevA.4\State=1-A'
 \HF=-258.0335126\RMSD=3.456e-09\RMSF=1.578e-04\Dipole=2.1240646,0.8901
 525,0.\DipoleDeriv=0.0676202,-0.1001365,0.0003293,-0.1754048,0.0066044
 ,-0.0003459,0.0001923,0.0002846,-0.1744971,0.2856918,0.1895007,-0.0000
 015,0.1908798,-0.2618372,-0.0000769,-0.0000295,-0.0003562,-0.0779749,-
 0.4459788,-0.2879669,0.0002466,-0.1977773,-0.3067099,0.0001991,0.00015
 18,0.0001791,-0.254211,0.2409424,0.0358805,-0.0000171,0.0325632,0.2815
 278,-0.0000419,0.0000017,0.0000269,0.4194355,-0.4159125,0.1419707,-0.0
 00183,-0.0147717,-0.2010016,0.0004073,0.000159,0.0000081,-0.1972721,0.
 1835795,0.0069958,-0.0004002,0.1653963,0.3421699,-0.0001444,-0.000251,
 -0.0001208,0.0841154,0.0840579,0.0137559,0.000026,-0.0008855,0.1392469
 ,0.0000027,-0.0002242,-0.0000217,0.2004042\Polar=38.6905771,-0.183592,
 36.3247647,-0.000464,0.0003226,13.9653154\PG=CS [SG(C1H2N4)]\NImag=0\\
 0.48357339,0.09812321,0.37748280,-0.00001893,0.00001661,0.11707010,-0.
 10948356,-0.09353023,0.00000919,0.34982730,-0.02235385,-0.25616196,0.0
 0000434,-0.04381682,0.54012047,0.00000810,-0.00001246,-0.09111619,-0.0
 0000965,0.00000239,0.11012141,-0.12034133,-0.10044643,-0.00001124,-0.1
 5171947,0.00841825,0.00000333,0.60903100,-0.02996456,-0.06248227,-0.00
 000851,0.04606966,-0.11195065,0.00000040,0.22453312,0.91721595,-0.0000
 0256,0.00000209,0.02507316,0.00000592,-0.00000020,-0.07257494,-0.00000
 255,0.00000008,0.11741038,-0.00983572,-0.00010237,0.00000020,-0.005801
 11,-0.03388238,0.00000204,-0.20667204,-0.19018785,0.00000044,0.2076208
 2,0.00948260,0.00211941,0.00000136,0.00600057,0.01155102,0.00000162,-0
 .19761024,-0.35134405,0.00000093,0.20351369,0.34725938,0.00000248,-0.0
 0000204,0.00710724,0.00000069,-0.00000104,-0.00820437,0.00000199,0.000
 00191,-0.01873181,-0.00000031,-0.00000049,0.01876151,-0.11585050,0.038
 42009,0.00001136,-0.01352810,0.08252414,-0.00000257,0.00074152,-0.1088
 9773,0.00000093,-0.00094521,-0.00013841,-0.00000170,0.42409351,-0.0181
 1497,-0.08135216,-0.00002142,-0.01512695,-0.12524099,0.00001187,0.0002
 3944,-0.08645578,-0.00000301,0.00956633,-0.00469678,0.00000273,0.12069
 438,0.46598850,-0.00000172,-0.00000573,-0.08583362,0.00000346,0.000004
 02,0.03325172,0.00000190,0.00000127,0.02215746,-0.00000070,-0.00000107
 ,0.00761121,0.00000331,0.00000273,0.10687623,-0.12653239,0.05756227,0.
 00000903,-0.06976066,0.01411375,-0.00000303,-0.13749230,0.06333008,-0.
 00000274,0.01582588,-0.02201899,-0.00000325,-0.28083806,-0.10790695,-0
 .00000735,0.93943033,-0.03120607,0.02190215,0.00000824,0.10230570,-0.0
 5276583,-0.00000340,0.03193608,-0.29850138,0.00000029,0.01132303,-0.00
 436319,-0.00000113,-0.11319407,-0.18138395,-0.00000081,-0.11887308,0.6
 1455971,0.00000069,0.00000754,0.01866901,-0.00000735,-0.00000333,0.022
 82398,-0.00000317,-0.00000247,-0.07195618,0.00000095,0.00000143,-0.005
 65621,-0.00000321,-0.00000464,-0.07970012,0.00001356,0.00000107,0.1480
 7894,-0.00152988,-0.00002654,0.00000039,0.00046559,-0.00500309,0.00000
 177,0.00645260,-0.00488273,0.00000056,-0.00019261,0.00077079,0.0000001
 0,-0.01367315,0.01064873,0.00000110,-0.34063280,0.11770840,-0.00000148
 ,0.34911026,-0.00596638,-0.00150796,-0.00000061,-0.00190193,-0.0055520
 6,-0.00000042,0.03292977,-0.00648182,-0.00000019,-0.00023044,-0.000525
 78,0.00000006,-0.01940840,0.01314116,-0.00000040,0.11379294,-0.0994475
 1,0.00000042,-0.11921556,0.10037398,0.00001193,-0.00000602,0.00903030,
 -0.00000227,-0.00000617,0.00569839,0.00000973,0.00000732,-0.00137807,-
 0.00000263,-0.00000377,-0.00088757,-0.00000811,0.00001174,-0.00436288,
 -0.00000623,-0.00000425,-0.03225942,-0.00000244,0.00000115,0.02415925\
 \-0.00000451,-0.00032065,0.,0.00043744,0.00021129,0.,-0.00033497,0.000
 05906,0.,-0.00000667,-0.00003838,0.,0.00005732,0.00015597,0.,-0.000159
 66,-0.00010939,0.,0.00001105,0.00004209,0.\\\@


 HONESTY IN A LAWYER IS LIKE A HEN'S HIND LEGS.
  -- MAGNUS OLESON, LAKE WOBEGON PATRIARCH, C.1875
 Job cpu time:  0 days  0 hours  4 minutes 32.6 seconds.
 File lengths (MBytes):  RWF=   10 Int=    0 D2E=    0 Chk=    3 Scr=    1
 Normal termination of Gaussian 98.
