 Entering Gaussian System, Link 0=g98
 Initial command:
 /usr/local/apps/g98a6/g98/l1.exe /wrk/rdj3/Gau-12730.inp -scrdir=/wrk/rdj3/
 Entering Link 1 = /usr/local/apps/g98a6/g98/l1.exe PID=     17294.
  
 Copyright (c) 1988,1990,1992,1993,1995,1998 Gaussian, Inc.
                  All Rights Reserved.
  
 This is part of the Gaussian(R) 98 program.  It is based on
 the Gaussian 94(TM) system (copyright 1995 Gaussian, Inc.),
 the Gaussian 92(TM) system (copyright 1992 Gaussian, Inc.),
 the Gaussian 90(TM) system (copyright 1990 Gaussian, Inc.),
 the Gaussian 88(TM) system (copyright 1988 Gaussian, Inc.),
 the Gaussian 86(TM) system (copyright 1986 Carnegie Mellon
 University), and the Gaussian 82(TM) system (copyright 1983
 Carnegie Mellon University). Gaussian is a federally registered
 trademark of Gaussian, Inc.
  
 This software contains proprietary and confidential information,
 including trade secrets, belonging to Gaussian, Inc.
  
 This software is provided under written license and may be
 used, copied, transmitted, or stored only in accord with that
 written license.
  
 The following legend is applicable only to US Government
 contracts under DFARS:
  
                    RESTRICTED RIGHTS LEGEND
  
 Use, duplication or disclosure by the US Government is subject
 to restrictions as set forth in subparagraph (c)(1)(ii) of the
 Rights in Technical Data and Computer Software clause at DFARS
 252.227-7013.
  
 Gaussian, Inc.
 Carnegie Office Park, Building 6, Pittsburgh, PA 15106 USA
  
 The following legend is applicable only to US Government
 contracts under FAR:
  
                    RESTRICTED RIGHTS LEGEND
  
 Use, reproduction and disclosure by the US Government is subject
 to restrictions as set forth in subparagraph (c) of the
 Commercial Computer Software - Restricted Rights clause at FAR
 52.227-19.
  
 Gaussian, Inc.
 Carnegie Office Park, Building 6, Pittsburgh, PA 15106 USA
  
  
 ---------------------------------------------------------------
 Warning -- This program may not be used in any manner that
 competes with the business of Gaussian, Inc. or will provide
 assistance to any competitor of Gaussian, Inc.  The licensee
 of this program is prohibited from giving any competitor of
 Gaussian, Inc. access to this program.  By using this program,
 the user acknowledges that Gaussian, Inc. is engaged in the
 business of creating and licensing software in the field of
 computational chemistry and represents and warrants to the
 licensee that it is not a competitor of Gaussian, Inc. and that
 it will not use this program in any manner prohibited above.
 ---------------------------------------------------------------
  

 Cite this work as:
 Gaussian 98, Revision A.6,
 M. J. Frisch, G. W. Trucks, H. B. Schlegel, G. E. Scuseria, 
 M. A. Robb, J. R. Cheeseman, V. G. Zakrzewski, J. A. Montgomery, Jr., 
 R. E. Stratmann, J. C. Burant, S. Dapprich, J. M. Millam, 
 A. D. Daniels, K. N. Kudin, M. C. Strain, O. Farkas, J. Tomasi, 
 V. Barone, M. Cossi, R. Cammi, B. Mennucci, C. Pomelli, C. Adamo, 
 S. Clifford, J. Ochterski, G. A. Petersson, P. Y. Ayala, Q. Cui, 
 K. Morokuma, D. K. Malick, A. D. Rabuck, K. Raghavachari, 
 J. B. Foresman, J. Cioslowski, J. V. Ortiz, B. B. Stefanov, G. Liu, 
 A. Liashenko, P. Piskorz, I. Komaromi, R. Gomperts, R. L. Martin, 
 D. J. Fox, T. Keith, M. A. Al-Laham, C. Y. Peng, A. Nanayakkara, 
 C. Gonzalez, M. Challacombe, P. M. W. Gill, B. Johnson, W. Chen, 
 M. W. Wong, J. L. Andres, C. Gonzalez, M. Head-Gordon, 
 E. S. Replogle, and J. A. Pople, 
 Gaussian, Inc., Pittsburgh PA, 1998.

 **********************************************
 Gaussian 98:  IBM-RS6000-G98RevA.6 19-Oct-1998
                   8-Sep-2000 
 **********************************************
 %mem=24000000
 ----------------
 #HF/SDD opt freq
 ----------------
 1/18=20,38=1/1,3;
 2/9=110,17=6,18=5/2;
 3/5=17,6=7,11=9,16=1,25=1,30=1/1,2,3;
 4/11=1/1;
 5/5=2,38=4/2;
 6/7=2,8=2,9=2,10=2,28=1/1;
 7//1,2,3,16;
 1/18=20/3(1);
 99//99;
 2/9=110/2;
 3/5=17,6=7,11=9,16=1,25=1,30=1/1,2,3;
 4/5=5,11=1,16=2/1;
 5/5=2,38=4/2;
 7//1,2,3,16;
 1/18=20/3(-5);
 2/9=110/2;
 6/7=2,8=2,9=2,10=2,19=2,28=1/1;
 99/9=1/99;
 ----------------------------------------
 1H tetrazole c CH-NH-N=N-N= casno=288948
 ----------------------------------------
 Symbolic Z-matrix:
 Charge =  0 Multiplicity = 1
 7                    -1.12329  -0.25456   0. 
 7                    -0.67158   0.91328   0. 
 7                     0.65055   0.80984   0. 
 1                     1.224     1.62189   0. 
 7                    -0.13465  -1.16105   0. 
 6                     0.96218  -0.48332   0. 
 1                     1.95569  -0.87454   0. 

 GradGradGradGradGradGradGradGradGradGradGradGradGradGradGradGradGradGrad
 Berny optimization.
 Initialization pass.
                         ----------------------------
                         !    Initial Parameters    !
                         ! (Angstroms and Degrees)  !
 ------------------------                            -------------------------
 ! Name  Definition              Value          Derivative Info.             !
 -----------------------------------------------------------------------------
 ! R1    R(1,2)                  1.2522         estimate D2E/DX2             !
 ! R2    R(1,5)                  1.3413         estimate D2E/DX2             !
 ! R3    R(2,3)                  1.3262         estimate D2E/DX2             !
 ! R4    R(3,4)                  0.9941         estimate D2E/DX2             !
 ! R5    R(3,6)                  1.3302         estimate D2E/DX2             !
 ! R6    R(5,6)                  1.2893         estimate D2E/DX2             !
 ! R7    R(6,7)                  1.0678         estimate D2E/DX2             !
 ! A1    A(2,1,5)              111.3714         estimate D2E/DX2             !
 ! A2    A(1,2,3)              106.673          estimate D2E/DX2             !
 ! A3    A(2,3,4)              120.7559         estimate D2E/DX2             !
 ! A4    A(2,3,6)              108.0227         estimate D2E/DX2             !
 ! A5    A(4,3,6)              131.2214         estimate D2E/DX2             !
 ! A6    A(1,5,6)              105.77           estimate D2E/DX2             !
 ! A7    A(3,6,5)              108.1628         estimate D2E/DX2             !
 ! A8    A(3,6,7)              125.0426         estimate D2E/DX2             !
 ! A9    A(5,6,7)              126.7945         estimate D2E/DX2             !
 ! D1    D(5,1,2,3)              0.             estimate D2E/DX2             !
 ! D2    D(2,1,5,6)              0.             estimate D2E/DX2             !
 ! D3    D(1,2,3,4)            180.             estimate D2E/DX2             !
 ! D4    D(1,2,3,6)              0.             estimate D2E/DX2             !
 ! D5    D(2,3,6,5)              0.             estimate D2E/DX2             !
 ! D6    D(2,3,6,7)            180.             estimate D2E/DX2             !
 ! D7    D(4,3,6,5)            180.             estimate D2E/DX2             !
 ! D8    D(4,3,6,7)              0.             estimate D2E/DX2             !
 ! D9    D(1,5,6,3)              0.             estimate D2E/DX2             !
 ! D10   D(1,5,6,7)            180.             estimate D2E/DX2             !
 -----------------------------------------------------------------------------
 Trust Radius=3.00D-01 FncErr=1.00D-07 GrdErr=1.00D-07
 Number of steps in this run=  36 maximum allowed number of steps= 100.
 GradGradGradGradGradGradGradGradGradGradGradGradGradGradGradGradGradGrad

                          Input orientation:                          
 ---------------------------------------------------------------------
 Center     Atomic     Atomic              Coordinates (Angstroms)
 Number     Number      Type              X           Y           Z
 ---------------------------------------------------------------------
    1          7             0       -1.123293   -0.254560    0.000000
    2          7             0       -0.671576    0.913277    0.000000
    3          7             0        0.650545    0.809842    0.000000
    4          1             0        1.224004    1.621891    0.000000
    5          7             0       -0.134646   -1.161053    0.000000
    6          6             0        0.962183   -0.483316    0.000000
    7          1             0        1.955691   -0.874535    0.000000
 ---------------------------------------------------------------------
                    Distance matrix (angstroms):
                    1          2          3          4          5
     1  N    0.000000
     2  N    1.252155   0.000000
     3  N    2.068684   1.326161   0.000000
     4  H    3.005141   2.023699   0.994122   0.000000
     5  N    1.341325   2.142694   2.121545   3.096887   0.000000
     6  C    2.097985   2.149335   1.330179   2.121426   1.289326
     7  H    3.140782   3.177861   2.130852   2.601444   2.109882
                    6          7
     6  C    0.000000
     7  H    1.067760   0.000000
 Stoichiometry    CH2N4
 Framework group  CS[SG(CH2N4)]
 Deg. of freedom   11
 Full point group                 CS      NOp   2
 Largest Abelian subgroup         CS      NOp   2
 Largest concise Abelian subgroup C1      NOp   1
                         Standard orientation:                         
 ---------------------------------------------------------------------
 Center     Atomic     Atomic              Coordinates (Angstroms)
 Number     Number      Type              X           Y           Z
 ---------------------------------------------------------------------
    1          7             0       -0.716312   -0.901934    0.000000
    2          7             0       -1.095520    0.291420    0.000000
    3          7             0        0.000000    1.038775    0.000000
    4          1             0       -0.061479    2.030994    0.000000
    5          7             0        0.622151   -0.989495    0.000000
    6          6             0        1.052813    0.225779    0.000000
    7          1             0        2.072370    0.542976    0.000000
 ---------------------------------------------------------------------
 Rotational constants (GHZ):     10.9198679     10.7343949      5.4131685
 Isotopes: N-14,N-14,N-14,H-1,N-14,C-12,H-1
 Standard basis: SDD (6D, 10F)
 There are    44 symmetry adapted basis functions of A'  symmetry.
 There are    10 symmetry adapted basis functions of A"  symmetry.
 Crude estimate of integral set expansion from redundant integrals=1.000.
 Integral buffers will be    262144 words long.
 Raffenetti 1 integral format.
 Two-electron integral symmetry is turned on.
    54 basis functions      128 primitive gaussians
    18 alpha electrons       18 beta electrons
       nuclear repulsion energy       169.8288422228 Hartrees.
 One-electron integrals computed using PRISM.
   1 Symmetry operations used in ECPInt.
 ECPInt:  NShTT=     595 NPrTT=    3192 LenC2=     593 LenP2D=    2558.
 LDataN:  DoStor=F MaxTD1= 2 Len=   12
 LDataN:  DoStor=T MaxTD1= 2 Len=   12
 NBasis=    54 RedAO= T  NBF=    44    10
 NBsUse=    54 1.00D-04 NBFU=    44    10
 Projected Huckel Guess.
 Initial guess orbital symmetries:
       Occupied  (A') (A') (A') (A') (A') (A') (A') (A') (A') (A')
                 (A') (A") (A') (A") (A') (A") (A') (A')
       Virtual   (A") (A") (A') (A') (A') (A') (A') (A') (A') (A')
                 (A') (A') (A') (A') (A') (A') (A') (A') (A') (A')
                 (A') (A') (A') (A') (A') (A') (A') (A') (A') (A')
                 (A') (A") (A") (A") (A") (A")
 Requested convergence on RMS density matrix=1.00D-08 within  64 cycles.
 Requested convergence on MAX density matrix=1.00D-06.
 Keep R1 integrals in memory in canonical form, NReq=     1517656.
 SCF Done:  E(RHF) =  -256.634661781     A.U. after   15 cycles
             Convg  =    0.7583D-08             -V/T =  1.9971
             S**2   =   0.0000

 **********************************************************************

            Population analysis using the SCF density.

 **********************************************************************

 Orbital Symmetries:
       Occupied  (A') (A') (A') (A') (A') (A') (A') (A') (A') (A')
                 (A') (A") (A') (A') (A') (A") (A') (A")
       Virtual   (A") (A") (A') (A') (A') (A') (A') (A") (A') (A')
                 (A') (A') (A") (A') (A") (A') (A') (A') (A") (A")
                 (A') (A') (A') (A') (A') (A') (A') (A') (A') (A')
                 (A') (A') (A') (A') (A') (A')
  The electronic state is 1-A'.
 Alpha  occ. eigenvalues --  -15.69156 -15.68219 -15.65745 -15.62140 -11.36029
 Alpha  occ. eigenvalues --   -1.57794  -1.29976  -1.24910  -0.93339  -0.91667
 Alpha  occ. eigenvalues --   -0.82991  -0.71253  -0.69772  -0.57898  -0.48345
 Alpha  occ. eigenvalues --   -0.47939  -0.46515  -0.44509
 Alpha virt. eigenvalues --    0.12042   0.17447   0.20474   0.26028   0.28563
 Alpha virt. eigenvalues --    0.33969   0.41943   0.44323   0.47433   0.54907
 Alpha virt. eigenvalues --    0.56518   0.64464   0.66906   0.67325   0.70455
 Alpha virt. eigenvalues --    0.72554   0.75816   0.78064   0.80355   0.84093
 Alpha virt. eigenvalues --    0.86794   0.87563   0.98472   1.02279   1.08679
 Alpha virt. eigenvalues --    1.25409   1.29346   1.42885   1.45202   1.61928
 Alpha virt. eigenvalues --    1.65618  23.76564  32.86169  33.00968  33.10400
 Alpha virt. eigenvalues --   33.17511
          Condensed to atoms (all electrons):
              1          2          3          4          5          6
  1  N    6.652980   0.401649  -0.129558   0.011431   0.335733  -0.213812
  2  N    0.401649   6.725387   0.176711  -0.020934  -0.152719  -0.137629
  3  N   -0.129558   0.176711   6.985043   0.261629  -0.093833   0.297475
  4  H    0.011431  -0.020934   0.261629   0.348847   0.006966  -0.043546
  5  N    0.335733  -0.152719  -0.093833   0.006966   6.577904   0.507827
  6  C   -0.213812  -0.137629   0.297475  -0.043546   0.507827   5.241248
  7  H    0.003985   0.000801  -0.022577   0.001563  -0.017395   0.368388
              7
  1  N    0.003985
  2  N    0.000801
  3  N   -0.022577
  4  H    0.001563
  5  N   -0.017395
  6  C    0.368388
  7  H    0.384278
 Total atomic charges:
              1
  1  N   -0.062408
  2  N    0.006733
  3  N   -0.474890
  4  H    0.434043
  5  N   -0.164483
  6  C   -0.019951
  7  H    0.280956
 Sum of Mulliken charges=   0.00000
 Atomic charges with hydrogens summed into heavy atoms:
              1
  1  N   -0.062408
  2  N    0.006733
  3  N   -0.040847
  4  H    0.000000
  5  N   -0.164483
  6  C    0.261005
  7  H    0.000000
 Sum of Mulliken charges=   0.00000
 Electronic spatial extent (au):  <R**2>=   247.4880
 Charge=     0.0000 electrons
 Dipole moment (Debye):
    X=     2.9444    Y=     5.4928    Z=     0.0000  Tot=     6.2322
 Quadrupole moment (Debye-Ang):
   XX=   -30.4082   YY=   -28.2621   ZZ=   -28.8965
   XY=     2.2188   XZ=     0.0000   YZ=     0.0000
 Octapole moment (Debye-Ang**2):
  XXX=    13.9498  YYY=    25.2939  ZZZ=     0.0000  XYY=    -0.6296
  XXY=     5.7472  XXZ=     0.0000  XZZ=    -0.7511  YZZ=     0.6330
  YYZ=     0.0000  XYZ=     0.0000
 Hexadecapole moment (Debye-Ang**3):
 XXXX=  -141.8874 YYYY=  -120.4825 ZZZZ=   -27.0292 XXXY=     7.6536
 XXXZ=     0.0000 YYYX=     0.1448 YYYZ=     0.0000 ZZZX=     0.0000
 ZZZY=     0.0000 XXYY=   -54.2604 XXZZ=   -30.5718 YYZZ=   -29.2600
 XXYZ=     0.0000 YYXZ=     0.0000 ZZXY=     0.1190
 N-N= 1.698288422228D+02 E-N=-9.409315994067D+02  KE= 2.573685338359D+02
 Symmetry A'   KE= 2.481354540524D+02
 Symmetry A"   KE= 9.233079783492D+00
   2 Symmetry operations used in ECPInt.
 ECPInt:  NShTT=     595 NPrTT=    3192 LenC2=     593 LenP2D=    2558.
 LDataN:  DoStor=F MaxTD1= 3 Len=   28
 LDataN:  DoStor=T MaxTD1= 3 Len=   28
 ***** Axes restored to original set *****
 -------------------------------------------------------------------
 Center     Atomic                   Forces (Hartrees/Bohr)
 Number     Number              X              Y              Z
 -------------------------------------------------------------------
    1          7          -0.051724132   -0.023704497    0.000000000
    2          7          -0.015989850    0.045287737    0.000000000
    3          7           0.030222204    0.023183541    0.000000000
    4          1          -0.002400976   -0.003341638    0.000000000
    5          7          -0.002307534   -0.032455311    0.000000000
    6          6           0.047523983   -0.009540135    0.000000000
    7          1          -0.005323696    0.000570303    0.000000000
 -------------------------------------------------------------------
 Cartesian Forces:  Max     0.051724132 RMS     0.022305898

 GradGradGradGradGradGradGradGradGradGradGradGradGradGradGradGradGradGrad
 Berny optimization.
 Internal  Forces:  Max     0.045989895 RMS     0.016276479
 Search for a local minimum.
 Step number   1 out of a maximum of  36
 All quantities printed in internal units (Hartrees-Bohrs-Radians)
 Second derivative matrix not updated -- first step.
     Eigenvalues ---    0.02505   0.02639   0.02674   0.02834   0.16000
     Eigenvalues ---    0.16000   0.22605   0.24688   0.37515   0.48737
     Eigenvalues ---    0.50885   0.56605   0.58506   0.66912   0.78894
     Eigenvalues --- 1000.000001000.000001000.000001000.000001000.00000
     Eigenvalues --- 1000.000001000.000001000.000001000.000001000.00000
     Eigenvalues --- 1000.00000
 RFO step:  Lambda=-1.06033818D-02.
 Linear search not attempted -- first point.
 Iteration  1 RMS(Cart)=  0.02464759 RMS(Int)=  0.00025656
 Iteration  2 RMS(Cart)=  0.00022212 RMS(Int)=  0.00006360
 Iteration  3 RMS(Cart)=  0.00000005 RMS(Int)=  0.00006360
 Variable       Old X    -DE/DX   Delta X   Delta X   Delta X     New X
                                 (Linear)    (Quad)   (Total)
    R1        2.36623   0.04599   0.00000   0.05668   0.05676   2.42298
    R2        2.53474   0.03404   0.00000   0.06012   0.06020   2.59494
    R3        2.50608   0.03763   0.00000   0.06129   0.06126   2.56734
    R4        1.87862  -0.00411   0.00000  -0.00826  -0.00826   1.87036
    R5        2.51367   0.02568   0.00000   0.04028   0.04019   2.55386
    R6        2.43647   0.03570   0.00000   0.04886   0.04883   2.48530
    R7        2.01777  -0.00516   0.00000  -0.01338  -0.01338   2.00439
    A1        1.94380  -0.01092   0.00000  -0.03263  -0.03245   1.91135
    A2        1.86179   0.00134   0.00000   0.01126   0.01130   1.87309
    A3        2.10759  -0.00158   0.00000  -0.00419  -0.00413   2.10346
    A4        1.88535   0.00310   0.00000   0.00802   0.00789   1.89324
    A5        2.29025  -0.00152   0.00000  -0.00382  -0.00376   2.28649
    A6        1.84604   0.00862   0.00000   0.03148   0.03151   1.87755
    A7        1.88780  -0.00213   0.00000  -0.01812  -0.01825   1.86955
    A8        2.18241   0.00250   0.00000   0.01746   0.01752   2.19993
    A9        2.21298  -0.00037   0.00000   0.00066   0.00073   2.21371
    D1        0.00000   0.00000   0.00000   0.00000   0.00000   0.00000
    D2        0.00000   0.00000   0.00000   0.00000   0.00000   0.00000
    D3        3.14159   0.00000   0.00000   0.00000   0.00000   3.14159
    D4        0.00000   0.00000   0.00000   0.00000   0.00000   0.00000
    D5        0.00000   0.00000   0.00000   0.00000   0.00000   0.00000
    D6        3.14159   0.00000   0.00000   0.00000   0.00000   3.14159
    D7        3.14159   0.00000   0.00000   0.00000   0.00000   3.14159
    D8        0.00000   0.00000   0.00000   0.00000   0.00000   0.00000
    D9        0.00000   0.00000   0.00000   0.00000   0.00000   0.00000
   D10        3.14159   0.00000   0.00000   0.00000   0.00000   3.14159
         Item               Value     Threshold  Converged?
 Maximum Force            0.045990     0.000450     NO 
 RMS     Force            0.016276     0.000300     NO 
 Maximum Displacement     0.083309     0.001800     NO 
 RMS     Displacement     0.024672     0.001200     NO 
 Predicted change in Energy=-5.208888D-03
 GradGradGradGradGradGradGradGradGradGradGradGradGradGradGradGradGradGrad

                          Input orientation:                          
 ---------------------------------------------------------------------
 Center     Atomic     Atomic              Coordinates (Angstroms)
 Number     Number      Type              X           Y           Z
 ---------------------------------------------------------------------
    1          7             0       -1.167378   -0.262717    0.000000
    2          7             0       -0.691129    0.927742    0.000000
    3          7             0        0.663291    0.821528    0.000000
    4          1             0        1.231034    1.632251    0.000000
    5          7             0       -0.136014   -1.169311    0.000000
    6          6             0        0.990024   -0.489827    0.000000
    7          1             0        1.973080   -0.888121    0.000000
 ---------------------------------------------------------------------
                    Distance matrix (angstroms):
                    1          2          3          4          5
     1  N    0.000000
     2  N    1.282188   0.000000
     3  N    2.127660   1.358578   0.000000
     4  H    3.056679   2.047204   0.989750   0.000000
     5  N    1.373181   2.169282   2.145304   3.117302   0.000000
     6  C    2.169323   2.199040   1.351446   2.135721   1.315165
     7  H    3.202125   3.224184   2.153705   2.627338   2.127755
                    6          7
     6  C    0.000000
     7  H    1.060678   0.000000
 Stoichiometry    CH2N4
 Framework group  CS[SG(CH2N4)]
 Deg. of freedom   11
 Full point group                 CS      NOp   2
 Largest Abelian subgroup         CS      NOp   2
 Largest concise Abelian subgroup C1      NOp   1
                         Standard orientation:                         
 ---------------------------------------------------------------------
 Center     Atomic     Atomic              Coordinates (Angstroms)
 Number     Number      Type              X           Y           Z
 ---------------------------------------------------------------------
    1          7             0       -0.735296   -0.938204    0.000000
    2          7             0       -1.117468    0.285705    0.000000
    3          7             0        0.000000    1.058363    0.000000
    4          1             0       -0.071490    2.045527    0.000000
    5          7             0        0.636899   -0.990219    0.000000
    6          6             0        1.081242    0.247609    0.000000
    7          1             0        2.095087    0.559307    0.000000
 ---------------------------------------------------------------------
 Rotational constants (GHZ):     10.5638494     10.2398756      5.1996699
 Isotopes: N-14,N-14,N-14,H-1,N-14,C-12,H-1
 Standard basis: SDD (6D, 10F)
 There are    44 symmetry adapted basis functions of A'  symmetry.
 There are    10 symmetry adapted basis functions of A"  symmetry.
 Crude estimate of integral set expansion from redundant integrals=1.000.
 Integral buffers will be    262144 words long.
 Raffenetti 1 integral format.
 Two-electron integral symmetry is turned on.
    54 basis functions      128 primitive gaussians
    18 alpha electrons       18 beta electrons
       nuclear repulsion energy       166.5160588635 Hartrees.
 One-electron integrals computed using PRISM.
   1 Symmetry operations used in ECPInt.
 ECPInt:  NShTT=     595 NPrTT=    3192 LenC2=     591 LenP2D=    2542.
 LDataN:  DoStor=F MaxTD1= 2 Len=   12
 LDataN:  DoStor=T MaxTD1= 2 Len=   12
 NBasis=    54 RedAO= T  NBF=    44    10
 NBsUse=    54 1.00D-04 NBFU=    44    10
 Initial guess read from the read-write file:
 Initial guess orbital symmetries:
       Occupied  (A') (A') (A') (A') (A') (A') (A') (A') (A') (A')
                 (A') (A") (A') (A') (A') (A") (A') (A")
       Virtual   (A") (A") (A') (A') (A') (A') (A') (A") (A') (A')
                 (A') (A') (A") (A') (A") (A') (A') (A') (A") (A")
                 (A') (A') (A') (A') (A') (A') (A') (A') (A') (A')
                 (A') (A') (A') (A') (A') (A')
 Requested convergence on RMS density matrix=1.00D-08 within  64 cycles.
 Requested convergence on MAX density matrix=1.00D-06.
 Keep R1 integrals in memory in canonical form, NReq=     1517656.
 SCF Done:  E(RHF) =  -256.639135029     A.U. after   13 cycles
             Convg  =    0.3142D-08             -V/T =  1.9988
             S**2   =   0.0000
   2 Symmetry operations used in ECPInt.
 ECPInt:  NShTT=     595 NPrTT=    3192 LenC2=     591 LenP2D=    2542.
 LDataN:  DoStor=F MaxTD1= 3 Len=   28
 LDataN:  DoStor=T MaxTD1= 3 Len=   28
 ***** Axes restored to original set *****
 -------------------------------------------------------------------
 Center     Atomic                   Forces (Hartrees/Bohr)
 Number     Number              X              Y              Z
 -------------------------------------------------------------------
    1          7           0.012394847    0.002897359    0.000000000
    2          7          -0.003058650    0.008540609    0.000000000
    3          7          -0.000917195   -0.003661508    0.000000000
    4          1          -0.000354713    0.001886341    0.000000000
    5          7           0.004311342   -0.012066731    0.000000000
    6          6          -0.012621678    0.003557033    0.000000000
    7          1           0.000246047   -0.001153103    0.000000000
 -------------------------------------------------------------------
 Cartesian Forces:  Max     0.012621678 RMS     0.005344331

 GradGradGradGradGradGradGradGradGradGradGradGradGradGradGradGradGradGrad
 Berny optimization.
 Internal  Forces:  Max     0.011578033 RMS     0.004233243
 Search for a local minimum.
 Step number   2 out of a maximum of  36
 All quantities printed in internal units (Hartrees-Bohrs-Radians)
 Update second derivatives using information from points  1  2
 Trust test= 8.59D-01 RLast= 1.33D-01 DXMaxT set to 4.00D-01
     Eigenvalues ---    0.02504   0.02633   0.02674   0.02832   0.15923
     Eigenvalues ---    0.16009   0.22753   0.26866   0.37613   0.48785
     Eigenvalues ---    0.50980   0.56341   0.58726   0.70769   0.78723
     Eigenvalues --- 1000.000001000.000001000.000001000.000001000.00000
     Eigenvalues --- 1000.000001000.000001000.000001000.000001000.00000
     Eigenvalues --- 1000.00000
 RFO step:  Lambda=-1.26160790D-03.
 Quartic linear search produced a step of -0.11938.
 Iteration  1 RMS(Cart)=  0.01311385 RMS(Int)=  0.00015640
 Iteration  2 RMS(Cart)=  0.00013923 RMS(Int)=  0.00002125
 Iteration  3 RMS(Cart)=  0.00000001 RMS(Int)=  0.00002125
 Variable       Old X    -DE/DX   Delta X   Delta X   Delta X     New X
                                 (Linear)    (Quad)   (Total)
    R1        2.42298   0.00124  -0.00678   0.01505   0.00829   2.43127
    R2        2.59494   0.00090  -0.00719   0.01561   0.00846   2.60340
    R3        2.56734  -0.00390  -0.00731   0.00866   0.00132   2.56866
    R4        1.87036   0.00134   0.00099   0.00052   0.00150   1.87186
    R5        2.55386   0.00171  -0.00480   0.01133   0.00651   2.56037
    R6        2.48530  -0.00551  -0.00583   0.00413  -0.00168   2.48362
    R7        2.00439   0.00066   0.00160  -0.00149   0.00010   2.00449
    A1        1.91135   0.01158   0.00387   0.03510   0.03902   1.95037
    A2        1.87309  -0.00869  -0.00135  -0.02675  -0.02812   1.84497
    A3        2.10346  -0.00190   0.00049  -0.00941  -0.00889   2.09457
    A4        1.89324   0.00123  -0.00094   0.00473   0.00373   1.89698
    A5        2.28649   0.00067   0.00045   0.00469   0.00516   2.29164
    A6        1.87755  -0.01109  -0.00376  -0.03362  -0.03733   1.84022
    A7        1.86955   0.00697   0.00218   0.02054   0.02270   1.89225
    A8        2.19993  -0.00251  -0.00209  -0.00317  -0.00525   2.19467
    A9        2.21371  -0.00446  -0.00009  -0.01737  -0.01745   2.19626
    D1        0.00000   0.00000   0.00000   0.00000   0.00000   0.00000
    D2        0.00000   0.00000   0.00000   0.00000   0.00000   0.00000
    D3        3.14159   0.00000   0.00000   0.00000   0.00000   3.14159
    D4        0.00000   0.00000   0.00000   0.00000   0.00000   0.00000
    D5        0.00000   0.00000   0.00000   0.00000   0.00000   0.00000
    D6        3.14159   0.00000   0.00000   0.00000   0.00000   3.14159
    D7        3.14159   0.00000   0.00000   0.00000   0.00000   3.14159
    D8        0.00000   0.00000   0.00000   0.00000   0.00000   0.00000
    D9        0.00000   0.00000   0.00000   0.00000   0.00000   0.00000
   D10        3.14159   0.00000   0.00000   0.00000   0.00000   3.14159
         Item               Value     Threshold  Converged?
 Maximum Force            0.011578     0.000450     NO 
 RMS     Force            0.004233     0.000300     NO 
 Maximum Displacement     0.039879     0.001800     NO 
 RMS     Displacement     0.013138     0.001200     NO 
 Predicted change in Energy=-7.129595D-04
 GradGradGradGradGradGradGradGradGradGradGradGradGradGradGradGradGradGrad

                          Input orientation:                          
 ---------------------------------------------------------------------
 Center     Atomic     Atomic              Coordinates (Angstroms)
 Number     Number      Type              X           Y           Z
 ---------------------------------------------------------------------
    1          7             0       -1.143246   -0.261481    0.000000
    2          7             0       -0.688657    0.942106    0.000000
    3          7             0        0.665482    0.824048    0.000000
    4          1             0        1.233527    1.635531    0.000000
    5          7             0       -0.126542   -1.191133    0.000000
    6          6             0        0.986513   -0.492260    0.000000
    7          1             0        1.969733   -0.890294    0.000000
 ---------------------------------------------------------------------
                    Distance matrix (angstroms):
                    1          2          3          4          5
     1  N    0.000000
     2  N    1.286574   0.000000
     3  N    2.109473   1.359276   0.000000
     4  H    3.041004   2.043436   0.990545   0.000000
     5  N    1.377658   2.206056   2.165239   3.136848   0.000000
     6  C    2.142226   2.205357   1.354890   2.142081   1.314274
     7  H    3.175854   3.228735   2.154076   2.630930   2.117752
                    6          7
     6  C    0.000000
     7  H    1.060733   0.000000
 Stoichiometry    CH2N4
 Framework group  CS[SG(CH2N4)]
 Deg. of freedom   11
 Full point group                 CS      NOp   2
 Largest Abelian subgroup         CS      NOp   2
 Largest concise Abelian subgroup C1      NOp   1
                         Standard orientation:                         
 ---------------------------------------------------------------------
 Center     Atomic     Atomic              Coordinates (Angstroms)
 Number     Number      Type              X           Y           Z
 ---------------------------------------------------------------------
    1          7             0       -0.728482   -0.921441    0.000000
    2          7             0       -1.128951    0.301219    0.000000
    3          7             0        0.000000    1.058253    0.000000
    4          1             0       -0.066245    2.046580    0.000000
    5          7             0        0.646439   -1.008236    0.000000
    6          6             0        1.075383    0.234069    0.000000
    7          1             0        2.090910    0.540434    0.000000
 ---------------------------------------------------------------------
 Rotational constants (GHZ):     10.5399580     10.1958907      5.1825349
 Isotopes: N-14,N-14,N-14,H-1,N-14,C-12,H-1
 Standard basis: SDD (6D, 10F)
 There are    44 symmetry adapted basis functions of A'  symmetry.
 There are    10 symmetry adapted basis functions of A"  symmetry.
 Crude estimate of integral set expansion from redundant integrals=1.000.
 Integral buffers will be    262144 words long.
 Raffenetti 1 integral format.
 Two-electron integral symmetry is turned on.
    54 basis functions      128 primitive gaussians
    18 alpha electrons       18 beta electrons
       nuclear repulsion energy       166.2510088099 Hartrees.
 One-electron integrals computed using PRISM.
   1 Symmetry operations used in ECPInt.
 ECPInt:  NShTT=     595 NPrTT=    3192 LenC2=     592 LenP2D=    2544.
 LDataN:  DoStor=F MaxTD1= 2 Len=   12
 LDataN:  DoStor=T MaxTD1= 2 Len=   12
 NBasis=    54 RedAO= T  NBF=    44    10
 NBsUse=    54 1.00D-04 NBFU=    44    10
 Initial guess read from the read-write file:
 Initial guess orbital symmetries:
       Occupied  (A') (A') (A') (A') (A') (A') (A') (A') (A') (A')
                 (A') (A') (A") (A') (A') (A') (A") (A")
       Virtual   (A") (A") (A') (A') (A') (A') (A') (A") (A') (A')
                 (A') (A') (A") (A') (A") (A') (A') (A') (A") (A')
                 (A") (A') (A') (A') (A') (A') (A') (A') (A') (A')
                 (A') (A') (A') (A') (A') (A')
 Requested convergence on RMS density matrix=1.00D-08 within  64 cycles.
 Requested convergence on MAX density matrix=1.00D-06.
 Keep R1 integrals in memory in canonical form, NReq=     1517656.
 SCF Done:  E(RHF) =  -256.639155142     A.U. after   12 cycles
             Convg  =    0.9201D-08             -V/T =  1.9989
             S**2   =   0.0000
   2 Symmetry operations used in ECPInt.
 ECPInt:  NShTT=     595 NPrTT=    3192 LenC2=     592 LenP2D=    2544.
 LDataN:  DoStor=F MaxTD1= 3 Len=   28
 LDataN:  DoStor=T MaxTD1= 3 Len=   28
 ***** Axes restored to original set *****
 -------------------------------------------------------------------
 Center     Atomic                   Forces (Hartrees/Bohr)
 Number     Number              X              Y              Z
 -------------------------------------------------------------------
    1          7          -0.010280751    0.002208613    0.000000000
    2          7           0.002065101   -0.014550836    0.000000000
    3          7           0.003915375   -0.004268273    0.000000000
    4          1           0.001299843   -0.000125960    0.000000000
    5          7           0.001727487    0.012878685    0.000000000
    6          6           0.000067342    0.003709023    0.000000000
    7          1           0.001205603    0.000148748    0.000000000
 -------------------------------------------------------------------
 Cartesian Forces:  Max     0.014550836 RMS     0.005098547

 GradGradGradGradGradGradGradGradGradGradGradGradGradGradGradGradGradGrad
 Berny optimization.
 Internal  Forces:  Max     0.012180826 RMS     0.004418515
 Search for a local minimum.
 Step number   3 out of a maximum of  36
 All quantities printed in internal units (Hartrees-Bohrs-Radians)
 Update second derivatives using information from points  1  2  3
 Trust test= 2.82D-02 RLast= 6.97D-02 DXMaxT set to 2.00D-01
     Eigenvalues ---    0.02506   0.02637   0.02673   0.02829   0.15945
     Eigenvalues ---    0.16028   0.22460   0.37579   0.42953   0.48709
     Eigenvalues ---    0.51087   0.57131   0.63072   0.76019   0.84464
     Eigenvalues --- 1000.000001000.000001000.000001000.000001000.00000
     Eigenvalues --- 1000.000001000.000001000.000001000.000001000.00000
     Eigenvalues --- 1000.00000
 RFO step:  Lambda=-6.78617596D-05.
 Quartic linear search produced a step of -0.49343.
 Iteration  1 RMS(Cart)=  0.00659902 RMS(Int)=  0.00003895
 Iteration  2 RMS(Cart)=  0.00003335 RMS(Int)=  0.00000839
 Iteration  3 RMS(Cart)=  0.00000000 RMS(Int)=  0.00000839
 Variable       Old X    -DE/DX   Delta X   Delta X   Delta X     New X
                                 (Linear)    (Quad)   (Total)
    R1        2.43127  -0.00675  -0.00409  -0.00274  -0.00682   2.42445
    R2        2.60340  -0.00151  -0.00417  -0.00020  -0.00439   2.59901
    R3        2.56866   0.00323  -0.00065  -0.00021  -0.00085   2.56781
    R4        1.87186   0.00064  -0.00074   0.00181   0.00107   1.87293
    R5        2.56037  -0.00965  -0.00321  -0.00623  -0.00943   2.55094
    R6        2.48362  -0.00066   0.00083  -0.00397  -0.00315   2.48047
    R7        2.00449   0.00106  -0.00005   0.00203   0.00198   2.00648
    A1        1.95037  -0.01218  -0.01925  -0.00085  -0.02012   1.93025
    A2        1.84497   0.00898   0.01388   0.00179   0.01569   1.86065
    A3        2.09457   0.00240   0.00439   0.00125   0.00563   2.10020
    A4        1.89698  -0.00266  -0.00184  -0.00355  -0.00537   1.89160
    A5        2.29164   0.00027  -0.00255   0.00230  -0.00026   2.29139
    A6        1.84022   0.00956   0.01842  -0.00264   0.01576   1.85597
    A7        1.89225  -0.00369  -0.01120   0.00525  -0.00595   1.88630
    A8        2.19467   0.00125   0.00259  -0.00155   0.00104   2.19572
    A9        2.19626   0.00244   0.00861  -0.00370   0.00491   2.20117
    D1        0.00000   0.00000   0.00000   0.00000   0.00000   0.00000
    D2        0.00000   0.00000   0.00000   0.00000   0.00000   0.00000
    D3        3.14159   0.00000   0.00000   0.00000   0.00000   3.14159
    D4        0.00000   0.00000   0.00000   0.00000   0.00000   0.00000
    D5        0.00000   0.00000   0.00000   0.00000   0.00000   0.00000
    D6        3.14159   0.00000   0.00000   0.00000   0.00000   3.14159
    D7        3.14159   0.00000   0.00000   0.00000   0.00000   3.14159
    D8        0.00000   0.00000   0.00000   0.00000   0.00000   0.00000
    D9        0.00000   0.00000   0.00000   0.00000   0.00000   0.00000
   D10        3.14159   0.00000   0.00000   0.00000   0.00000   3.14159
         Item               Value     Threshold  Converged?
 Maximum Force            0.012181     0.000450     NO 
 RMS     Force            0.004419     0.000300     NO 
 Maximum Displacement     0.019300     0.001800     NO 
 RMS     Displacement     0.006595     0.001200     NO 
 Predicted change in Energy=-3.738271D-04
 GradGradGradGradGradGradGradGradGradGradGradGradGradGradGradGradGradGrad

                          Input orientation:                          
 ---------------------------------------------------------------------
 Center     Atomic     Atomic              Coordinates (Angstroms)
 Number     Number      Type              X           Y           Z
 ---------------------------------------------------------------------
    1          7             0       -1.154052   -0.262619    0.000000
    2          7             0       -0.688580    0.932926    0.000000
    3          7             0        0.665743    0.822402    0.000000
    4          1             0        1.234190    1.634293    0.000000
    5          7             0       -0.129861   -1.180544    0.000000
    6          6             0        0.985804   -0.489005    0.000000
    7          1             0        1.969645   -0.888302    0.000000
 ---------------------------------------------------------------------
                    Distance matrix (angstroms):
                    1          2          3          4          5
     1  N    0.000000
     2  N    1.282962   0.000000
     3  N    2.118708   1.358825   0.000000
     4  H    3.049914   2.046694   0.991110   0.000000
     5  N    1.375337   2.186074   2.155175   3.127930   0.000000
     6  C    2.151797   2.196690   1.349899   2.137777   1.312606
     7  H    3.185743   3.222270   2.150969   2.627619   2.119748
                    6          7
     6  C    0.000000
     7  H    1.061782   0.000000
 Stoichiometry    CH2N4
 Framework group  CS[SG(CH2N4)]
 Deg. of freedom   11
 Full point group                 CS      NOp   2
 Largest Abelian subgroup         CS      NOp   2
 Largest concise Abelian subgroup C1      NOp   1
                         Standard orientation:                         
 ---------------------------------------------------------------------
 Center     Atomic     Atomic              Coordinates (Angstroms)
 Number     Number      Type              X           Y           Z
 ---------------------------------------------------------------------
    1          7             0       -0.730684   -0.930070    0.000000
    2          7             0       -1.121777    0.291829    0.000000
    3          7             0        0.000000    1.058654    0.000000
    4          1             0       -0.069540    2.047322    0.000000
    5          7             0        0.642956   -0.998379    0.000000
    6          6             0        1.074332    0.241318    0.000000
    7          1             0        2.090091    0.550534    0.000000
 ---------------------------------------------------------------------
 Rotational constants (GHZ):     10.5088350     10.2956954      5.2005867
 Isotopes: N-14,N-14,N-14,H-1,N-14,C-12,H-1
 Standard basis: SDD (6D, 10F)
 There are    44 symmetry adapted basis functions of A'  symmetry.
 There are    10 symmetry adapted basis functions of A"  symmetry.
 Crude estimate of integral set expansion from redundant integrals=1.000.
 Integral buffers will be    262144 words long.
 Raffenetti 1 integral format.
 Two-electron integral symmetry is turned on.
    54 basis functions      128 primitive gaussians
    18 alpha electrons       18 beta electrons
       nuclear repulsion energy       166.5259635529 Hartrees.
 One-electron integrals computed using PRISM.
   1 Symmetry operations used in ECPInt.
 ECPInt:  NShTT=     595 NPrTT=    3192 LenC2=     592 LenP2D=    2543.
 LDataN:  DoStor=F MaxTD1= 2 Len=   12
 LDataN:  DoStor=T MaxTD1= 2 Len=   12
 NBasis=    54 RedAO= T  NBF=    44    10
 NBsUse=    54 1.00D-04 NBFU=    44    10
 Initial guess read from the read-write file:
 Initial guess orbital symmetries:
       Occupied  (A') (A') (A') (A') (A') (A') (A') (A') (A') (A')
                 (A') (A") (A') (A') (A') (A') (A") (A")
       Virtual   (A") (A") (A') (A') (A') (A') (A') (A") (A') (A')
                 (A') (A') (A") (A') (A") (A') (A') (A') (A") (A')
                 (A") (A') (A') (A') (A') (A') (A') (A') (A') (A')
                 (A') (A') (A') (A') (A') (A')
 Requested convergence on RMS density matrix=1.00D-08 within  64 cycles.
 Requested convergence on MAX density matrix=1.00D-06.
 Keep R1 integrals in memory in canonical form, NReq=     1517656.
 SCF Done:  E(RHF) =  -256.639531136     A.U. after   12 cycles
             Convg  =    0.2831D-08             -V/T =  1.9988
             S**2   =   0.0000
   2 Symmetry operations used in ECPInt.
 ECPInt:  NShTT=     595 NPrTT=    3192 LenC2=     592 LenP2D=    2543.
 LDataN:  DoStor=F MaxTD1= 3 Len=   28
 LDataN:  DoStor=T MaxTD1= 3 Len=   28
 ***** Axes restored to original set *****
 -------------------------------------------------------------------
 Center     Atomic                   Forces (Hartrees/Bohr)
 Number     Number              X              Y              Z
 -------------------------------------------------------------------
    1          7           0.000301670    0.001710602    0.000000000
    2          7          -0.001486962   -0.000539284    0.000000000
    3          7           0.000469573   -0.001744702    0.000000000
    4          1          -0.000176722   -0.000046871    0.000000000
    5          7           0.001128547    0.000198677    0.000000000
    6          6          -0.000193569    0.000560390    0.000000000
    7          1          -0.000042538   -0.000138812    0.000000000
 -------------------------------------------------------------------
 Cartesian Forces:  Max     0.001744702 RMS     0.000707195

 GradGradGradGradGradGradGradGradGradGradGradGradGradGradGradGradGradGrad
 Berny optimization.
 Internal  Forces:  Max     0.001458533 RMS     0.000486683
 Search for a local minimum.
 Step number   4 out of a maximum of  36
 All quantities printed in internal units (Hartrees-Bohrs-Radians)
 Update second derivatives using information from points  1  2  3  4
 Trust test= 1.01D+00 RLast= 3.45D-02 DXMaxT set to 2.00D-01
     Eigenvalues ---    0.02505   0.02636   0.02674   0.02831   0.15943
     Eigenvalues ---    0.16031   0.23621   0.37553   0.44631   0.48894
     Eigenvalues ---    0.51208   0.58231   0.61606   0.76612   0.79683
     Eigenvalues --- 1000.000001000.000001000.000001000.000001000.00000
     Eigenvalues --- 1000.000001000.000001000.000001000.000001000.00000
     Eigenvalues --- 1000.00000
 RFO step:  Lambda=-1.31446138D-05.
 Quartic linear search produced a step of  0.00678.
 Iteration  1 RMS(Cart)=  0.00124351 RMS(Int)=  0.00000078
 Iteration  2 RMS(Cart)=  0.00000077 RMS(Int)=  0.00000026
 Variable       Old X    -DE/DX   Delta X   Delta X   Delta X     New X
                                 (Linear)    (Quad)   (Total)
    R1        2.42445  -0.00146  -0.00005  -0.00185  -0.00189   2.42255
    R2        2.59901   0.00070  -0.00003   0.00131   0.00128   2.60029
    R3        2.56781   0.00072  -0.00001   0.00127   0.00126   2.56907
    R4        1.87293  -0.00014   0.00001  -0.00024  -0.00024   1.87269
    R5        2.55094  -0.00097  -0.00006  -0.00188  -0.00195   2.54899
    R6        2.48047  -0.00087  -0.00002  -0.00132  -0.00134   2.47913
    R7        2.00648   0.00001   0.00001   0.00009   0.00010   2.00658
    A1        1.93025   0.00017  -0.00014   0.00048   0.00035   1.93060
    A2        1.86065  -0.00060   0.00011  -0.00222  -0.00212   1.85854
    A3        2.10020  -0.00043   0.00004  -0.00202  -0.00198   2.09821
    A4        1.89160   0.00064  -0.00004   0.00268   0.00264   1.89425
    A5        2.29139  -0.00021   0.00000  -0.00066  -0.00066   2.29073
    A6        1.85597   0.00017   0.00011   0.00089   0.00100   1.85697
    A7        1.88630  -0.00039  -0.00004  -0.00183  -0.00188   1.88442
    A8        2.19572   0.00034   0.00001   0.00186   0.00187   2.19759
    A9        2.20117   0.00005   0.00003  -0.00002   0.00001   2.20118
    D1        0.00000   0.00000   0.00000   0.00000   0.00000   0.00000
    D2        0.00000   0.00000   0.00000   0.00000   0.00000   0.00000
    D3        3.14159   0.00000   0.00000   0.00000   0.00000   3.14159
    D4        0.00000   0.00000   0.00000   0.00000   0.00000   0.00000
    D5        0.00000   0.00000   0.00000   0.00000   0.00000   0.00000
    D6        3.14159   0.00000   0.00000   0.00000   0.00000   3.14159
    D7        3.14159   0.00000   0.00000   0.00000   0.00000   3.14159
    D8        0.00000   0.00000   0.00000   0.00000   0.00000   0.00000
    D9        0.00000   0.00000   0.00000   0.00000   0.00000   0.00000
   D10        3.14159   0.00000   0.00000   0.00000   0.00000   3.14159
         Item               Value     Threshold  Converged?
 Maximum Force            0.001459     0.000450     NO 
 RMS     Force            0.000487     0.000300     NO 
 Maximum Displacement     0.002536     0.001800     NO 
 RMS     Displacement     0.001243     0.001200     NO 
 Predicted change in Energy=-6.588835D-06
 GradGradGradGradGradGradGradGradGradGradGradGradGradGradGradGradGradGrad

                          Input orientation:                          
 ---------------------------------------------------------------------
 Center     Atomic     Atomic              Coordinates (Angstroms)
 Number     Number      Type              X           Y           Z
 ---------------------------------------------------------------------
    1          7             0       -1.153091   -0.261312    0.000000
    2          7             0       -0.688826    0.933627    0.000000
    3          7             0        0.666004    0.821140    0.000000
    4          1             0        1.233912    1.633256    0.000000
    5          7             0       -0.128066   -1.179321    0.000000
    6          6             0        0.987438   -0.488870    0.000000
    7          1             0        1.971078   -0.888808    0.000000
 ---------------------------------------------------------------------
                    Distance matrix (angstroms):
                    1          2          3          4          5
     1  N    0.000000
     2  N    1.281960   0.000000
     3  N    2.116792   1.359492   0.000000
     4  H    3.047486   2.046070   0.990985   0.000000
     5  N    1.376014   2.186093   2.152299   3.124991   0.000000
     6  C    2.152591   2.198491   1.348869   2.136391   1.311897
     7  H    3.186563   3.224339   2.151079   2.627588   2.119151
                    6          7
     6  C    0.000000
     7  H    1.061837   0.000000
 Stoichiometry    CH2N4
 Framework group  CS[SG(CH2N4)]
 Deg. of freedom   11
 Full point group                 CS      NOp   2
 Largest Abelian subgroup         CS      NOp   2
 Largest concise Abelian subgroup C1      NOp   1
                         Standard orientation:                         
 ---------------------------------------------------------------------
 Center     Atomic     Atomic              Coordinates (Angstroms)
 Number     Number      Type              X           Y           Z
 ---------------------------------------------------------------------
    1          7             0       -0.730686   -0.929657    0.000000
    2          7             0       -1.122995    0.290800    0.000000
    3          7             0        0.000000    1.057026    0.000000
    4          1             0       -0.070633    2.045490    0.000000
    5          7             0        0.643691   -0.996764    0.000000
    6          6             0        1.074959    0.242220    0.000000
    7          1             0        2.090799    0.551358    0.000000
 ---------------------------------------------------------------------
 Rotational constants (GHZ):     10.5338589     10.2807658      5.2028868
 Isotopes: N-14,N-14,N-14,H-1,N-14,C-12,H-1
 Standard basis: SDD (6D, 10F)
 There are    44 symmetry adapted basis functions of A'  symmetry.
 There are    10 symmetry adapted basis functions of A"  symmetry.
 Crude estimate of integral set expansion from redundant integrals=1.000.
 Integral buffers will be    262144 words long.
 Raffenetti 1 integral format.
 Two-electron integral symmetry is turned on.
    54 basis functions      128 primitive gaussians
    18 alpha electrons       18 beta electrons
       nuclear repulsion energy       166.5630899044 Hartrees.
 One-electron integrals computed using PRISM.
   1 Symmetry operations used in ECPInt.
 ECPInt:  NShTT=     595 NPrTT=    3192 LenC2=     592 LenP2D=    2544.
 LDataN:  DoStor=F MaxTD1= 2 Len=   12
 LDataN:  DoStor=T MaxTD1= 2 Len=   12
 NBasis=    54 RedAO= T  NBF=    44    10
 NBsUse=    54 1.00D-04 NBFU=    44    10
 Initial guess read from the read-write file:
 Initial guess orbital symmetries:
       Occupied  (A') (A') (A') (A') (A') (A') (A') (A') (A') (A')
                 (A') (A") (A') (A') (A') (A') (A") (A")
       Virtual   (A") (A") (A') (A') (A') (A') (A') (A") (A') (A')
                 (A') (A') (A") (A') (A") (A') (A') (A') (A") (A')
                 (A") (A') (A') (A') (A') (A') (A') (A') (A') (A')
                 (A') (A') (A') (A') (A') (A')
 Requested convergence on RMS density matrix=1.00D-08 within  64 cycles.
 Requested convergence on MAX density matrix=1.00D-06.
 Keep R1 integrals in memory in canonical form, NReq=     1517656.
 SCF Done:  E(RHF) =  -256.639534441     A.U. after   11 cycles
             Convg  =    0.6235D-08             -V/T =  1.9987
             S**2   =   0.0000
   2 Symmetry operations used in ECPInt.
 ECPInt:  NShTT=     595 NPrTT=    3192 LenC2=     592 LenP2D=    2544.
 LDataN:  DoStor=F MaxTD1= 3 Len=   28
 LDataN:  DoStor=T MaxTD1= 3 Len=   28
 ***** Axes restored to original set *****
 -------------------------------------------------------------------
 Center     Atomic                   Forces (Hartrees/Bohr)
 Number     Number              X              Y              Z
 -------------------------------------------------------------------
    1          7          -0.000095314    0.000298503    0.000000000
    2          7          -0.000110774   -0.000761515    0.000000000
    3          7           0.001130772    0.000808275    0.000000000
    4          1          -0.000018336    0.000026954    0.000000000
    5          7          -0.000146491   -0.000906772    0.000000000
    6          6          -0.000692866    0.000539428    0.000000000
    7          1          -0.000066990   -0.000004873    0.000000000
 -------------------------------------------------------------------
 Cartesian Forces:  Max     0.001130772 RMS     0.000449478

 GradGradGradGradGradGradGradGradGradGradGradGradGradGradGradGradGradGrad
 Berny optimization.
 Internal  Forces:  Max     0.000759884 RMS     0.000298999
 Search for a local minimum.
 Step number   5 out of a maximum of  36
 All quantities printed in internal units (Hartrees-Bohrs-Radians)
 Update second derivatives using information from points  1  2  3  4  5

 Trust test= 5.02D-01 RLast= 6.04D-03 DXMaxT set to 2.00D-01
     Eigenvalues ---    0.02505   0.02635   0.02674   0.02830   0.15374
     Eigenvalues ---    0.16013   0.33945   0.37658   0.45882   0.49220
     Eigenvalues ---    0.51706   0.58954   0.64568   0.67698   0.82306
     Eigenvalues --- 1000.000001000.000001000.000001000.000001000.00000
     Eigenvalues --- 1000.000001000.000001000.000001000.000001000.00000
     Eigenvalues --- 1000.00000
 RFO step:  Lambda=-2.79748198D-06.
 Quartic linear search produced a step of -0.33264.
 Iteration  1 RMS(Cart)=  0.00063333 RMS(Int)=  0.00000034
 Iteration  2 RMS(Cart)=  0.00000031 RMS(Int)=  0.00000017
 Variable       Old X    -DE/DX   Delta X   Delta X   Delta X     New X
                                 (Linear)    (Quad)   (Total)
    R1        2.42255  -0.00006   0.00063  -0.00103  -0.00040   2.42215
    R2        2.60029   0.00004  -0.00043   0.00088   0.00045   2.60074
    R3        2.56907   0.00024  -0.00042   0.00113   0.00071   2.56978
    R4        1.87269   0.00001   0.00008  -0.00013  -0.00005   1.87264
    R5        2.54899   0.00001   0.00065  -0.00100  -0.00035   2.54864
    R6        2.47913   0.00044   0.00045  -0.00025   0.00020   2.47932
    R7        2.00658  -0.00006  -0.00003  -0.00008  -0.00011   2.00647
    A1        1.93060   0.00000  -0.00012   0.00011  -0.00001   1.93059
    A2        1.85854   0.00054   0.00070   0.00030   0.00100   1.85954
    A3        2.09821   0.00035   0.00066  -0.00013   0.00053   2.09874
    A4        1.89425  -0.00076  -0.00088  -0.00076  -0.00164   1.89261
    A5        2.29073   0.00041   0.00022   0.00089   0.00111   2.29184
    A6        1.85697  -0.00046  -0.00033  -0.00074  -0.00107   1.85590
    A7        1.88442   0.00067   0.00062   0.00109   0.00171   1.88614
    A8        2.19759  -0.00031  -0.00062   0.00014  -0.00048   2.19710
    A9        2.20118  -0.00037   0.00000  -0.00123  -0.00123   2.19995
    D1        0.00000   0.00000   0.00000   0.00000   0.00000   0.00000
    D2        0.00000   0.00000   0.00000   0.00000   0.00000   0.00000
    D3        3.14159   0.00000   0.00000   0.00000   0.00000   3.14159
    D4        0.00000   0.00000   0.00000   0.00000   0.00000   0.00000
    D5        0.00000   0.00000   0.00000   0.00000   0.00000   0.00000
    D6        3.14159   0.00000   0.00000   0.00000   0.00000   3.14159
    D7        3.14159   0.00000   0.00000   0.00000   0.00000   3.14159
    D8        0.00000   0.00000   0.00000   0.00000   0.00000   0.00000
    D9        0.00000   0.00000   0.00000   0.00000   0.00000   0.00000
   D10        3.14159   0.00000   0.00000   0.00000   0.00000   3.14159
         Item               Value     Threshold  Converged?
 Maximum Force            0.000760     0.000450     NO 
 RMS     Force            0.000299     0.000300     YES
 Maximum Displacement     0.001354     0.001800     YES
 RMS     Displacement     0.000633     0.001200     YES
 Predicted change in Energy=-2.491797D-06
 GradGradGradGradGradGradGradGradGradGradGradGradGradGradGradGradGradGrad

                          Input orientation:                          
 ---------------------------------------------------------------------
 Center     Atomic     Atomic              Coordinates (Angstroms)
 Number     Number      Type              X           Y           Z
 ---------------------------------------------------------------------
    1          7             0       -1.153139   -0.261864    0.000000
    2          7             0       -0.688695    0.932777    0.000000
    3          7             0        0.666598    0.821326    0.000000
    4          1             0        1.234280    1.633565    0.000000
    5          7             0       -0.128124   -1.180243    0.000000
    6          6             0        0.986873   -0.488775    0.000000
    7          1             0        1.970312   -0.889051    0.000000
 ---------------------------------------------------------------------
                    Distance matrix (angstroms):
                    1          2          3          4          5
     1  N    0.000000
     2  N    1.281746   0.000000
     3  N    2.117721   1.359868   0.000000
     4  H    3.048347   2.046689   0.990956   0.000000
     5  N    1.376255   2.186114   2.153570   3.126286   0.000000
     6  C    2.152008   2.197347   1.348681   2.136712   1.312001
     7  H    3.185798   3.223255   2.150596   2.627801   2.118543
                    6          7
     6  C    0.000000
     7  H    1.061779   0.000000
 Stoichiometry    CH2N4
 Framework group  CS[SG(CH2N4)]
 Deg. of freedom   11
 Full point group                 CS      NOp   2
 Largest Abelian subgroup         CS      NOp   2
 Largest concise Abelian subgroup C1      NOp   1
                         Standard orientation:                         
 ---------------------------------------------------------------------
 Center     Atomic     Atomic              Coordinates (Angstroms)
 Number     Number      Type              X           Y           Z
 ---------------------------------------------------------------------
    1          7             0       -0.730566   -0.929872    0.000000
    2          7             0       -1.122642    0.290436    0.000000
    3          7             0        0.000000    1.057844    0.000000
    4          1             0       -0.070962    2.046256    0.000000
    5          7             0        0.644042   -0.997168    0.000000
    6          6             0        1.074179    0.242320    0.000000
    7          1             0        2.090053    0.551147    0.000000
 ---------------------------------------------------------------------
 Rotational constants (GHZ):     10.5247093     10.2871440      5.2022854
 Isotopes: N-14,N-14,N-14,H-1,N-14,C-12,H-1
 Standard basis: SDD (6D, 10F)
 There are    44 symmetry adapted basis functions of A'  symmetry.
 There are    10 symmetry adapted basis functions of A"  symmetry.
 Crude estimate of integral set expansion from redundant integrals=1.000.
 Integral buffers will be    262144 words long.
 Raffenetti 1 integral format.
 Two-electron integral symmetry is turned on.
    54 basis functions      128 primitive gaussians
    18 alpha electrons       18 beta electrons
       nuclear repulsion energy       166.5545087982 Hartrees.
 One-electron integrals computed using PRISM.
   1 Symmetry operations used in ECPInt.
 ECPInt:  NShTT=     595 NPrTT=    3192 LenC2=     592 LenP2D=    2543.
 LDataN:  DoStor=F MaxTD1= 2 Len=   12
 LDataN:  DoStor=T MaxTD1= 2 Len=   12
 NBasis=    54 RedAO= T  NBF=    44    10
 NBsUse=    54 1.00D-04 NBFU=    44    10
 Initial guess read from the read-write file:
 Initial guess orbital symmetries:
       Occupied  (A') (A') (A') (A') (A') (A') (A') (A') (A') (A')
                 (A') (A") (A') (A') (A') (A') (A") (A")
       Virtual   (A") (A") (A') (A') (A') (A') (A') (A") (A') (A')
                 (A') (A') (A") (A') (A") (A') (A') (A') (A") (A')
                 (A") (A') (A') (A') (A') (A') (A') (A') (A') (A')
                 (A') (A') (A') (A') (A') (A')
 Requested convergence on RMS density matrix=1.00D-08 within  64 cycles.
 Requested convergence on MAX density matrix=1.00D-06.
 Keep R1 integrals in memory in canonical form, NReq=     1517656.
 SCF Done:  E(RHF) =  -256.639537205     A.U. after   10 cycles
             Convg  =    0.5580D-08             -V/T =  1.9987
             S**2   =   0.0000
   2 Symmetry operations used in ECPInt.
 ECPInt:  NShTT=     595 NPrTT=    3192 LenC2=     592 LenP2D=    2543.
 LDataN:  DoStor=F MaxTD1= 3 Len=   28
 LDataN:  DoStor=T MaxTD1= 3 Len=   28
 ***** Axes restored to original set *****
 -------------------------------------------------------------------
 Center     Atomic                   Forces (Hartrees/Bohr)
 Number     Number              X              Y              Z
 -------------------------------------------------------------------
    1          7           0.000034182    0.000263571    0.000000000
    2          7          -0.000282846   -0.000130908    0.000000000
    3          7           0.000216088    0.000117048    0.000000000
    4          1          -0.000002498    0.000024139    0.000000000
    5          7          -0.000007941   -0.000246383    0.000000000
    6          6           0.000034902   -0.000014467    0.000000000
    7          1           0.000008112   -0.000013000    0.000000000
 -------------------------------------------------------------------
 Cartesian Forces:  Max     0.000282846 RMS     0.000117755

 GradGradGradGradGradGradGradGradGradGradGradGradGradGradGradGradGradGrad
 Berny optimization.
 Internal  Forces:  Max     0.000191343 RMS     0.000069665
 Search for a local minimum.
 Step number   6 out of a maximum of  36
 All quantities printed in internal units (Hartrees-Bohrs-Radians)
 Update second derivatives using information from points  1  2  3  4  5
                                                        6
 Trust test= 1.11D+00 RLast= 3.48D-03 DXMaxT set to 2.00D-01
     Eigenvalues ---    0.02505   0.02635   0.02674   0.02830   0.14820
     Eigenvalues ---    0.16010   0.27718   0.37762   0.46556   0.49096
     Eigenvalues ---    0.51422   0.60473   0.64421   0.68754   0.82101
     Eigenvalues --- 1000.000001000.000001000.000001000.000001000.00000
     Eigenvalues --- 1000.000001000.000001000.000001000.000001000.00000
     Eigenvalues --- 1000.00000
 RFO step:  Lambda=-2.56142737D-07.
 Quartic linear search produced a step of  0.12231.
 Iteration  1 RMS(Cart)=  0.00014586 RMS(Int)=  0.00000002
 Iteration  2 RMS(Cart)=  0.00000001 RMS(Int)=  0.00000002
 Variable       Old X    -DE/DX   Delta X   Delta X   Delta X     New X
                                 (Linear)    (Quad)   (Total)
    R1        2.42215  -0.00014  -0.00005  -0.00031  -0.00036   2.42179
    R2        2.60074   0.00014   0.00006   0.00037   0.00043   2.60117
    R3        2.56978   0.00019   0.00009   0.00049   0.00057   2.57035
    R4        1.87264   0.00002  -0.00001   0.00005   0.00004   1.87268
    R5        2.54864   0.00012  -0.00004   0.00010   0.00006   2.54870
    R6        2.47932   0.00011   0.00002   0.00011   0.00013   2.47945
    R7        2.00647   0.00001  -0.00001   0.00007   0.00005   2.00652
    A1        1.93059   0.00010   0.00000   0.00022   0.00022   1.93081
    A2        1.85954   0.00000   0.00012  -0.00011   0.00001   1.85955
    A3        2.09874   0.00001   0.00006  -0.00012  -0.00006   2.09869
    A4        1.89261  -0.00005  -0.00020   0.00000  -0.00020   1.89241
    A5        2.29184   0.00004   0.00014   0.00012   0.00026   2.29210
    A6        1.85590  -0.00008  -0.00013  -0.00014  -0.00028   1.85563
    A7        1.88614   0.00003   0.00021   0.00004   0.00025   1.88639
    A8        2.19710   0.00000  -0.00006   0.00009   0.00003   2.19713
    A9        2.19995  -0.00002  -0.00015  -0.00013  -0.00028   2.19967
    D1        0.00000   0.00000   0.00000   0.00000   0.00000   0.00000
    D2        0.00000   0.00000   0.00000   0.00000   0.00000   0.00000
    D3        3.14159   0.00000   0.00000   0.00000   0.00000   3.14159
    D4        0.00000   0.00000   0.00000   0.00000   0.00000   0.00000
    D5        0.00000   0.00000   0.00000   0.00000   0.00000   0.00000
    D6        3.14159   0.00000   0.00000   0.00000   0.00000   3.14159
    D7        3.14159   0.00000   0.00000   0.00000   0.00000   3.14159
    D8        0.00000   0.00000   0.00000   0.00000   0.00000   0.00000
    D9        0.00000   0.00000   0.00000   0.00000   0.00000   0.00000
   D10        3.14159   0.00000   0.00000   0.00000   0.00000   3.14159
         Item               Value     Threshold  Converged?
 Maximum Force            0.000191     0.000450     YES
 RMS     Force            0.000070     0.000300     YES
 Maximum Displacement     0.000352     0.001800     YES
 RMS     Displacement     0.000146     0.001200     YES
 Predicted change in Energy=-1.612991D-07
 Optimization completed.
    -- Stationary point found.
                         ----------------------------
                         !   Optimized Parameters   !
                         ! (Angstroms and Degrees)  !
 ------------------------                            -------------------------
 ! Name  Definition              Value          Derivative Info.             !
 -----------------------------------------------------------------------------
 ! R1    R(1,2)                  1.2817         -DE/DX =   -0.0001           !
 ! R2    R(1,5)                  1.3763         -DE/DX =    0.0001           !
 ! R3    R(2,3)                  1.3599         -DE/DX =    0.0002           !
 ! R4    R(3,4)                  0.991          -DE/DX =    0.               !
 ! R5    R(3,6)                  1.3487         -DE/DX =    0.0001           !
 ! R6    R(5,6)                  1.312          -DE/DX =    0.0001           !
 ! R7    R(6,7)                  1.0618         -DE/DX =    0.               !
 ! A1    A(2,1,5)              110.6146         -DE/DX =    0.0001           !
 ! A2    A(1,2,3)              106.5437         -DE/DX =    0.               !
 ! A3    A(2,3,4)              120.249          -DE/DX =    0.               !
 ! A4    A(2,3,6)              108.4385         -DE/DX =   -0.0001           !
 ! A5    A(4,3,6)              131.3125         -DE/DX =    0.               !
 ! A6    A(1,5,6)              106.3355         -DE/DX =   -0.0001           !
 ! A7    A(3,6,5)              108.0678         -DE/DX =    0.               !
 ! A8    A(3,6,7)              125.8846         -DE/DX =    0.               !
 ! A9    A(5,6,7)              126.0476         -DE/DX =    0.               !
 ! D1    D(5,1,2,3)              0.             -DE/DX =    0.               !
 ! D2    D(2,1,5,6)              0.             -DE/DX =    0.               !
 ! D3    D(1,2,3,4)            180.             -DE/DX =    0.               !
 ! D4    D(1,2,3,6)              0.             -DE/DX =    0.               !
 ! D5    D(2,3,6,5)              0.             -DE/DX =    0.               !
 ! D6    D(2,3,6,7)            180.             -DE/DX =    0.               !
 ! D7    D(4,3,6,5)            180.             -DE/DX =    0.               !
 ! D8    D(4,3,6,7)              0.             -DE/DX =    0.               !
 ! D9    D(1,5,6,3)              0.             -DE/DX =    0.               !
 ! D10   D(1,5,6,7)            180.             -DE/DX =    0.               !
 -----------------------------------------------------------------------------
 GradGradGradGradGradGradGradGradGradGradGradGradGradGradGradGradGradGrad

                          Input orientation:                          
 ---------------------------------------------------------------------
 Center     Atomic     Atomic              Coordinates (Angstroms)
 Number     Number      Type              X           Y           Z
 ---------------------------------------------------------------------
    1          7             0       -1.153203   -0.261748    0.000000
    2          7             0       -0.688759    0.932892    0.000000
    3          7             0        0.666534    0.821442    0.000000
    4          1             0        1.234215    1.633681    0.000000
    5          7             0       -0.128188   -1.180128    0.000000
    6          6             0        0.986809   -0.488659    0.000000
    7          1             0        1.970248   -0.888935    0.000000
 ---------------------------------------------------------------------
                    Distance matrix (angstroms):
                    1          2          3          4          5
     1  N    0.000000
     2  N    1.281746   0.000000
     3  N    2.117721   1.359868   0.000000
     4  H    3.048347   2.046689   0.990956   0.000000
     5  N    1.376255   2.186114   2.153570   3.126286   0.000000
     6  C    2.152008   2.197347   1.348681   2.136712   1.312001
     7  H    3.185798   3.223255   2.150596   2.627801   2.118543
                    6          7
     6  C    0.000000
     7  H    1.061779   0.000000
 Stoichiometry    CH2N4
 Framework group  CS[SG(CH2N4)]
 Deg. of freedom   11
 Full point group                 CS      NOp   2
 Largest Abelian subgroup         CS      NOp   2
 Largest concise Abelian subgroup C1      NOp   1
                         Standard orientation:                         
 ---------------------------------------------------------------------
 Center     Atomic     Atomic              Coordinates (Angstroms)
 Number     Number      Type              X           Y           Z
 ---------------------------------------------------------------------
    1          7             0       -0.730566   -0.929872    0.000000
    2          7             0       -1.122642    0.290436    0.000000
    3          7             0        0.000000    1.057844    0.000000
    4          1             0       -0.070962    2.046256    0.000000
    5          7             0        0.644042   -0.997168    0.000000
    6          6             0        1.074179    0.242320    0.000000
    7          1             0        2.090053    0.551147    0.000000
 ---------------------------------------------------------------------
 Rotational constants (GHZ):     10.5247093     10.2871440      5.2022854
 Isotopes: N-14,N-14,N-14,H-1,N-14,C-12,H-1

 **********************************************************************

            Population analysis using the SCF density.

 **********************************************************************

 Orbital Symmetries:
       Occupied  (A') (A') (A') (A') (A') (A') (A') (A') (A') (A')
                 (A') (A") (A') (A') (A') (A') (A") (A")
       Virtual   (A") (A") (A') (A') (A') (A') (A') (A") (A') (A')
                 (A') (A') (A") (A') (A") (A') (A') (A') (A") (A')
                 (A") (A') (A') (A') (A') (A') (A') (A') (A') (A')
                 (A') (A') (A') (A') (A') (A')
  The electronic state is 1-A'.
 Alpha  occ. eigenvalues --  -15.69203 -15.68970 -15.66776 -15.62723 -11.36677
 Alpha  occ. eigenvalues --   -1.54412  -1.28266  -1.23714  -0.92740  -0.90587
 Alpha  occ. eigenvalues --   -0.82267  -0.69492  -0.69248  -0.57613  -0.48154
 Alpha  occ. eigenvalues --   -0.47643  -0.47276  -0.44029
 Alpha virt. eigenvalues --    0.10920   0.16063   0.20585   0.25775   0.28239
 Alpha virt. eigenvalues --    0.32111   0.40455   0.44497   0.46738   0.53592
 Alpha virt. eigenvalues --    0.54731   0.64637   0.67252   0.67280   0.70809
 Alpha virt. eigenvalues --    0.71754   0.75030   0.75716   0.80033   0.83182
 Alpha virt. eigenvalues --    0.83668   0.86320   0.96993   1.01650   1.07371
 Alpha virt. eigenvalues --    1.25164   1.28972   1.43009   1.45303   1.61155
 Alpha virt. eigenvalues --    1.64478  23.75240  32.86338  33.00826  33.08859
 Alpha virt. eigenvalues --   33.13923
          Condensed to atoms (all electrons):
              1          2          3          4          5          6
  1  N    6.658981   0.376851  -0.121186   0.010434   0.326409  -0.196229
  2  N    0.376851   6.728234   0.177696  -0.018921  -0.144936  -0.129237
  3  N   -0.121186   0.177696   7.007171   0.264224  -0.091672   0.286876
  4  H    0.010434  -0.018921   0.264224   0.345592   0.006937  -0.039494
  5  N    0.326409  -0.144936  -0.091672   0.006937   6.611148   0.495471
  6  C   -0.196229  -0.129237   0.286876  -0.039494   0.495471   5.193200
  7  H    0.003645   0.000608  -0.021322   0.001618  -0.017546   0.367690
              7
  1  N    0.003645
  2  N    0.000608
  3  N   -0.021322
  4  H    0.001618
  5  N   -0.017546
  6  C    0.367690
  7  H    0.379836
 Total atomic charges:
              1
  1  N   -0.058906
  2  N    0.009704
  3  N   -0.501788
  4  H    0.429609
  5  N   -0.185812
  6  C    0.021723
  7  H    0.285470
 Sum of Mulliken charges=   0.00000
 Atomic charges with hydrogens summed into heavy atoms:
              1
  1  N   -0.058906
  2  N    0.009704
  3  N   -0.072179
  4  H    0.000000
  5  N   -0.185812
  6  C    0.307193
  7  H    0.000000
 Sum of Mulliken charges=   0.00000
 Electronic spatial extent (au):  <R**2>=   254.7820
 Charge=     0.0000 electrons
 Dipole moment (Debye):
    X=     2.9337    Y=     5.4629    Z=     0.0000  Tot=     6.2008
 Quadrupole moment (Debye-Ang):
   XX=   -30.3006   YY=   -28.4021   ZZ=   -29.2343
   XY=     2.3633   XZ=     0.0000   YZ=     0.0000
 Octapole moment (Debye-Ang**2):
  XXX=    14.4612  YYY=    25.6142  ZZZ=     0.0000  XYY=    -0.7548
  XXY=     6.0160  XXZ=     0.0000  XZZ=    -0.7160  YZZ=     0.6413
  YYZ=     0.0000  XYZ=     0.0000
 Hexadecapole moment (Debye-Ang**3):
 XXXX=  -146.6531 YYYY=  -124.7215 ZZZZ=   -27.6785 XXXY=     8.0127
 XXXZ=     0.0000 YYYX=    -0.2236 YYYZ=     0.0000 ZZZX=     0.0000
 ZZZY=     0.0000 XXYY=   -56.1159 XXZZ=   -31.6842 YYZZ=   -30.2516
 XXYZ=     0.0000 YYXZ=     0.0000 ZZXY=     0.0765
 N-N= 1.665545087982D+02 E-N=-9.341564715959D+02  KE= 2.569641615087D+02
 Symmetry A'   KE= 2.478158533547D+02
 Symmetry A"   KE= 9.148308154000D+00
 1\1\GINC-AURUM\FOpt\RHF\SDD\C1H2N4\RDJ3\08-Sep-2000\0\\#HF/SDD OPT FRE
 Q\\1H tetrazole c CH-NH-N=N-N= casno=288948\\0,1\N,-1.1532029791,-0.26
 17482126,0.\N,-0.6887591756,0.9328922593,0.\N,0.6665336658,0.821441946
 1,0.\H,1.2342152918,1.6336810299,0.\N,-0.1281880743,-1.1801277679,0.\C
 ,0.9868088026,-0.4886588641,0.\H,1.9702478344,-0.8889354201,0.\\Versio
 n=IBM-RS6000-G98RevA.6\State=1-A'\HF=-256.6395372\RMSD=5.580e-09\RMSF=
 1.178e-04\Dipole=2.2504927,0.9417005,0.\PG=CS [SG(C1H2N4)]\\@


 THE MOLECULE ALSO HAS A BODY.  WHEN THIS BODY IS HIT, THE MOLECULE
 FEELS HURT ALL OVER -- A. KITAIGORODSKI
 Job cpu time:  0 days  0 hours  2 minutes 21.2 seconds.
 File lengths (MBytes):  RWF=   12 Int=    0 D2E=    0 Chk=    8 Scr=    1
 Normal termination of Gaussian 98.
 Link1:  Proceeding to internal job step number  2.
 ------------------------------------------
 #N Geom=AllCheck Guess=TCheck RHF/SDD Freq
 ------------------------------------------
 1/10=4,29=7,30=1,38=1/1,3;
 2//2;
 3/5=17,6=7,11=1,16=1,25=1,30=1/1,2,3;
 4/5=101,7=1,11=1/1;
 5/5=2/2;
 8/6=4,11=11/1;
 10/13=10/2;
 11/6=2,8=1,9=11,15=111,16=11/1,2,10;
 10/6=1/2;
 6/7=2,8=2,9=2,10=2,18=1,28=1/1;
 7/8=1,10=1,25=1/1,2,3,16;
 1/10=4,30=1/3;
 99//99;
 ----------------------------------------
 1H tetrazole c CH-NH-N=N-N= casno=288948
 ----------------------------------------
 Redundant internal coordinates taken from checkpointfile:
 /wrk/rdj3/Gau-17294.chk
 Charge =  0 Multiplicity = 1
 N,0,-1.1532029791,-0.2617482126,0.
 N,0,-0.6887591756,0.9328922593,0.
 N,0,0.6665336658,0.8214419461,0.
 H,0,1.2342152918,1.6336810299,0.
 N,0,-0.1281880743,-1.1801277679,0.
 C,0,0.9868088026,-0.4886588641,0.
 H,0,1.9702478344,-0.8889354201,0.
 Recover connectivity data from disk.

 GradGradGradGradGradGradGradGradGradGradGradGradGradGradGradGradGradGrad
 Berny optimization.
 Initialization pass.
                         ----------------------------
                         !    Initial Parameters    !
                         ! (Angstroms and Degrees)  !
 ------------------------                            -------------------------
 ! Name  Definition              Value          Derivative Info.             !
 -----------------------------------------------------------------------------
 ! R1    R(1,2)                  1.2817         calculate D2E/DX2 analyticall!
 ! R2    R(1,5)                  1.3763         calculate D2E/DX2 analyticall!
 ! R3    R(2,3)                  1.3599         calculate D2E/DX2 analyticall!
 ! R4    R(3,4)                  0.991          calculate D2E/DX2 analyticall!
 ! R5    R(3,6)                  1.3487         calculate D2E/DX2 analyticall!
 ! R6    R(5,6)                  1.312          calculate D2E/DX2 analyticall!
 ! R7    R(6,7)                  1.0618         calculate D2E/DX2 analyticall!
 ! A1    A(2,1,5)              110.6146         calculate D2E/DX2 analyticall!
 ! A2    A(1,2,3)              106.5437         calculate D2E/DX2 analyticall!
 ! A3    A(2,3,4)              120.249          calculate D2E/DX2 analyticall!
 ! A4    A(2,3,6)              108.4385         calculate D2E/DX2 analyticall!
 ! A5    A(4,3,6)              131.3125         calculate D2E/DX2 analyticall!
 ! A6    A(1,5,6)              106.3355         calculate D2E/DX2 analyticall!
 ! A7    A(3,6,5)              108.0678         calculate D2E/DX2 analyticall!
 ! A8    A(3,6,7)              125.8846         calculate D2E/DX2 analyticall!
 ! A9    A(5,6,7)              126.0476         calculate D2E/DX2 analyticall!
 ! D1    D(5,1,2,3)              0.             calculate D2E/DX2 analyticall!
 ! D2    D(2,1,5,6)              0.             calculate D2E/DX2 analyticall!
 ! D3    D(1,2,3,4)            180.             calculate D2E/DX2 analyticall!
 ! D4    D(1,2,3,6)              0.             calculate D2E/DX2 analyticall!
 ! D5    D(2,3,6,5)              0.             calculate D2E/DX2 analyticall!
 ! D6    D(2,3,6,7)            180.             calculate D2E/DX2 analyticall!
 ! D7    D(4,3,6,5)            180.             calculate D2E/DX2 analyticall!
 ! D8    D(4,3,6,7)              0.             calculate D2E/DX2 analyticall!
 ! D9    D(1,5,6,3)              0.             calculate D2E/DX2 analyticall!
 ! D10   D(1,5,6,7)            180.             calculate D2E/DX2 analyticall!
 -----------------------------------------------------------------------------
 Trust Radius=3.00D-01 FncErr=1.00D-07 GrdErr=1.00D-07
 Number of steps in this run=  36 maximum allowed number of steps= 100.
 GradGradGradGradGradGradGradGradGradGradGradGradGradGradGradGradGradGrad

                          Input orientation:                          
 ---------------------------------------------------------------------
 Center     Atomic     Atomic              Coordinates (Angstroms)
 Number     Number      Type              X           Y           Z
 ---------------------------------------------------------------------
    1          7             0       -1.153203   -0.261748    0.000000
    2          7             0       -0.688759    0.932892    0.000000
    3          7             0        0.666534    0.821442    0.000000
    4          1             0        1.234215    1.633681    0.000000
    5          7             0       -0.128188   -1.180128    0.000000
    6          6             0        0.986809   -0.488659    0.000000
    7          1             0        1.970248   -0.888935    0.000000
 ---------------------------------------------------------------------
                    Distance matrix (angstroms):
                    1          2          3          4          5
     1  N    0.000000
     2  N    1.281746   0.000000
     3  N    2.117721   1.359868   0.000000
     4  H    3.048347   2.046689   0.990956   0.000000
     5  N    1.376255   2.186114   2.153570   3.126286   0.000000
     6  C    2.152008   2.197347   1.348681   2.136712   1.312001
     7  H    3.185798   3.223255   2.150596   2.627801   2.118543
                    6          7
     6  C    0.000000
[...]
 Red. masses --     3.7899                10.8192                 1.1415
 Frc consts  --     1.1811                 3.9664                 0.4450
 IR Inten    --    12.4299                 5.5220               198.1914
 Raman Activ --     0.7186                 0.3853                 0.2420
 Depolar     --     0.7500                 0.7500                 0.7500
 Atom AN      X      Y      Z        X      Y      Z        X      Y      Z
   1   7     0.00   0.00  -0.02     0.00   0.00   0.57     0.00   0.00  -0.01
   2   7     0.00   0.00   0.23     0.00   0.00  -0.43     0.00   0.00   0.01
   3   7     0.00   0.00  -0.29     0.00   0.00   0.11     0.00   0.00   0.09
   4   1     0.00   0.00  -0.25     0.00   0.00   0.23     0.00   0.00  -0.99
   5   7     0.00   0.00  -0.17     0.00   0.00  -0.46     0.00   0.00  -0.03
   6   6     0.00   0.00   0.24     0.00   0.00   0.18     0.00   0.00   0.03
   7   1     0.00   0.00   0.85     0.00   0.00   0.43     0.00   0.00  -0.07
                     4                      5                      6
                    A"                     A'                     A'
 Frequencies --  1011.2580              1044.8458              1103.0695
 Red. masses --     1.4303                 6.9458                 6.1420
 Frc consts  --     0.8618                 4.4676                 4.4032
 IR Inten    --     7.1103                 2.8766                24.0064
 Raman Activ --     0.7005                 3.6530                 4.5792
 Depolar     --     0.7500                 0.2251                 0.3642
 Atom AN      X      Y      Z        X      Y      Z        X      Y      Z
   1   7     0.00   0.00   0.01    -0.26   0.19   0.00     0.19   0.06   0.00
   2   7     0.00   0.00  -0.01    -0.21   0.11   0.00     0.32   0.22   0.00
   3   7     0.00   0.00   0.05    -0.10  -0.11   0.00    -0.21   0.01   0.00
   4   1     0.00   0.00  -0.08     0.19  -0.09   0.00    -0.19   0.01   0.00
   5   7     0.00   0.00   0.03     0.48  -0.16   0.00     0.02  -0.26   0.00
   6   6     0.00   0.00  -0.18     0.09  -0.10   0.00    -0.31  -0.07   0.00
   7   1     0.00   0.00   0.98    -0.13   0.69   0.00    -0.53   0.52   0.00
                     7                      8                      9
                    A'                     A'                     A'
 Frequencies --  1116.3001              1158.8503              1242.3625
 Red. masses --     4.7611                 5.2697                 2.0041
 Frc consts  --     3.4956                 4.1696                 1.8225
 IR Inten    --    17.7209                19.3718                20.4677
 Raman Activ --     4.0586                 8.4600                 3.8591
 Depolar     --     0.4147                 0.5230                 0.7056
 Atom AN      X      Y      Z        X      Y      Z        X      Y      Z
   1   7     0.22   0.05   0.00     0.29   0.17   0.00    -0.09  -0.12   0.00
   2   7    -0.28  -0.08   0.00    -0.21   0.10   0.00     0.02  -0.02   0.00
   3   7     0.11   0.27   0.00     0.01  -0.37   0.00     0.17  -0.01   0.00
   4   1     0.64   0.33   0.00     0.53  -0.36   0.00     0.52   0.01   0.00
   5   7     0.07  -0.18   0.00    -0.15   0.07   0.00    -0.02  -0.02   0.00
   6   6    -0.18  -0.06   0.00     0.02   0.02   0.00    -0.11   0.13   0.00
   7   1    -0.08  -0.43   0.00    -0.13   0.50   0.00    -0.31   0.75   0.00
                    10                     11                     12
                    A'                     A'                     A'
 Frequencies --  1380.3485              1452.6557              1545.3237
 Red. masses --     2.4861                 7.3207                 2.7775
 Frc consts  --     2.7910                 9.1018                 3.9079
 IR Inten    --     1.9878                24.4265                 7.5156
 Raman Activ --    12.8836                22.4617                13.3355
 Depolar     --     0.1624                 0.1445                 0.5640
 Atom AN      X      Y      Z        X      Y      Z        X      Y      Z
   1   7    -0.04  -0.01   0.00    -0.07   0.47   0.00     0.01   0.02   0.00
   2   7     0.07   0.02   0.00     0.14  -0.43   0.00     0.05  -0.10   0.00
   3   7    -0.01  -0.10   0.00     0.17  -0.05   0.00    -0.12   0.12   0.00
   4   1     0.59  -0.08   0.00    -0.62  -0.14   0.00     0.64   0.19   0.00
   5   7     0.13   0.19   0.00    -0.02   0.01   0.00    -0.05   0.15   0.00
   6   6    -0.22  -0.05   0.00    -0.18  -0.01   0.00     0.09  -0.28   0.00
   7   1    -0.06  -0.72   0.00    -0.27   0.17   0.00    -0.17   0.61   0.00
                    13                     14                     15
                    A'                     A'                     A'
 Frequencies --  1666.3464              3538.5280              3971.5143
 Red. masses --     2.3947                 1.1065                 1.0867
 Frc consts  --     3.9177                 8.1627                10.0987
 IR Inten    --    47.5475                 2.6474               177.0563
 Raman Activ --     3.0736                63.4140                60.9178
 Depolar     --     0.6057                 0.2585                 0.2759
 Atom AN      X      Y      Z        X      Y      Z        X      Y      Z
   1   7     0.04  -0.08   0.00     0.00   0.00   0.00     0.00   0.00   0.00
   2   7    -0.09   0.09   0.00     0.00   0.00   0.00     0.00   0.00   0.00
   3   7     0.16   0.02   0.00     0.00   0.00   0.00     0.01  -0.08   0.00
   4   1    -0.85  -0.05   0.00     0.01   0.02   0.00    -0.07   0.99   0.00
   5   7     0.05   0.13   0.00     0.00   0.00   0.00     0.00   0.00   0.00
   6   6    -0.09  -0.20   0.00     0.09   0.03   0.00     0.00   0.00   0.00
   7   1    -0.28   0.27   0.00    -0.95  -0.29   0.00     0.02   0.00   0.00

 -------------------
 - Thermochemistry -
 -------------------
 Temperature   298.150 Kelvin.  Pressure   1.00000 Atm.
 Atom  1 has atomic number  7 and mass  14.00307
 Atom  2 has atomic number  7 and mass  14.00307
 Atom  3 has atomic number  7 and mass  14.00307
 Atom  4 has atomic number  1 and mass   1.00783
 Atom  5 has atomic number  7 and mass  14.00307
 Atom  6 has atomic number  6 and mass  12.00000
 Atom  7 has atomic number  1 and mass   1.00783
 Molecular mass:    70.02795 amu.
 Principal axes and moments of inertia in atomic units:
                           1         2         3
     EIGENVALUES --   171.47658 175.43656 346.91314
           X            0.99987  -0.01639   0.00000
           Y            0.01639   0.99987   0.00000
           Z            0.00000   0.00000   1.00000
 THIS MOLECULE IS AN ASYMMETRIC TOP.
 ROTATIONAL SYMMETRY NUMBER  1.
 ROTATIONAL TEMPERATURES (KELVIN)      0.50510     0.49370     0.24967
 ROTATIONAL CONSTANTS (GHZ)           10.52471    10.28714     5.20229
 Zero-point vibrational energy     134944.6 (Joules/Mol)
                                   32.25253 (Kcal/Mol)
 VIBRATIONAL TEMPERATURES:   1046.38  1134.92  1170.41  1454.97  1503.29
          (KELVIN)           1587.06  1606.10  1667.32  1787.47  1986.00
                             2090.04  2223.36  2397.49  5091.12  5714.09
 
 Zero-point correction=                           0.051398 (Hartree/Particle)
 Thermal correction to Energy=                    0.054657
 Thermal correction to Enthalpy=                  0.055602
 Thermal correction to Gibbs Free Energy=         0.025371
 Sum of electronic and zero-point Energies=           -256.588140
 Sum of electronic and thermal Energies=              -256.584880
 Sum of electronic and thermal Enthalpies=            -256.583936
 Sum of electronic and thermal Free Energies=         -256.614166
 
                     E (Thermal)             CV                S
                      KCAL/MOL        CAL/MOL-KELVIN    CAL/MOL-KELVIN
 TOTAL                   34.298              9.996             63.626
 ELECTRONIC               0.000              0.000              0.000
 TRANSLATIONAL            0.889              2.981             38.656
 ROTATIONAL               0.889              2.981             23.860
 VIBRATIONAL             32.521              4.034              1.109
                       Q            LOG10(Q)             LN(Q)
 TOTAL BOT       0.213917D-11        -11.669754        -26.870602
 TOTAL V=0       0.936223D+12         11.971379         27.565119
 VIB (BOT)       0.253955D-23        -23.595244        -54.330057
 VIB (V=0)       0.111145D+01          0.045889          0.105664
 ELECTRONIC      0.100000D+01          0.000000          0.000000
 TRANSLATIONAL   0.230339D+08          7.362368         16.952478
 ROTATIONAL      0.365698D+05          4.563122         10.506977
 ***** Axes restored to original set *****
 -------------------------------------------------------------------
 Center     Atomic                   Forces (Hartrees/Bohr)
 Number     Number              X              Y              Z
 -------------------------------------------------------------------
    1          7           0.000034199    0.000263590    0.000000000
    2          7          -0.000282865   -0.000130923    0.000000000
    3          7           0.000216081    0.000117053    0.000000000
    4          1          -0.000002491    0.000024141    0.000000000
    5          7          -0.000007958   -0.000246390    0.000000000
    6          6           0.000034916   -0.000014469    0.000000000
    7          1           0.000008118   -0.000013003    0.000000000
 -------------------------------------------------------------------
 Cartesian Forces:  Max     0.000282865 RMS     0.000117761

 GradGradGradGradGradGradGradGradGradGradGradGradGradGradGradGradGradGrad
 Berny optimization.
 Internal  Forces:  Max     0.000191351 RMS     0.000069669
 Search for a local minimum.
 Step number   1 out of a maximum of  36
 All quantities printed in internal units (Hartrees-Bohrs-Radians)
 Second derivative matrix not updated -- analytic derivatives used.
     Eigenvalues ---    0.01431   0.03310   0.08579   0.09123   0.11926
     Eigenvalues ---    0.13154   0.24268   0.27226   0.38923   0.43675
     Eigenvalues ---    0.50570   0.53731   0.56024   0.68290   0.72560
     Eigenvalues --- 1000.000001000.000001000.000001000.000001000.00000
     Eigenvalues --- 1000.000001000.000001000.000001000.000001000.00000
     Eigenvalues --- 1000.00000
 Angle between quadratic step and forces=  20.68 degrees.
 Linear search not attempted -- first point.
 Iteration  1 RMS(Cart)=  0.00016373 RMS(Int)=  0.00000002
 Iteration  2 RMS(Cart)=  0.00000002 RMS(Int)=  0.00000001
 Variable       Old X    -DE/DX   Delta X   Delta X   Delta X     New X
                                 (Linear)    (Quad)   (Total)
    R1        2.42215  -0.00014   0.00000  -0.00047  -0.00047   2.42167
    R2        2.60074   0.00014   0.00000   0.00051   0.00051   2.60126
    R3        2.56978   0.00019   0.00000   0.00067   0.00067   2.57044
    R4        1.87264   0.00002   0.00000   0.00003   0.00003   1.87267
    R5        2.54864   0.00012   0.00000   0.00017   0.00017   2.54881
    R6        2.47932   0.00011   0.00000   0.00012   0.00012   2.47945
    R7        2.00647   0.00001   0.00000   0.00004   0.00004   2.00651
    A1        1.93059   0.00010   0.00000   0.00026   0.00026   1.93085
    A2        1.85954   0.00000   0.00000   0.00003   0.00003   1.85956
    A3        2.09874   0.00001   0.00000  -0.00002  -0.00002   2.09872
    A4        1.89261  -0.00005   0.00000  -0.00024  -0.00024   1.89237
    A5        2.29184   0.00004   0.00000   0.00026   0.00026   2.29210
    A6        1.85590  -0.00008   0.00000  -0.00028  -0.00028   1.85563
    A7        1.88614   0.00003   0.00000   0.00023   0.00023   1.88637
    A8        2.19710   0.00000   0.00000  -0.00003  -0.00003   2.19707
    A9        2.19995  -0.00002   0.00000  -0.00020  -0.00020   2.19975
    D1        0.00000   0.00000   0.00000   0.00000   0.00000   0.00000
    D2        0.00000   0.00000   0.00000   0.00000   0.00000   0.00000
    D3        3.14159   0.00000   0.00000   0.00000   0.00000   3.14159
    D4        0.00000   0.00000   0.00000   0.00000   0.00000   0.00000
    D5        0.00000   0.00000   0.00000   0.00000   0.00000   0.00000
    D6        3.14159   0.00000   0.00000   0.00000   0.00000   3.14159
    D7        3.14159   0.00000   0.00000   0.00000   0.00000   3.14159
    D8        0.00000   0.00000   0.00000   0.00000   0.00000   0.00000
    D9        0.00000   0.00000   0.00000   0.00000   0.00000   0.00000
   D10        3.14159   0.00000   0.00000   0.00000   0.00000   3.14159
         Item               Value     Threshold  Converged?
 Maximum Force            0.000191     0.000450     YES
 RMS     Force            0.000070     0.000300     YES
 Maximum Displacement     0.000420     0.001800     YES
 RMS     Displacement     0.000164     0.001200     YES
 Predicted change in Energy=-1.924957D-07
 Optimization completed.
    -- Stationary point found.
                         ----------------------------
                         !   Optimized Parameters   !
                         ! (Angstroms and Degrees)  !
 ------------------------                            -------------------------
 ! Name  Definition              Value          Derivative Info.             !
 -----------------------------------------------------------------------------
 ! R1    R(1,2)                  1.2817         -DE/DX =   -0.0001           !
 ! R2    R(1,5)                  1.3763         -DE/DX =    0.0001           !
 ! R3    R(2,3)                  1.3599         -DE/DX =    0.0002           !
 ! R4    R(3,4)                  0.991          -DE/DX =    0.               !
 ! R5    R(3,6)                  1.3487         -DE/DX =    0.0001           !
 ! R6    R(5,6)                  1.312          -DE/DX =    0.0001           !
 ! R7    R(6,7)                  1.0618         -DE/DX =    0.               !
 ! A1    A(2,1,5)              110.6146         -DE/DX =    0.0001           !
 ! A2    A(1,2,3)              106.5437         -DE/DX =    0.               !
 ! A3    A(2,3,4)              120.249          -DE/DX =    0.               !
 ! A4    A(2,3,6)              108.4385         -DE/DX =   -0.0001           !
 ! A5    A(4,3,6)              131.3125         -DE/DX =    0.               !
 ! A6    A(1,5,6)              106.3355         -DE/DX =   -0.0001           !
 ! A7    A(3,6,5)              108.0678         -DE/DX =    0.               !
 ! A8    A(3,6,7)              125.8846         -DE/DX =    0.               !
 ! A9    A(5,6,7)              126.0476         -DE/DX =    0.               !
 ! D1    D(5,1,2,3)              0.             -DE/DX =    0.               !
 ! D2    D(2,1,5,6)              0.             -DE/DX =    0.               !
 ! D3    D(1,2,3,4)            180.             -DE/DX =    0.               !
 ! D4    D(1,2,3,6)              0.             -DE/DX =    0.               !
 ! D5    D(2,3,6,5)              0.             -DE/DX =    0.               !
 ! D6    D(2,3,6,7)            180.             -DE/DX =    0.               !
 ! D7    D(4,3,6,5)            180.             -DE/DX =    0.               !
 ! D8    D(4,3,6,7)              0.             -DE/DX =    0.               !
 ! D9    D(1,5,6,3)              0.             -DE/DX =    0.               !
 ! D10   D(1,5,6,7)            180.             -DE/DX =    0.               !
 -----------------------------------------------------------------------------
 GradGradGradGradGradGradGradGradGradGradGradGradGradGradGradGradGradGrad

 1\1\GINC-AURUM\Freq\RHF\SDD\C1H2N4\RDJ3\08-Sep-2000\0\\#N GEOM=ALLCHEC
 K GUESS=TCHECK RHF/SDD FREQ\\1H tetrazole c CH-NH-N=N-N= casno=288948\
 \0,1\N,-1.1532029791,-0.2617482126,0.\N,-0.6887591756,0.9328922593,0.\
 N,0.6665336658,0.8214419461,0.\H,1.2342152918,1.6336810299,0.\N,-0.128
 1880743,-1.1801277679,0.\C,0.9868088026,-0.4886588641,0.\H,1.970247834
 4,-0.8889354201,0.\\Version=IBM-RS6000-G98RevA.6\State=1-A'\HF=-256.63
 95372\RMSD=1.546e-09\RMSF=1.178e-04\Dipole=2.2504926,0.9417005,0.\Dipo
 leDeriv=0.0917438,-0.200561,0.,-0.1742208,0.0409205,0.,0.,0.,-0.163822
 1,0.3144509,0.2968941,0.,0.2130833,-0.3152756,0.,0.,0.,-0.0814435,-0.5
 154759,-0.3737289,0.,-0.2378777,-0.4244699,0.,0.,0.,-0.3179664,0.29072
 69,0.072093,0.,0.0663326,0.3370265,0.,0.,0.,0.4561289,-0.5456421,0.168
 1604,0.,-0.1267476,-0.2647161,0.,0.,0.,-0.2609702,0.2882126,0.0224512,
 0.,0.2509338,0.4704375,0.,0.,0.,0.1665383,0.0759837,0.0146913,0.,0.008
 4964,0.1560772,0.,0.,0.,0.201535\Polar=36.8127646,0.3340735,35.5461499
 ,0.,0.,14.7130614\PolarDeriv=-9.7372559,-3.3470564,-2.23926,0.,0.,-0.2
 778793,-3.1351934,3.1253272,-5.8495159,0.,0.,-0.12704,0.,0.,0.,-3.1592
 795,-1.7846174,0.,-2.3165095,1.1385665,-2.1606282,0.,0.,0.2965842,4.43
 47022,-5.6608437,12.6971091,0.,0.,0.1232015,0.,0.,0.,-1.5279664,3.7988
 235,0.,0.4518605,0.6787619,0.3530817,0.,0.,0.0682424,1.3602185,1.95483
 34,-1.3064393,0.,0.,0.2533317,0.,0.,0.,0.5811688,1.9202569,0.,2.839909
 4,2.5257601,2.2934347,0.,0.,0.0502349,1.7809408,2.7468681,5.5340043,0.
 ,0.,0.2051326,0.,0.,0.,0.5107177,0.6383917,0.,-3.3701893,3.365358,-2.2
 277737,0.,0.,0.3763936,-2.3096885,-1.3647442,-10.5391714,0.,0.,-0.3851
 548,0.,0.,0.,-1.9303724,-3.0147722,0.,4.5979931,-1.9722419,2.4232598,0
 .,0.,-1.0669228,-0.3197766,-2.8720039,1.2546544,0.,0.,0.3287985,0.,0.,
 0.,5.2400295,-1.3734994,0.,7.5341918,-2.3891483,1.5578858,0.,0.,0.5533
 47,-1.811203,2.0705631,-1.7906412,0.,0.,-0.3982695,0.,0.,0.,0.2857022,
 -0.1845832,0.\HyperPolar=37.0335748,6.8095438,4.6715168,21.0255957,0.,
 0.,0.,15.3515595,-2.3062571,0.\PG=CS [SG(C1H2N4)]\NImag=0\\0.61672071,
 0.12664817,0.58014907,0.,0.,0.14112807,-0.15783374,-0.14408050,0.,0.47
 179556,-0.06901526,-0.41481820,0.,-0.00049315,0.74970923,0.,0.,-0.1093
 8979,0.,0.,0.13160734,-0.13258805,-0.11464950,0.,-0.23524945,-0.003711
 11,0.,0.77651114,-0.03103055,-0.07704377,0.,0.06105246,-0.13790314,0.,
 0.26231834,1.06208744,0.,0.,0.02981453,0.,0.,-0.08603047,0.,0.,0.14155
 507,-0.01113402,0.00136915,0.,-0.00672436,-0.03964541,0.,-0.23685022,-
 0.21280094,0.,0.23544374,0.00905014,0.00438757,0.,0.00707147,0.0153366
 4,0.,-0.22210722,-0.40695593,0.,0.22654877,0.39919350,0.,0.,0.00795532
 ,0.,0.,-0.00909346,0.,0.,-0.02378739,0.,0.,0.02255150,-0.17710199,0.06
 549133,0.,0.00119273,0.10286038,0.,-0.00376292,-0.13368763,0.,0.000391
 43,0.00246540,0.,0.55683617,0.00826095,-0.13775842,0.,-0.02070563,-0.1
 3603285,0.,0.00068062,-0.10607557,0.,0.00910856,-0.00547801,0.,0.11785
 982,0.59628370,0.,0.,-0.10372711,0.,0.,0.04012280,0.,0.,0.02741465,0.,
 0.,0.00893463,0.,0.,0.12971140,-0.13621362,0.06681616,0.,-0.07445681,0
 .01384941,0.,-0.17675411,0.06141790,0.,0.01931073,-0.02394809,0.,-0.36
 469030,-0.12960489,0.,1.11084148,-0.03781290,0.04603216,0.,0.10066573,
 -0.07022630,0.,0.03937330,-0.32764300,0.,0.01574665,-0.00622278,0.,-0.
 13249964,-0.22609647,0.,-0.11403809,0.70108215,0.,0.,0.02340706,0.,0.,
 0.02667801,0.,0.,-0.09031694,0.,0.,-0.00508950,0.,0.,-0.09884964,0.,0.
 ,0.18800738,-0.00184929,-0.00159482,0.,0.00127608,-0.00384487,0.,0.008
 69362,-0.00726958,0.,-0.00043729,0.00091952,0.,-0.01286512,0.01440058,
 0.,-0.37803737,0.12856496,0.,0.38321938,-0.00610054,-0.00094840,0.,-0.
 00351038,-0.00606538,0.,0.03809557,-0.00646603,0.,-0.00032679,-0.00026
 099,0.,-0.02248967,0.01515760,0.,0.12550760,-0.11692576,0.,-0.13117579
 ,0.11550896,0.,0.,0.01081192,0.,0.,0.00610556,0.,0.,0.00135054,0.,0.,-
 0.00147110,0.,0.,-0.00360673,0.,0.,-0.04383637,0.,0.,0.03064617\\-0.00
 003420,-0.00026359,0.,0.00028286,0.00013092,0.,-0.00021608,-0.00011705
 ,0.,0.00000249,-0.00002414,0.,0.00000796,0.00024639,0.,-0.00003492,0.0
 0001447,0.,-0.00000812,0.00001300,0.\\\@


 NATURE REVEALS EVERY SECRET ONCE.
                    - RALPH WALDO EMERSON
 Job cpu time:  0 days  0 hours  1 minutes 21.2 seconds.
 File lengths (MBytes):  RWF=   12 Int=    0 D2E=    0 Chk=    8 Scr=    1
 Normal termination of Gaussian 98.
