 host = p768 (kernel = 2.6.10-P3)
 Running on 32-bit system
 Current disk usage on p768
/dev/hda1              35G  1.3G   32G   4% /
 Entering Gaussian System, Link 0=/usr/local/gaussian03-rev-C02-32-2.6/g03/g03
 Initial command:
 /usr/local/gaussian03-rev-C02-32-2.6/g03/l1.exe /scratch/Gau-25653.inp -scrdir=/scratch/
 Entering Link 1 = /usr/local/gaussian03-rev-C02-32-2.6/g03/l1.exe PID=     25655.
  
 Copyright (c) 1988,1990,1992,1993,1995,1998,2003,2004, Gaussian, Inc.
                  All Rights Reserved.
  
 This is the Gaussian(R) 03 program.  It is based on the
 the Gaussian(R) 98 system (copyright 1998, Gaussian, Inc.),
 the Gaussian(R) 94 system (copyright 1995, Gaussian, Inc.),
 the Gaussian 92(TM) system (copyright 1992, Gaussian, Inc.),
 the Gaussian 90(TM) system (copyright 1990, Gaussian, Inc.),
 the Gaussian 88(TM) system (copyright 1988, Gaussian, Inc.),
 the Gaussian 86(TM) system (copyright 1986, Carnegie Mellon
 University), and the Gaussian 82(TM) system (copyright 1983,
 Carnegie Mellon University). Gaussian is a federally registered
 trademark of Gaussian, Inc.
  
 This software contains proprietary and confidential information,
 including trade secrets, belonging to Gaussian, Inc.
  
 This software is provided under written license and may be
 used, copied, transmitted, or stored only in accord with that
 written license.
  
 The following legend is applicable only to US Government
 contracts under FAR:
  
                    RESTRICTED RIGHTS LEGEND
  
 Use, reproduction and disclosure by the US Government is
 subject to restrictions as set forth in subparagraphs (a)
 and (c) of the Commercial Computer Software - Restricted
 Rights clause in FAR 52.227-19.
  
 Gaussian, Inc.
 340 Quinnipiac St., Bldg. 40, Wallingford CT 06492
  
  
 ---------------------------------------------------------------
 Warning -- This program may not be used in any manner that
 competes with the business of Gaussian, Inc. or will provide
 assistance to any competitor of Gaussian, Inc.  The licensee
 of this program is prohibited from giving any competitor of
 Gaussian, Inc. access to this program.  By using this program,
 the user acknowledges that Gaussian, Inc. is engaged in the
 business of creating and licensing software in the field of
 computational chemistry and represents and warrants to the
 licensee that it is not a competitor of Gaussian, Inc. and that
 it will not use this program in any manner prohibited above.
 ---------------------------------------------------------------
  

 Cite this work as:
 Gaussian 03, Revision C.02,
 M. J. Frisch, G. W. Trucks, H. B. Schlegel, G. E. Scuseria, 
 M. A. Robb, J. R. Cheeseman, J. A. Montgomery, Jr., T. Vreven, 
 K. N. Kudin, J. C. Burant, J. M. Millam, S. S. Iyengar, J. Tomasi, 
 V. Barone, B. Mennucci, M. Cossi, G. Scalmani, N. Rega, 
 G. A. Petersson, H. Nakatsuji, M. Hada, M. Ehara, K. Toyota, 
 R. Fukuda, J. Hasegawa, M. Ishida, T. Nakajima, Y. Honda, O. Kitao, 
 H. Nakai, M. Klene, X. Li, J. E. Knox, H. P. Hratchian, J. B. Cross, 
 C. Adamo, J. Jaramillo, R. Gomperts, R. E. Stratmann, O. Yazyev, 
 A. J. Austin, R. Cammi, C. Pomelli, J. W. Ochterski, P. Y. Ayala, 
 K. Morokuma, G. A. Voth, P. Salvador, J. J. Dannenberg, 
 V. G. Zakrzewski, S. Dapprich, A. D. Daniels, M. C. Strain, 
 O. Farkas, D. K. Malick, A. D. Rabuck, K. Raghavachari, 
 J. B. Foresman, J. V. Ortiz, Q. Cui, A. G. Baboul, S. Clifford, 
 J. Cioslowski, B. B. Stefanov, G. Liu, A. Liashenko, P. Piskorz, 
 I. Komaromi, R. L. Martin, D. J. Fox, T. Keith, M. A. Al-Laham, 
 C. Y. Peng, A. Nanayakkara, M. Challacombe, P. M. W. Gill, 
 B. Johnson, W. Chen, M. W. Wong, C. Gonzalez, and J. A. Pople, 
 Gaussian, Inc., Wallingford CT, 2004.
 
 ******************************************
 Gaussian 03:  IA32L-G03RevC.02 12-Jun-2004
                13-Jul-2005 
 ******************************************
 %mem=56000000
 ------------------------
 #HF/aug-cc-pVTZ opt freq
 ------------------------
 1/18=20,38=1/1,3;
 2/9=110,17=6,18=5,40=1/2;
 3/5=16,6=1,7=10,11=9,16=1,25=1,30=1/1,2,3;
 4//1;
 5/5=2,38=5/2;
 6/7=2,8=2,9=2,10=2,28=1/1;
 7//1,2,3,16;
 1/18=20/3(1);
 99//99;
 2/9=110/2;
 3/5=16,6=1,7=10,11=9,16=1,25=1,30=1/1,2,3;
 4/5=5,16=3/1;
 5/5=2,38=5/2;
 7//1,2,3,16;
 1/18=20/3(-5);
 2/9=110/2;
 6/7=2,8=2,9=2,10=2,19=2,28=1/1;
 99/9=1/99;
 ------------------------------------------------
 1htz 1H-Tetrazole casno=288948 method=1 basis=18
 ------------------------------------------------
 Symbolic Z-matrix:
 Charge =  0 Multiplicity = 1
 N                    -0.7162   -0.89854   0. 
 N                    -1.0919    0.29005   0. 
 N                     0.        1.03647   0. 
 H                    -0.05761   2.02479   0. 
 N                     0.62099  -0.98728   0. 
 C                     1.04981   0.22483   0. 
 H                     2.0685    0.54123   0. 
 

 GradGradGradGradGradGradGradGradGradGradGradGradGradGradGradGradGradGrad
 Berny optimization.
 Initialization pass.
                           ----------------------------
                           !    Initial Parameters    !
                           ! (Angstroms and Degrees)  !
 --------------------------                            --------------------------
 ! Name  Definition              Value          Derivative Info.                !
 --------------------------------------------------------------------------------
 ! R1    R(1,2)                  1.2466         estimate D2E/DX2                !
 ! R2    R(1,5)                  1.3401         estimate D2E/DX2                !
 ! R3    R(2,3)                  1.3226         estimate D2E/DX2                !
 ! R4    R(3,4)                  0.99           estimate D2E/DX2                !
 ! R5    R(3,6)                  1.327          estimate D2E/DX2                !
 ! R6    R(5,6)                  1.2857         estimate D2E/DX2                !
 ! R7    R(6,7)                  1.0667         estimate D2E/DX2                !
 ! A1    A(2,1,5)              111.3378         estimate D2E/DX2                !
 ! A2    A(1,2,3)              106.8153         estimate D2E/DX2                !
 ! A3    A(2,3,4)              121.0203         estimate D2E/DX2                !
 ! A4    A(2,3,6)              107.9352         estimate D2E/DX2                !
 ! A5    A(4,3,6)              131.0446         estimate D2E/DX2                !
 ! A6    A(1,5,6)              105.686          estimate D2E/DX2                !
 ! A7    A(3,6,5)              108.2257         estimate D2E/DX2                !
 ! A8    A(3,6,7)              125.0369         estimate D2E/DX2                !
 ! A9    A(5,6,7)              126.7374         estimate D2E/DX2                !
 ! D1    D(5,1,2,3)              0.0            estimate D2E/DX2                !
 ! D2    D(2,1,5,6)              0.0            estimate D2E/DX2                !
 ! D3    D(1,2,3,4)            180.0            estimate D2E/DX2                !
 ! D4    D(1,2,3,6)              0.0            estimate D2E/DX2                !
 ! D5    D(2,3,6,5)              0.0            estimate D2E/DX2                !
 ! D6    D(2,3,6,7)            180.0            estimate D2E/DX2                !
 ! D7    D(4,3,6,5)            180.0            estimate D2E/DX2                !
 ! D8    D(4,3,6,7)              0.0            estimate D2E/DX2                !
 ! D9    D(1,5,6,3)              0.0            estimate D2E/DX2                !
 ! D10   D(1,5,6,7)            180.0            estimate D2E/DX2                !
 --------------------------------------------------------------------------------
 Trust Radius=3.00D-01 FncErr=1.00D-07 GrdErr=1.00D-07
 Number of steps in this run=  36 maximum allowed number of steps= 100.
 GradGradGradGradGradGradGradGradGradGradGradGradGradGradGradGradGradGrad

                          Input orientation:                          
 ---------------------------------------------------------------------
 Center     Atomic     Atomic              Coordinates (Angstroms)
 Number     Number      Type              X           Y           Z
 ---------------------------------------------------------------------
    1          7             0       -0.716204   -0.898535    0.000000
    2          7             0       -1.091900    0.290054    0.000000
    3          7             0        0.000000    1.036471    0.000000
    4          1             0       -0.057610    2.024792    0.000000
    5          7             0        0.620993   -0.987277    0.000000
    6          6             0        1.049815    0.224832    0.000000
    7          1             0        2.068499    0.541230    0.000000
 ---------------------------------------------------------------------
                    Distance matrix (angstroms):
                    1          2          3          4          5
     1  N    0.000000
     2  N    1.246552   0.000000
     3  N    2.063297   1.322643   0.000000
     4  H    2.996596   2.019671   0.989999   0.000000
     5  N    1.340138   2.136721   2.116882   3.087566   0.000000
     6  C    2.093030   2.142708   1.326978   2.113350   1.285728
     7  H    3.134883   3.170365   2.126958   2.592546   2.105138
                    6          7
     6  C    0.000000
     7  H    1.066689   0.000000
 Stoichiometry    CH2N4
 Framework group  CS[SG(CH2N4)]
 Deg. of freedom    11
 Full point group                 CS      NOp   2
 Largest Abelian subgroup         CS      NOp   2
 Largest concise Abelian subgroup C1      NOp   1
                         Standard orientation:                         
 ---------------------------------------------------------------------
 Center     Atomic     Atomic              Coordinates (Angstroms)
 Number     Number      Type              X           Y           Z
 ---------------------------------------------------------------------
    1          7             0       -0.716204   -0.898535    0.000000
    2          7             0       -1.091900    0.290054    0.000000
    3          7             0        0.000000    1.036471    0.000000
    4          1             0       -0.057610    2.024792    0.000000
    5          7             0        0.620993   -0.987277    0.000000
    6          6             0        1.049815    0.224832    0.000000
    7          1             0        2.068499    0.541230    0.000000
 ---------------------------------------------------------------------
 Rotational constants (GHZ):     10.9773445     10.7894190      5.4412853
 Standard basis: Aug-CC-pVTZ (5D, 7F)
 There are   182 symmetry adapted basis functions of A'  symmetry.
 There are    94 symmetry adapted basis functions of A"  symmetry.
 Integral buffers will be    262144 words long.
 Raffenetti 1 integral format.
 Two-electron integral symmetry is turned on.
   276 basis functions,   419 primitive gaussians,   325 cartesian basis functions
    18 alpha electrons       18 beta electrons
       nuclear repulsion energy       170.2779210726 Hartrees.
 NAtoms=    7 NActive=    7 NUniq=    7 SFac= 1.00D+00 NAtFMM=   60 Big=F
 One-electron integrals computed using PRISM.
 NBasis=   276 RedAO= T  NBF=   182    94
 NBsUse=   276 1.00D-06 NBFU=   182    94
 Harris functional with IExCor=  205 diagonalized for initial guess.
 ExpMin= 2.53D-02 ExpMax= 1.14D+04 ExpMxC= 3.89D+02 IAcc=3 IRadAn=         5 AccDes= 0.00D+00
 HarFok:  IExCor= 205 AccDes= 0.00D+00 IRadAn=         5 IDoV=1
 ScaDFX=  1.000000  1.000000  1.000000  1.000000
 Initial guess orbital symmetries:
       Occupied  (A') (A') (A') (A') (A') (A') (A') (A') (A') (A')
                 (A') (A') (A") (A') (A") (A') (A") (A')
       Virtual   (A") (A") (A') (A') (A') (A") (A') (A') (A') (A')
                 (A') (A') (A") (A") (A') (A') (A') (A") (A') (A')
                 (A") (A') (A') (A") (A') (A') (A') (A") (A') (A')
                 (A') (A') (A") (A') (A') (A') (A") (A') (A') (A')
                 (A') (A") (A') (A") (A') (A") (A") (A') (A') (A")
                 (A') (A') (A") (A') (A') (A') (A") (A') (A') (A')
                 (A") (A') (A') (A") (A") (A') (A") (A') (A") (A')
                 (A') (A') (A") (A') (A') (A') (A") (A") (A') (A")
                 (A') (A') (A') (A') (A") (A') (A") (A') (A") (A')
                 (A") (A") (A') (A') (A') (A") (A') (A') (A') (A")
                 (A') (A') (A") (A") (A') (A') (A") (A') (A") (A")
                 (A') (A') (A') (A") (A') (A") (A') (A') (A') (A")
                 (A") (A') (A') (A') (A') (A") (A") (A') (A') (A')
                 (A") (A") (A') (A') (A") (A') (A') (A") (A') (A")
                 (A') (A') (A') (A") (A') (A") (A') (A') (A") (A')
                 (A") (A') (A') (A') (A") (A') (A") (A') (A') (A')
                 (A") (A') (A') (A") (A') (A") (A') (A") (A") (A')
                 (A') (A") (A') (A') (A") (A') (A') (A') (A') (A")
                 (A') (A") (A') (A') (A") (A") (A') (A") (A") (A')
                 (A") (A') (A") (A') (A') (A') (A') (A") (A') (A')
                 (A") (A') (A") (A') (A') (A") (A') (A') (A') (A")
                 (A') (A') (A") (A') (A") (A") (A') (A") (A') (A')
                 (A") (A") (A') (A") (A") (A') (A") (A') (A") (A')
                 (A') (A") (A') (A") (A') (A') (A') (A") (A") (A')
                 (A') (A") (A') (A') (A') (A') (A') (A') (A') (A')
                 (A') (A') (A') (A') (A') (A') (A') (A')
 The electronic state of the initial guess is 1-A'.
 Requested convergence on RMS density matrix=1.00D-08 within 128 cycles.
 Requested convergence on MAX density matrix=1.00D-06.
 Requested convergence on             energy=1.00D-06.
 No special actions if energy rises.
 SCF Done:  E(RHF) =  -256.852319568     A.U. after   14 cycles
             Convg  =    0.6636D-08             -V/T =  2.0005
             S**2   =   0.0000

 **********************************************************************

            Population analysis using the SCF density.

 **********************************************************************

 Orbital symmetries:
       Occupied  (A') (A') (A') (A') (A') (A') (A') (A') (A') (A')
                 (A') (A") (A') (A') (A') (A') (A") (A")
       Virtual   (A') (A') (A") (A') (A') (A') (A') (A') (A") (A')
                 (A") (A") (A') (A") (A') (A") (A') (A') (A") (A')
                 (A') (A') (A") (A') (A') (A') (A') (A") (A') (A')
                 (A') (A") (A') (A') (A') (A") (A') (A') (A') (A")
                 (A') (A') (A") (A') (A") (A') (A') (A") (A') (A")
                 (A') (A') (A") (A') (A') (A") (A') (A') (A') (A")
                 (A') (A') (A') (A") (A") (A') (A") (A') (A") (A')
                 (A') (A') (A") (A') (A') (A') (A") (A") (A") (A')
                 (A') (A') (A') (A") (A') (A") (A') (A') (A') (A")
                 (A") (A') (A') (A') (A") (A') (A') (A") (A') (A")
                 (A') (A') (A") (A') (A") (A') (A") (A') (A") (A')
                 (A") (A') (A') (A") (A') (A") (A') (A') (A') (A")
                 (A") (A') (A') (A') (A') (A") (A') (A") (A') (A")
                 (A') (A') (A') (A") (A") (A") (A') (A') (A') (A")
                 (A') (A') (A") (A') (A") (A') (A') (A") (A') (A')
                 (A") (A') (A') (A') (A') (A") (A") (A') (A') (A')
                 (A') (A") (A') (A') (A") (A") (A') (A") (A") (A')
                 (A') (A') (A") (A') (A") (A') (A') (A') (A') (A")
                 (A') (A") (A") (A") (A') (A') (A') (A") (A") (A")
                 (A') (A') (A") (A') (A') (A") (A') (A') (A') (A")
                 (A') (A") (A') (A') (A') (A") (A') (A') (A") (A')
                 (A') (A') (A") (A') (A') (A") (A') (A") (A") (A')
                 (A") (A') (A") (A") (A") (A') (A") (A') (A") (A')
                 (A') (A') (A") (A") (A') (A') (A") (A') (A") (A')
                 (A") (A') (A') (A') (A') (A') (A') (A') (A') (A')
                 (A') (A') (A') (A') (A') (A') (A') (A')
 The electronic state is 1-A'.
 Alpha  occ. eigenvalues --  -15.67815 -15.65756 -15.63979 -15.59706 -11.33008
 Alpha  occ. eigenvalues --   -1.52484  -1.26878  -1.21282  -0.91659  -0.89982
 Alpha  occ. eigenvalues --   -0.81275  -0.69488  -0.68649  -0.57654  -0.47844
 Alpha  occ. eigenvalues --   -0.46767  -0.46214  -0.42846
 Alpha virt. eigenvalues --    0.01493   0.03480   0.06762   0.07171   0.09376
 Alpha virt. eigenvalues --    0.10575   0.11541   0.12474   0.12904   0.13671
 Alpha virt. eigenvalues --    0.14036   0.15040   0.16482   0.17551   0.17603
 Alpha virt. eigenvalues --    0.20034   0.20209   0.22018   0.22563   0.22873
 Alpha virt. eigenvalues --    0.25182   0.27580   0.27922   0.29328   0.29837
 Alpha virt. eigenvalues --    0.31134   0.32003   0.32533   0.33435   0.35057
 Alpha virt. eigenvalues --    0.38408   0.39675   0.40305   0.41514   0.44813
 Alpha virt. eigenvalues --    0.45223   0.47082   0.49007   0.50128   0.52146
 Alpha virt. eigenvalues --    0.52547   0.54468   0.56051   0.56854   0.58017
 Alpha virt. eigenvalues --    0.59052   0.60651   0.62332   0.63838   0.64900
 Alpha virt. eigenvalues --    0.65887   0.67303   0.67548   0.69478   0.70828
 Alpha virt. eigenvalues --    0.73510   0.73809   0.76891   0.79372   0.80269
 Alpha virt. eigenvalues --    0.81958   0.83133   0.84780   0.85130   0.87584
 Alpha virt. eigenvalues --    0.88078   0.89758   0.90385   0.94214   0.95773
 Alpha virt. eigenvalues --    0.97643   0.99455   1.00221   1.00473   1.04126
 Alpha virt. eigenvalues --    1.05955   1.06968   1.07841   1.10354   1.11954
 Alpha virt. eigenvalues --    1.12653   1.15596   1.20272   1.22106   1.22395
 Alpha virt. eigenvalues --    1.23176   1.24851   1.25710   1.29621   1.29754
 Alpha virt. eigenvalues --    1.30966   1.31149   1.33081   1.35270   1.35949
 Alpha virt. eigenvalues --    1.42410   1.43643   1.43888   1.46150   1.49923
 Alpha virt. eigenvalues --    1.52737   1.55556   1.59404   1.59405   1.62243
 Alpha virt. eigenvalues --    1.66230   1.67988   1.70820   1.72152   1.73222
 Alpha virt. eigenvalues --    1.76205   1.76465   1.78561   1.83659   1.86883
 Alpha virt. eigenvalues --    1.88731   1.89154   1.94141   1.96419   2.00856
 Alpha virt. eigenvalues --    2.04681   2.04697   2.06619   2.09297   2.12848
 Alpha virt. eigenvalues --    2.13126   2.14611   2.15004   2.18732   2.20239
 Alpha virt. eigenvalues --    2.24685   2.26242   2.27892   2.29270   2.32041
 Alpha virt. eigenvalues --    2.36740   2.36911   2.40668   2.42763   2.46720
 Alpha virt. eigenvalues --    2.48392   2.49372   2.55155   2.55377   2.57471
 Alpha virt. eigenvalues --    2.57985   2.63217   2.67860   2.68414   2.74690
 Alpha virt. eigenvalues --    2.78309   2.78751   2.86025   2.96953   3.05257
 Alpha virt. eigenvalues --    3.06156   3.08815   3.12049   3.29878   3.31767
 Alpha virt. eigenvalues --    3.39114   3.40154   3.44992   3.51685   3.54316
 Alpha virt. eigenvalues --    3.57962   3.60614   3.76716   3.82914   3.84999
 Alpha virt. eigenvalues --    3.86273   3.94333   3.95371   3.99398   4.03255
 Alpha virt. eigenvalues --    4.04661   4.09142   4.12358   4.18933   4.19737
 Alpha virt. eigenvalues --    4.22249   4.24921   4.37278   4.38635   4.39393
 Alpha virt. eigenvalues --    4.42889   4.50794   4.56052   4.60440   4.61395
 Alpha virt. eigenvalues --    4.62519   4.65197   4.65382   4.67334   4.71215
 Alpha virt. eigenvalues --    4.77125   4.77668   4.83466   4.85131   4.90745
 Alpha virt. eigenvalues --    4.93596   4.95799   4.99519   5.05760   5.08407
 Alpha virt. eigenvalues --    5.09273   5.13830   5.20461   5.27992   5.29598
 Alpha virt. eigenvalues --    5.32139   5.36120   5.42476   5.44203   5.45594
 Alpha virt. eigenvalues --    5.48438   5.50663   5.51143   5.55292   5.62152
 Alpha virt. eigenvalues --    5.65569   5.66436   5.69223   5.72160   5.77147
 Alpha virt. eigenvalues --    5.79207   5.83188   5.87171   5.88120   5.89704
 Alpha virt. eigenvalues --    5.93733   6.01895   6.02357   6.08255   6.11901
 Alpha virt. eigenvalues --    6.22518   6.27883   6.30506   6.32184   6.44500
 Alpha virt. eigenvalues --    6.46090   6.48785   6.59870   6.66447   6.71512
 Alpha virt. eigenvalues --    6.77261   6.88577   7.03495   7.20316   7.42468
 Alpha virt. eigenvalues --    7.52406   7.85532   8.12610  15.51565  16.36864
 Alpha virt. eigenvalues --   16.78425  17.61040  18.29595
          Condensed to atoms (all electrons):
              1          2          3          4          5          6
     1  N    7.918470  -0.380328   0.124883   0.011251  -0.485981  -0.007415
     2  N   -0.380328   7.882342  -0.198355  -0.096221   0.162019  -0.120387
     3  N    0.124883  -0.198355   6.218841   0.493997  -0.267367   0.456558
     4  H    0.011251  -0.096221   0.493997   0.488287  -0.002337  -0.062708
     5  N   -0.485981   0.162019  -0.267367  -0.002337   7.565376   0.312724
     6  C   -0.007415  -0.120387   0.456558  -0.062708   0.312724   5.523221
     7  H   -0.015328  -0.009050   0.001998   0.006430  -0.000813   0.178510
              7
     1  N   -0.015328
     2  N   -0.009050
     3  N    0.001998
     4  H    0.006430
     5  N   -0.000813
     6  C    0.178510
     7  H    0.199299
 Mulliken atomic charges:
              1
     1  N   -0.165552
     2  N   -0.240021
     3  N    0.169444
     4  H    0.161300
     5  N   -0.283621
     6  C   -0.280504
     7  H    0.638955
 Sum of Mulliken charges=   0.00000
 Atomic charges with hydrogens summed into heavy atoms:
              1
     1  N   -0.165552
     2  N   -0.240021
     3  N    0.330744
     4  H    0.000000
     5  N   -0.283621
     6  C    0.358451
     7  H    0.000000
 Sum of Mulliken charges=   0.00000
 Electronic spatial extent (au):  <R**2>=   244.1861
 Charge=     0.0000 electrons
 Dipole moment (field-independent basis, Debye):
    X=     2.5972    Y=     4.8578    Z=     0.0000  Tot=     5.5086
 Quadrupole moment (field-independent basis, Debye-Ang):
   XX=   -28.9002   YY=   -26.7601   ZZ=   -28.7282
   XY=     2.0158   XZ=     0.0000   YZ=     0.0000
 Traceless Quadrupole moment (field-independent basis, Debye-Ang):
   XX=    -0.7707   YY=     1.3694   ZZ=    -0.5987
   XY=     2.0158   XZ=     0.0000   YZ=     0.0000
 Octapole moment (field-independent basis, Debye-Ang**2):
  XXX=    12.5390  YYY=    22.6252  ZZZ=     0.0000  XYY=    -0.7853
  XXY=     5.0711  XXZ=     0.0000  XZZ=    -0.5453  YZZ=     0.7921
  YYZ=     0.0000  XYZ=     0.0000
 Hexadecapole moment (field-independent basis, Debye-Ang**3):
 XXXX=  -140.4897 YYYY=  -119.2850 ZZZZ=   -27.5424 XXXY=     7.1965
 XXXZ=     0.0000 YYYX=     0.1603 YYYZ=     0.0000 ZZZX=     0.0000
 ZZZY=     0.0000 XXYY=   -53.4183 XXZZ=   -30.6902 YYZZ=   -29.2453
 XXYZ=     0.0000 YYXZ=     0.0000 ZZXY=     0.1621
 N-N= 1.702779210726D+02 E-N=-9.423291225121D+02  KE= 2.567344135409D+02
 Symmetry A'   KE= 2.477171449904D+02
 Symmetry A"   KE= 9.017268550494D+00
 ***** Axes restored to original set *****
 -------------------------------------------------------------------
 Center     Atomic                   Forces (Hartrees/Bohr)
 Number     Number              X              Y              Z
 -------------------------------------------------------------------
    1          7          -0.000478343   -0.000154374    0.000000000
    2          7           0.000020480    0.000051709    0.000000000
    3          7           0.000018219    0.000167146    0.000000000
    4          1           0.000024290    0.000173148    0.000000000
    5          7           0.000555814   -0.000227462    0.000000000
    6          6          -0.000069834   -0.000019000    0.000000000
    7          1          -0.000070626    0.000008833    0.000000000
 -------------------------------------------------------------------
 Cartesian Forces:  Max     0.000555814 RMS     0.000180680

 GradGradGradGradGradGradGradGradGradGradGradGradGradGradGradGradGradGrad
 Berny optimization.
 Internal  Forces:  Max     0.000447125 RMS     0.000126776
 Search for a local minimum.
 Step number   1 out of a maximum of  36
 All quantities printed in internal units (Hartrees-Bohrs-Radians)
 Second derivative matrix not updated -- first step.
     Eigenvalues ---    0.02549   0.02689   0.02713   0.02878   0.16000
     Eigenvalues ---    0.16000   0.22606   0.24688   0.37652   0.49491
     Eigenvalues ---    0.51224   0.57305   0.59114   0.67916   0.80782
     Eigenvalues --- 1000.000001000.000001000.000001000.000001000.00000
     Eigenvalues --- 1000.000001000.000001000.000001000.000001000.00000
     Eigenvalues --- 1000.00000
 RFO step:  Lambda=-9.97210212D-07.
 Linear search not attempted -- first point.
 Iteration  1 RMS(Cart)=  0.00034607 RMS(Int)=  0.00000006
 Iteration  2 RMS(Cart)=  0.00000006 RMS(Int)=  0.00000001
 Variable       Old X    -DE/DX   Delta X   Delta X   Delta X     New X
                                 (Linear)    (Quad)   (Total)
    R1        2.35564   0.00018   0.00000   0.00024   0.00024   2.35588
    R2        2.53249   0.00045   0.00000   0.00082   0.00082   2.53332
    R3        2.49943   0.00010   0.00000   0.00014   0.00014   2.49957
    R4        1.87083   0.00017   0.00000   0.00035   0.00035   1.87117
    R5        2.50762   0.00009   0.00000   0.00011   0.00011   2.50774
    R6        2.42967   0.00013   0.00000   0.00018   0.00018   2.42985
    R7        2.01575  -0.00006   0.00000  -0.00017  -0.00017   2.01558
    A1        1.94321  -0.00009   0.00000  -0.00020  -0.00020   1.94301
    A2        1.86428   0.00013   0.00000   0.00051   0.00051   1.86479
    A3        2.11220   0.00008   0.00000   0.00048   0.00048   2.11269
    A4        1.88382  -0.00009   0.00000  -0.00057  -0.00057   1.88326
    A5        2.28716   0.00001   0.00000   0.00008   0.00008   2.28724
    A6        1.84457  -0.00014   0.00000  -0.00049  -0.00049   1.84408
    A7        1.88889   0.00019   0.00000   0.00075   0.00075   1.88964
    A8        2.18231  -0.00013   0.00000  -0.00056  -0.00056   2.18175
    A9        2.21198  -0.00007   0.00000  -0.00019  -0.00019   2.21180
    D1        0.00000   0.00000   0.00000   0.00000   0.00000   0.00000
    D2        0.00000   0.00000   0.00000   0.00000   0.00000   0.00000
    D3        3.14159   0.00000   0.00000   0.00000   0.00000   3.14159
    D4        0.00000   0.00000   0.00000   0.00000   0.00000   0.00000
    D5        0.00000   0.00000   0.00000   0.00000   0.00000   0.00000
    D6        3.14159   0.00000   0.00000   0.00000   0.00000   3.14159
    D7        3.14159   0.00000   0.00000   0.00000   0.00000   3.14159
    D8        0.00000   0.00000   0.00000   0.00000   0.00000   0.00000
    D9        0.00000   0.00000   0.00000   0.00000   0.00000   0.00000
   D10        3.14159   0.00000   0.00000   0.00000   0.00000   3.14159
         Item               Value     Threshold  Converged?
 Maximum Force            0.000447     0.000450     YES
 RMS     Force            0.000127     0.000300     YES
 Maximum Displacement     0.000860     0.001800     YES
 RMS     Displacement     0.000346     0.001200     YES
 Predicted change in Energy=-4.986067D-07
 Optimization completed.
    -- Stationary point found.
                           ----------------------------
                           !   Optimized Parameters   !
                           ! (Angstroms and Degrees)  !
 --------------------------                            --------------------------
 ! Name  Definition              Value          Derivative Info.                !
 --------------------------------------------------------------------------------
 ! R1    R(1,2)                  1.2466         -DE/DX =    0.0002              !
 ! R2    R(1,5)                  1.3401         -DE/DX =    0.0004              !
 ! R3    R(2,3)                  1.3226         -DE/DX =    0.0001              !
 ! R4    R(3,4)                  0.99           -DE/DX =    0.0002              !
 ! R5    R(3,6)                  1.327          -DE/DX =    0.0001              !
 ! R6    R(5,6)                  1.2857         -DE/DX =    0.0001              !
 ! R7    R(6,7)                  1.0667         -DE/DX =   -0.0001              !
 ! A1    A(2,1,5)              111.3378         -DE/DX =   -0.0001              !
 ! A2    A(1,2,3)              106.8153         -DE/DX =    0.0001              !
 ! A3    A(2,3,4)              121.0203         -DE/DX =    0.0001              !
 ! A4    A(2,3,6)              107.9352         -DE/DX =   -0.0001              !
 ! A5    A(4,3,6)              131.0446         -DE/DX =    0.0                 !
 ! A6    A(1,5,6)              105.686          -DE/DX =   -0.0001              !
 ! A7    A(3,6,5)              108.2257         -DE/DX =    0.0002              !
 ! A8    A(3,6,7)              125.0369         -DE/DX =   -0.0001              !
 ! A9    A(5,6,7)              126.7374         -DE/DX =   -0.0001              !
 ! D1    D(5,1,2,3)              0.0            -DE/DX =    0.0                 !
 ! D2    D(2,1,5,6)              0.0            -DE/DX =    0.0                 !
 ! D3    D(1,2,3,4)            180.0            -DE/DX =    0.0                 !
 ! D4    D(1,2,3,6)              0.0            -DE/DX =    0.0                 !
 ! D5    D(2,3,6,5)              0.0            -DE/DX =    0.0                 !
 ! D6    D(2,3,6,7)            180.0            -DE/DX =    0.0                 !
 ! D7    D(4,3,6,5)            180.0            -DE/DX =    0.0                 !
 ! D8    D(4,3,6,7)              0.0            -DE/DX =    0.0                 !
 ! D9    D(1,5,6,3)              0.0            -DE/DX =    0.0                 !
 ! D10   D(1,5,6,7)            180.0            -DE/DX =    0.0                 !
 --------------------------------------------------------------------------------
 GradGradGradGradGradGradGradGradGradGradGradGradGradGradGradGradGradGrad

 1\1\GINC-P768\FOpt\RHF\Aug-CC-pVTZ\C1H2N4\RDJ3\13-Jul-2005\0\\#HF/AUG-
 CC-PVTZ OPT FREQ\\1htz 1H-Tetrazole casno=288948 method=1 basis=18\\0,
 1\N,-0.7162039518,-0.8985350384,0.\N,-1.0919000155,0.2900539415,0.\N,-
 0.0000000556,1.036471,0.\H,-0.0576101085,2.0247919969,0.\N,0.620993052
 9,-0.9872769667,0.\C,1.0498149879,0.2248320563,0.\H,2.068498971,0.5412
 301109,0.\\Version=IA32L-G03RevC.02\State=1-A'\HF=-256.8523196\RMSD=6.
 636e-09\RMSF=1.807e-04\Dipole=1.0218275,1.9112219,0.\PG=CS [SG(C1H2N4)
 ]\\@


 AN AIRPLANE IS A COLLECTION OF SPARE PARTS
 FLYING IN CLOSE FORMATION.
 Job cpu time:  0 days  1 hours 23 minutes 26.4 seconds.
 File lengths (MBytes):  RWF=     50 Int=      0 D2E=      0 Chk=      8 Scr=      1
 Normal termination of Gaussian 03 at Wed Jul 13 19:44:44 2005.
 Link1:  Proceeding to internal job step number  2.
 ------------------------------------------------------------------
 #N Geom=AllCheck Guess=Read SCRF=Check GenChk RHF/Aug-CC-pVTZ Freq
 ------------------------------------------------------------------
 1/10=4,29=7,30=1,38=1,40=1,46=1/1,3;
 2/40=1/2;
 3/5=16,6=1,7=10,11=1,16=1,25=1,30=1,70=2,71=2/1,2,3;
 4/5=1,7=1/1;
 5/5=2,38=6/2;
 8/6=4,10=90,11=11/1;
 10/13=10/2;
 11/6=2,8=1,9=11,15=111,16=1/1,2,10;
 10/6=1/2;
 6/7=2,8=2,9=2,10=2,18=1,28=1/1;
 7/8=1,10=1,25=1/1,2,3,16;
 1/10=4,30=1,46=1/3;
 99//99;
 ------------------------------------------------
 1htz 1H-Tetrazole casno=288948 method=1 basis=18
 ------------------------------------------------
 Redundant internal coordinates taken from checkpoint file:
 /scratch/Gau-25655.chk
 Charge =  0 Multiplicity = 1
 N,0,-0.7162039518,-0.8985350384,0.
 N,0,-1.0919000155,0.2900539415,0.
 N,0,-0.0000000556,1.036471,0.
 H,0,-0.0576101085,2.0247919969,0.
 N,0,0.6209930529,-0.9872769667,0.
 C,0,1.0498149879,0.2248320563,0.
 H,0,2.068498971,0.5412301109,0.
 Recover connectivity data from disk.

 GradGradGradGradGradGradGradGradGradGradGradGradGradGradGradGradGradGrad
 Berny optimization.
 Initialization pass.
                           ----------------------------
                           !    Initial Parameters    !
                           ! (Angstroms and Degrees)  !
 --------------------------                            --------------------------
 ! Name  Definition              Value          Derivative Info.                !
 --------------------------------------------------------------------------------
 ! R1    R(1,2)                  1.2466         calculate D2E/DX2 analytically  !
 ! R2    R(1,5)                  1.3401         calculate D2E/DX2 analytically  !
 ! R3    R(2,3)                  1.3226         calculate D2E/DX2 analytically  !
 ! R4    R(3,4)                  0.99           calculate D2E/DX2 analytically  !
 ! R5    R(3,6)                  1.327          calculate D2E/DX2 analytically  !
 ! R6    R(5,6)                  1.2857         calculate D2E/DX2 analytically  !
 ! R7    R(6,7)                  1.0667         calculate D2E/DX2 analytically  !
 ! A1    A(2,1,5)              111.3378         calculate D2E/DX2 analytically  !
 ! A2    A(1,2,3)              106.8153         calculate D2E/DX2 analytically  !
 ! A3    A(2,3,4)              121.0203         calculate D2E/DX2 analytically  !
 ! A4    A(2,3,6)              107.9352         calculate D2E/DX2 analytically  !
 ! A5    A(4,3,6)              131.0446         calculate D2E/DX2 analytically  !
 ! A6    A(1,5,6)              105.686          calculate D2E/DX2 analytically  !
 ! A7    A(3,6,5)              108.2257         calculate D2E/DX2 analytically  !
 ! A8    A(3,6,7)              125.0369         calculate D2E/DX2 analytically  !
 ! A9    A(5,6,7)              126.7374         calculate D2E/DX2 analytically  !
 ! D1    D(5,1,2,3)              0.0            calculate D2E/DX2 analytically  !
 ! D2    D(2,1,5,6)              0.0            calculate D2E/DX2 analytically  !
 ! D3    D(1,2,3,4)            180.0            calculate D2E/DX2 analytically  !
 ! D4    D(1,2,3,6)              0.0            calculate D2E/DX2 analytically  !
 ! D5    D(2,3,6,5)              0.0            calculate D2E/DX2 analytically  !
 ! D6    D(2,3,6,7)            180.0            calculate D2E/DX2 analytically  !
 ! D7    D(4,3,6,5)            180.0            calculate D2E/DX2 analytically  !
 ! D8    D(4,3,6,7)              0.0            calculate D2E/DX2 analytically  !
 ! D9    D(1,5,6,3)              0.0            calculate D2E/DX2 analytically  !
 ! D10   D(1,5,6,7)            180.0            calculate D2E/DX2 analytically  !
 --------------------------------------------------------------------------------
 Trust Radius=3.00D-01 FncErr=1.00D-07 GrdErr=1.00D-07
 Number of steps in this run=   2 maximum allowed number of steps=   2.
 GradGradGradGradGradGradGradGradGradGradGradGradGradGradGradGradGradGrad

                          Input orientation:                          
 ---------------------------------------------------------------------
 Center     Atomic     Atomic              Coordinates (Angstroms)
 Number     Number      Type              X           Y           Z
 ---------------------------------------------------------------------
    1          7             0       -0.716204   -0.898535    0.000000
    2          7             0       -1.091900    0.290054    0.000000
    3          7             0        0.000000    1.036471    0.000000
    4          1             0       -0.057610    2.024792    0.000000
    5          7             0        0.620993   -0.987277    0.000000
    6          6             0        1.049815    0.224832    0.000000
    7          1             0        2.068499    0.541230    0.000000
 ---------------------------------------------------------------------
                    Distance matrix (angstroms):
                    1          2          3          4          5
     1  N    0.000000
     2  N    1.246552   0.000000
     3  N    2.063297   1.322643   0.000000
     4  H    2.996596   2.019671   0.989999   0.000000
     5  N    1.340138   2.136721   2.116882   3.087566   0.000000
     6  C    2.093030   2.142708   1.326978   2.113350   1.285728
     7  H    3.134883   3.170365   2.126958   2.592546   2.105138
                    6          7
     6  C    0.000000
     7  H    1.066689   0.000000
 Stoichiometry    CH2N4
 Framework group  CS[SG(CH2N4)]
 Deg. of freedom    11
 Full point group                 CS      NOp   2
 Largest Abelian subgroup         CS      NOp   2
 Largest concise Abelian subgroup C1      NOp   1
                         Standard orientation:                         
 ---------------------------------------------------------------------
 Center     Atomic     Atomic              Coordinates (Angstroms)
 Number     Number      Type              X           Y           Z
 ---------------------------------------------------------------------
    1          7             0       -0.716204   -0.898535    0.000000
    2          7             0       -1.091900    0.290054    0.000000
    3          7             0        0.000000    1.036471    0.000000
    4          1             0       -0.057610    2.024792    0.000000
    5          7             0        0.620993   -0.987277    0.000000
    6          6             0        1.049815    0.224832    0.000000
    7          1             0        2.068499    0.541230    0.000000
 ---------------------------------------------------------------------
 Rotational constants (GHZ):     10.9773445     10.7894190      5.4412853
 Standard basis: Aug-CC-pVTZ (5D, 7F)
 There are   182 symmetry adapted basis functions of A'  symmetry.
 There are    94 symmetry adapted basis functions of A"  symmetry.
 Integral buffers will be    262144 words long.
 Raffenetti 1 integral format.
 Two-electron integral symmetry is turned on.
   276 basis functions,   419 primitive gaussians,   325 cartesian basis functions
    18 alpha electrons       18 beta electrons
       nuclear repulsion energy       170.2779210726 Hartrees.
 NAtoms=    7 NActive=    7 NUniq=    7 SFac= 1.00D+00 NAtFMM=   60 Big=F
 One-electron integrals computed using PRISM.
 NBasis=   276 RedAO= T  NBF=   182    94
 NBsUse=   276 1.00D-06 NBFU=   182    94
 Initial guess read from the checkpoint file:
 /scratch/Gau-25655.chk
 Initial guess orbital symmetries:
       Occupied  (A') (A') (A') (A') (A') (A') (A') (A') (A') (A')
                 (A') (A") (A') (A') (A') (A') (A") (A")
       Virtual   (A') (A') (A") (A') (A') (A') (A') (A') (A") (A')
                 (A") (A") (A') (A") (A') (A") (A') (A') (A") (A')
                 (A') (A') (A") (A') (A') (A') (A') (A") (A') (A')
                 (A') (A") (A') (A') (A') (A") (A') (A') (A') (A")
                 (A') (A') (A") (A') (A") (A') (A') (A") (A') (A")
                 (A') (A') (A") (A') (A') (A") (A') (A') (A') (A")
                 (A') (A') (A') (A") (A") (A') (A") (A') (A") (A')
                 (A') (A') (A") (A') (A') (A') (A") (A") (A") (A')
                 (A') (A') (A') (A") (A') (A") (A') (A') (A') (A")
                 (A") (A') (A') (A') (A") (A') (A') (A") (A') (A")
                 (A') (A') (A") (A') (A") (A') (A") (A') (A") (A')
                 (A") (A') (A') (A") (A') (A") (A') (A') (A') (A")
                 (A") (A') (A') (A') (A') (A") (A') (A") (A') (A")
                 (A') (A') (A') (A") (A") (A") (A') (A') (A') (A")
                 (A') (A') (A") (A') (A") (A') (A') (A") (A') (A')
                 (A") (A') (A') (A') (A') (A") (A") (A') (A') (A')
                 (A') (A") (A') (A') (A") (A") (A') (A") (A") (A')
                 (A') (A') (A") (A') (A") (A') (A') (A') (A') (A")
                 (A') (A") (A") (A") (A') (A') (A') (A") (A") (A")
                 (A') (A') (A") (A') (A') (A") (A') (A') (A') (A")
                 (A') (A") (A') (A') (A') (A") (A') (A') (A") (A')
                 (A') (A') (A") (A') (A') (A") (A') (A") (A") (A')
                 (A") (A') (A") (A") (A") (A') (A") (A') (A") (A')
                 (A') (A') (A") (A") (A') (A') (A") (A') (A") (A')
                 (A") (A') (A') (A') (A') (A') (A') (A') (A') (A')
                 (A') (A') (A') (A') (A') (A') (A') (A')
 Requested convergence on RMS density matrix=1.00D-08 within 128 cycles.
 Requested convergence on MAX density matrix=1.00D-06.
 Requested convergence on             energy=1.00D-06.
 No special actions if energy rises.
 SCF Done:  E(RHF) =  -256.852319568     A.U. after    1 cycles
             Convg  =    0.1275D-08             -V/T =  2.0005
             S**2   =   0.0000
 Range of M.O.s used for correlation:     1   276
 NBasis=   276 NAE=    18 NBE=    18 NFC=     0 NFV=     0
 NROrb=    276 NOA=    18 NOB=    18 NVA=   258 NVB=   258

 **** Warning!!: The largest alpha MO coefficient is  0.43074727D+02

          Differentiating once with respect to electric field.
                with respect to dipole field.
          Electric field/nuclear overlap derivatives assumed to be zero.
 Integrals replicated using symmetry in FoFDir.
 MinBra= 0 MaxBra= 3 Meth= 1.
 IRaf=       0 NMat=   3 IRICut=       1 DoRegI=T DoRafI=F ISym2E= 2 JSym2E=2.
          There are   3 degrees of freedom in the 1st order CPHF.
     3 vectors were produced by pass  0.
 AX will form   3 AO Fock derivatives at one time.
     3 vectors were produced by pass  1.
     3 vectors were produced by pass  2.
     3 vectors were produced by pass  3.
     3 vectors were produced by pass  4.
     3 vectors were produced by pass  5.
     3 vectors were produced by pass  6.
     3 vectors were produced by pass  7.
     3 vectors were produced by pass  8.
     3 vectors were produced by pass  9.
     2 vectors were produced by pass 10.
     1 vectors were produced by pass 11.
 Inv2:  IOpt= 1 Iter= 1 AM= 4.87D-16 Conv= 1.00D-12.
 Inverted reduced A of dimension   33 with in-core refinement.
 End of Minotr Frequency-dependent properties file   721 does not exist.
 Symmetrizing basis deriv contribution to polar:
 IMax=3 JMax=2 DiffMx= 0.00D+00
 G2DrvN: will do    8 centers at a time, making    1 passes doing MaxLOS=3.
 FoFDir/FoFCou used for L=0 through L=3.
 DoAtom=TTTTTTT
          Differentiating once with respect to electric field.
                with respect to dipole field.
          Differentiating once with respect to nuclear coordinates.
 Integrals replicated using symmetry in FoFDir.
 MinBra= 0 MaxBra= 3 Meth= 1.
 IRaf=       0 NMat=  24 IRICut=      24 DoRegI=T DoRafI=T ISym2E= 2 JSym2E=2.
          There are  24 degrees of freedom in the 1st order CPHF.
    21 vectors were produced by pass  0.
 AX will form  21 AO Fock derivatives at one time.
    21 vectors were produced by pass  1.
    21 vectors were produced by pass  2.
    21 vectors were produced by pass  3.
    21 vectors were produced by pass  4.
    21 vectors were produced by pass  5.
    21 vectors were produced by pass  6.
    16 vectors were produced by pass  7.
     3 vectors were produced by pass  8.
 Inv2:  IOpt= 1 Iter= 1 AM= 1.33D-15 Conv= 1.00D-12.
 Inverted reduced A of dimension  166 with in-core refinement.
 Isotropic polarizability for W=    0.000000       35.59 Bohr**3.
 End of Minotr Frequency-dependent properties file   721 does not exist.

 **********************************************************************

            Population analysis using the SCF density.

 **********************************************************************

 Orbital symmetries:
       Occupied  (A') (A') (A') (A') (A') (A') (A') (A') (A') (A')
                 (A') (A") (A') (A') (A') (A') (A") (A")
       Virtual   (A') (A') (A") (A') (A') (A') (A') (A') (A") (A')
                 (A") (A") (A') (A") (A') (A") (A') (A') (A") (A')
                 (A') (A') (A") (A') (A') (A') (A') (A") (A') (A')
                 (A') (A") (A') (A') (A') (A") (A') (A') (A') (A")
                 (A') (A') (A") (A') (A") (A') (A') (A") (A') (A")
                 (A') (A') (A") (A') (A') (A") (A') (A') (A') (A")
                 (A') (A') (A') (A") (A") (A') (A") (A') (A") (A')
                 (A') (A') (A") (A') (A') (A') (A") (A") (A") (A')
                 (A') (A') (A') (A") (A') (A") (A') (A') (A') (A")
                 (A") (A') (A') (A') (A") (A') (A') (A") (A') (A")
                 (A') (A') (A") (A') (A") (A') (A") (A') (A") (A')
                 (A") (A') (A') (A") (A') (A") (A') (A') (A') (A")
                 (A") (A') (A') (A') (A') (A") (A') (A") (A') (A")
                 (A') (A') (A') (A") (A") (A") (A') (A') (A') (A")
                 (A') (A') (A") (A') (A") (A') (A') (A") (A') (A')
                 (A") (A') (A') (A') (A') (A") (A") (A') (A') (A')
                 (A') (A") (A') (A') (A") (A") (A') (A") (A") (A')
                 (A') (A') (A") (A') (A") (A') (A') (A') (A') (A")
                 (A') (A") (A") (A") (A') (A') (A') (A") (A") (A")
                 (A') (A') (A") (A') (A') (A") (A') (A') (A') (A")
                 (A') (A") (A') (A') (A') (A") (A') (A') (A") (A')
                 (A') (A') (A") (A') (A') (A") (A') (A") (A") (A')
                 (A") (A') (A") (A") (A") (A') (A") (A') (A") (A')
                 (A') (A') (A") (A") (A') (A') (A") (A') (A") (A')
                 (A") (A') (A') (A') (A') (A') (A') (A') (A') (A')
                 (A') (A') (A') (A') (A') (A') (A') (A')
 The electronic state is 1-A'.
 Alpha  occ. eigenvalues --  -15.67815 -15.65756 -15.63979 -15.59706 -11.33008
 Alpha  occ. eigenvalues --   -1.52484  -1.26878  -1.21282  -0.91659  -0.89982
 Alpha  occ. eigenvalues --   -0.81275  -0.69488  -0.68649  -0.57654  -0.47844
 Alpha  occ. eigenvalues --   -0.46767  -0.46214  -0.42846
 Alpha virt. eigenvalues --    0.01493   0.03480   0.06762   0.07171   0.09376
 Alpha virt. eigenvalues --    0.10575   0.11541   0.12474   0.12904   0.13671
 Alpha virt. eigenvalues --    0.14036   0.15040   0.16482   0.17551   0.17603
 Alpha virt. eigenvalues --    0.20034   0.20209   0.22018   0.22563   0.22873
 Alpha virt. eigenvalues --    0.25182   0.27580   0.27922   0.29328   0.29837
 Alpha virt. eigenvalues --    0.31134   0.32003   0.32533   0.33435   0.35057
 Alpha virt. eigenvalues --    0.38408   0.39675   0.40305   0.41514   0.44813
 Alpha virt. eigenvalues --    0.45223   0.47082   0.49007   0.50128   0.52146
 Alpha virt. eigenvalues --    0.52547   0.54468   0.56051   0.56854   0.58017
 Alpha virt. eigenvalues --    0.59052   0.60651   0.62332   0.63838   0.64900
 Alpha virt. eigenvalues --    0.65887   0.67303   0.67548   0.69478   0.70828
 Alpha virt. eigenvalues --    0.73510   0.73809   0.76891   0.79372   0.80269
 Alpha virt. eigenvalues --    0.81958   0.83133   0.84780   0.85130   0.87584
 Alpha virt. eigenvalues --    0.88078   0.89758   0.90385   0.94214   0.95773
 Alpha virt. eigenvalues --    0.97643   0.99455   1.00221   1.00473   1.04126
 Alpha virt. eigenvalues --    1.05955   1.06968   1.07841   1.10354   1.11954
 Alpha virt. eigenvalues --    1.12653   1.15596   1.20272   1.22106   1.22395
 Alpha virt. eigenvalues --    1.23176   1.24851   1.25710   1.29621   1.29754
 Alpha virt. eigenvalues --    1.30966   1.31149   1.33081   1.35270   1.35949
 Alpha virt. eigenvalues --    1.42410   1.43643   1.43888   1.46150   1.49923
 Alpha virt. eigenvalues --    1.52737   1.55556   1.59404   1.59405   1.62243
 Alpha virt. eigenvalues --    1.66230   1.67988   1.70820   1.72152   1.73222
 Alpha virt. eigenvalues --    1.76205   1.76465   1.78561   1.83659   1.86883
 Alpha virt. eigenvalues --    1.88731   1.89154   1.94141   1.96419   2.00856
 Alpha virt. eigenvalues --    2.04681   2.04697   2.06619   2.09297   2.12848
 Alpha virt. eigenvalues --    2.13126   2.14611   2.15004   2.18732   2.20239
 Alpha virt. eigenvalues --    2.24685   2.26242   2.27892   2.29270   2.32041
 Alpha virt. eigenvalues --    2.36740   2.36911   2.40668   2.42763   2.46720
 Alpha virt. eigenvalues --    2.48392   2.49372   2.55155   2.55377   2.57471
 Alpha virt. eigenvalues --    2.57985   2.63217   2.67860   2.68414   2.74690
 Alpha virt. eigenvalues --    2.78309   2.78751   2.86025   2.96953   3.05257
 Alpha virt. eigenvalues --    3.06156   3.08815   3.12049   3.29878   3.31767
 Alpha virt. eigenvalues --    3.39114   3.40154   3.44992   3.51685   3.54316
 Alpha virt. eigenvalues --    3.57962   3.60614   3.76716   3.82914   3.84999
 Alpha virt. eigenvalues --    3.86273   3.94333   3.95371   3.99398   4.03255
 Alpha virt. eigenvalues --    4.04661   4.09142   4.12358   4.18933   4.19737
 Alpha virt. eigenvalues --    4.22249   4.24921   4.37278   4.38635   4.39393
 Alpha virt. eigenvalues --    4.42889   4.50794   4.56052   4.60440   4.61395
 Alpha virt. eigenvalues --    4.62519   4.65197   4.65382   4.67334   4.71215
 Alpha virt. eigenvalues --    4.77125   4.77668   4.83466   4.85131   4.90745
 Alpha virt. eigenvalues --    4.93596   4.95799   4.99519   5.05760   5.08407
 Alpha virt. eigenvalues --    5.09273   5.13830   5.20461   5.27992   5.29598
 Alpha virt. eigenvalues --    5.32139   5.36120   5.42476   5.44203   5.45594
 Alpha virt. eigenvalues --    5.48438   5.50663   5.51143   5.55292   5.62152
 Alpha virt. eigenvalues --    5.65569   5.66436   5.69223   5.72160   5.77147
 Alpha virt. eigenvalues --    5.79207   5.83188   5.87171   5.88120   5.89704
 Alpha virt. eigenvalues --    5.93733   6.01895   6.02357   6.08255   6.11901
 Alpha virt. eigenvalues --    6.22518   6.27883   6.30506   6.32184   6.44500
 Alpha virt. eigenvalues --    6.46090   6.48785   6.59870   6.66447   6.71512
 Alpha virt. eigenvalues --    6.77261   6.88577   7.03495   7.20316   7.42468
 Alpha virt. eigenvalues --    7.52406   7.85532   8.12610  15.51565  16.36864
 Alpha virt. eigenvalues --   16.78425  17.61040  18.29595
          Condensed to atoms (all electrons):
              1          2          3          4          5          6
     1  N    7.918470  -0.380328   0.124883   0.011251  -0.485981  -0.007415
     2  N   -0.380328   7.882342  -0.198355  -0.096221   0.162019  -0.120387
     3  N    0.124883  -0.198355   6.218841   0.493997  -0.267367   0.456558
     4  H    0.011251  -0.096221   0.493997   0.488287  -0.002337  -0.062708
     5  N   -0.485981   0.162019  -0.267367  -0.002337   7.565376   0.312724
     6  C   -0.007415  -0.120387   0.456558  -0.062708   0.312724   5.523221
     7  H   -0.015328  -0.009050   0.001998   0.006430  -0.000813   0.178510
              7
     1  N   -0.015328
     2  N   -0.009050
     3  N    0.001998
     4  H    0.006430
     5  N   -0.000813
     6  C    0.178510
     7  H    0.199299
 Mulliken atomic charges:
              1
     1  N   -0.165552
     2  N   -0.240021
     3  N    0.169444
     4  H    0.161300
     5  N   -0.283622
     6  C   -0.280504
     7  H    0.638955
 Sum of Mulliken charges=   0.00000
 Atomic charges with hydrogens summed into heavy atoms:
              1
     1  N   -0.165552
     2  N   -0.240021
     3  N    0.330744
     4  H    0.000000
     5  N   -0.283622
     6  C    0.358451
     7  H    0.000000
 Sum of Mulliken charges=   0.00000
 APT atomic charges:
              1
     1  N   -0.012937
     2  N   -0.064044
     3  N   -0.302885
     4  H    0.299254
     5  N   -0.382181
     6  C    0.351409
     7  H    0.111383
 Sum of APT charges=   0.00000
 APT Atomic charges with hydrogens summed into heavy atoms:
              1
     1  N   -0.012937
     2  N   -0.064044
     3  N   -0.003631
     4  H    0.000000
     5  N   -0.382181
     6  C    0.462792
     7  H    0.000000
 Sum of APT charges=   0.00000
 Electronic spatial extent (au):  <R**2>=   244.1861
 Charge=     0.0000 electrons
 Dipole moment (field-independent basis, Debye):
    X=     2.5972    Y=     4.8578    Z=     0.0000  Tot=     5.5086
 Quadrupole moment (field-independent basis, Debye-Ang):
   XX=   -28.9002   YY=   -26.7601   ZZ=   -28.7282
   XY=     2.0158   XZ=     0.0000   YZ=     0.0000
 Traceless Quadrupole moment (field-independent basis, Debye-Ang):
   XX=    -0.7707   YY=     1.3694   ZZ=    -0.5987
   XY=     2.0158   XZ=     0.0000   YZ=     0.0000
 Octapole moment (field-independent basis, Debye-Ang**2):
  XXX=    12.5390  YYY=    22.6252  ZZZ=     0.0000  XYY=    -0.7853
  XXY=     5.0711  XXZ=     0.0000  XZZ=    -0.5453  YZZ=     0.7921
  YYZ=     0.0000  XYZ=     0.0000
 Hexadecapole moment (field-independent basis, Debye-Ang**3):
 XXXX=  -140.4897 YYYY=  -119.2850 ZZZZ=   -27.5424 XXXY=     7.1965
 XXXZ=     0.0000 YYYX=     0.1603 YYYZ=     0.0000 ZZZX=     0.0000
 ZZZY=     0.0000 XXYY=   -53.4183 XXZZ=   -30.6902 YYZZ=   -29.2453
 XXYZ=     0.0000 YYXZ=     0.0000 ZZXY=     0.1621
 N-N= 1.702779210726D+02 E-N=-9.423291231804D+02  KE= 2.567344138350D+02
 Symmetry A'   KE= 2.477171452213D+02
 Symmetry A"   KE= 9.017268613693D+00
  Exact polarizability:  40.761   0.312  41.080   0.000   0.000  24.923
 Approx polarizability:  40.050   0.295  42.027   0.000   0.000  26.235
 Full mass-weighted force constant matrix:
 Low frequencies ---  -16.7128  -14.2436  -11.2884   -0.0013   -0.0008    0.0013
 Low frequencies ---  624.9964  749.1469  817.4972
 Diagonal vibrational polarizability:
        1.1663493       1.2827837       8.1507949
 Diagonal vibrational hyperpolarizability:
       12.6894776       4.9373483       0.0000000
 Harmonic frequencies (cm**-1), IR intensities (KM/Mole), Raman scattering
 activities (A**4/AMU), depolarization ratios for plane and unpolarized
 incident light, reduced masses (AMU), force constants (mDyne/A),
 and normal coordinates:
                     1                      2                      3
                    A"                     A"                     A"
 Frequencies --   624.9963               749.1468               817.4971
 Red. masses --     1.5457                 2.1661                 9.6544
 Frc consts  --     0.3557                 0.7162                 3.8014
 IR Inten    --   107.2121                 4.1679                 6.9713
 Raman Activ --     0.0836                 0.1251                 0.0477
 Depolar (P) --     0.7500                 0.7500                 0.7500
 Depolar (U) --     0.8571                 0.8571                 0.8571
 Atom AN      X      Y      Z        X      Y      Z        X      Y      Z
   1   7     0.00   0.00  -0.01     0.00   0.00   0.03     0.00   0.00   0.54
   2   7     0.00   0.00  -0.06     0.00   0.00   0.12     0.00   0.00  -0.46
   3   7     0.00   0.00   0.18     0.00   0.00  -0.12     0.00   0.00   0.15
   4   1     0.00   0.00  -0.95     0.00   0.00  -0.76     0.00   0.00   0.54
   5   7     0.00   0.00   0.02     0.00   0.00  -0.17     0.00   0.00  -0.36
   6   6     0.00   0.00  -0.06     0.00   0.00   0.19     0.00   0.00   0.09
   7   1     0.00   0.00  -0.22     0.00   0.00   0.57     0.00   0.00   0.19
                     4                      5                      6
                    A"                     A'                     A'
 Frequencies --  1017.8369              1084.9313              1107.5710
 Red. masses --     1.3987                 4.9609                 8.1149
 Frc consts  --     0.8538                 3.4404                 5.8651
 IR Inten    --    10.9334                 1.5499                 1.8616
 Raman Activ --     0.3633                 1.3251                 1.3087
 Depolar (P) --     0.7500                 0.5642                 0.5847
 Depolar (U) --     0.8571                 0.7214                 0.7380
 Atom AN      X      Y      Z        X      Y      Z        X      Y      Z
   1   7     0.00   0.00   0.01    -0.02   0.20   0.00     0.31  -0.06   0.00
   2   7     0.00   0.00   0.00    -0.19   0.13   0.00     0.23   0.02   0.00
   3   7     0.00   0.00   0.04    -0.09  -0.04   0.00    -0.05   0.37   0.00
   4   1     0.00   0.00   0.02     0.44  -0.01   0.00     0.05   0.40   0.00
   5   7     0.00   0.00   0.04     0.36  -0.24   0.00    -0.09  -0.28   0.00
   6   6     0.00   0.00  -0.18    -0.09  -0.12   0.00    -0.44  -0.06   0.00
   7   1     0.00   0.00   0.98    -0.32   0.63   0.00    -0.40  -0.32   0.00
                     7                      8                      9
                    A'                     A'                     A'
 Frequencies --  1163.7150              1188.0950              1250.2252
 Red. masses --     3.6515                 2.6657                 2.4397
 Frc consts  --     2.9135                 2.2170                 2.2468
 IR Inten    --    23.2060                30.0504                22.7204
 Raman Activ --     6.1272                 1.4770                 3.6989
 Depolar (P) --     0.1626                 0.6890                 0.6685
 Depolar (U) --     0.2797                 0.8159                 0.8013
 Atom AN      X      Y      Z        X      Y      Z        X      Y      Z
   1   7     0.17   0.05   0.00    -0.16   0.00   0.00     0.20   0.14   0.00
   2   7     0.15   0.17   0.00     0.23   0.07   0.00    -0.11   0.04   0.00
   3   7    -0.08  -0.29   0.00    -0.16   0.03   0.00    -0.14  -0.04   0.00
   4   1    -0.02  -0.30   0.00    -0.93  -0.01   0.00    -0.36  -0.06   0.00
   5   7    -0.17   0.00   0.00     0.10  -0.04   0.00    -0.03   0.02   0.00
   6   6    -0.06   0.05   0.00     0.07  -0.07   0.00     0.08  -0.11   0.00
   7   1    -0.30   0.78   0.00     0.05  -0.01   0.00     0.30  -0.82   0.00
                    10                     11                     12
                    A'                     A'                     A'
 Frequencies --  1415.8878              1528.7286              1613.3874
 Red. masses --     2.6958                 5.8217                 3.1630
 Frc consts  --     3.1842                 8.0160                 4.8510
 IR Inten    --     1.3795                29.2978                11.6512
 Raman Activ --    15.9119                28.1510                 8.0610
 Depolar (P) --     0.0481                 0.0546                 0.5361
 Depolar (U) --     0.0918                 0.1035                 0.6980
 Atom AN      X      Y      Z        X      Y      Z        X      Y      Z
   1   7    -0.07  -0.02   0.00    -0.02   0.40   0.00     0.02   0.03   0.00
   2   7     0.12   0.03   0.00     0.08  -0.35   0.00     0.07  -0.11   0.00
   3   7    -0.05  -0.12   0.00     0.19  -0.06   0.00    -0.17   0.12   0.00
   4   1     0.60  -0.10   0.00    -0.69  -0.14   0.00     0.66   0.19   0.00
   5   7     0.13   0.19   0.00    -0.01   0.07   0.00    -0.07   0.14   0.00
   6   6    -0.21  -0.04   0.00    -0.18  -0.07   0.00     0.13  -0.28   0.00
   7   1    -0.04  -0.70   0.00    -0.30   0.18   0.00    -0.12   0.57   0.00
                    13                     14                     15
                    A'                     A'                     A'
 Frequencies --  1703.3902              3434.4850              3906.5076
 Red. masses --     3.6419                 1.1046                 1.0852
 Frc consts  --     6.2259                 7.6771                 9.7570
 IR Inten    --    24.7826                 0.5327               136.2225
 Raman Activ --     1.8533                62.7411                67.8647
 Depolar (P) --     0.3505                 0.2513                 0.2211
 Depolar (U) --     0.5191                 0.4017                 0.3622
 Atom AN      X      Y      Z        X      Y      Z        X      Y      Z
   1   7     0.07  -0.16   0.00     0.00   0.00   0.00     0.00   0.00   0.00
   2   7    -0.13   0.14   0.00     0.00   0.00   0.00     0.00   0.00   0.00
   3   7     0.18   0.02   0.00     0.00   0.00   0.00     0.01  -0.08   0.00
   4   1    -0.75  -0.03   0.00     0.01   0.02   0.00    -0.06   1.00   0.00
   5   7     0.05   0.19   0.00     0.00   0.00   0.00     0.00   0.00   0.00
   6   6    -0.11  -0.26   0.00     0.09   0.03   0.00     0.00   0.00   0.00
   7   1    -0.34   0.32   0.00    -0.95  -0.29   0.00     0.01   0.00   0.00

 -------------------
 - Thermochemistry -
 -------------------
 Temperature   298.150 Kelvin.  Pressure   1.00000 Atm.
 Atom  1 has atomic number  7 and mass  14.00307
 Atom  2 has atomic number  7 and mass  14.00307
 Atom  3 has atomic number  7 and mass  14.00307
 Atom  4 has atomic number  1 and mass   1.00783
 Atom  5 has atomic number  7 and mass  14.00307
 Atom  6 has atomic number  6 and mass  12.00000
 Atom  7 has atomic number  1 and mass   1.00783
 Molecular mass:    70.02795 amu.
 Principal axes and moments of inertia in atomic units:
                           1         2         3
     EIGENVALUES --   164.40599 167.26955 331.67554
           X            0.94982   0.31278   0.00000
           Y           -0.31278   0.94982   0.00000
           Z            0.00000   0.00000   1.00000
 This molecule is an asymmetric top.
 Rotational symmetry number  1.
 Rotational temperatures (Kelvin)      0.52683     0.51781     0.26114
 Rotational constants (GHZ):          10.97734    10.78942     5.44129
 Zero-point vibrational energy     135216.3 (Joules/Mol)
                                   32.31747 (Kcal/Mol)
 Vibrational temperatures:    899.23  1077.85  1176.19  1464.44  1560.97
          (Kelvin)           1593.55  1674.32  1709.40  1798.79  2037.14
                             2199.50  2321.30  2450.80  4941.45  5620.59
 
 Zero-point correction=                           0.051501 (Hartree/Particle)
 Thermal correction to Energy=                    0.054801
 Thermal correction to Enthalpy=                  0.055745
 Thermal correction to Gibbs Free Energy=         0.025519
 Sum of electronic and zero-point Energies=           -256.800818
 Sum of electronic and thermal Energies=              -256.797519
 Sum of electronic and thermal Enthalpies=            -256.796575
 Sum of electronic and thermal Free Energies=         -256.826801
 
                     E (Thermal)             CV                S
                      KCal/Mol        Cal/Mol-Kelvin    Cal/Mol-Kelvin
 Total                   34.388             10.097             63.616
 Electronic               0.000              0.000              0.000
 Translational            0.889              2.981             38.656
 Rotational               0.889              2.981             23.726
 Vibrational             32.610              4.136              1.233
                       Q            Log10(Q)             Ln(Q)
 Total Bot       0.182901D-11        -11.737783        -27.027245
 Total V=0       0.893431D+12         11.951061         27.518335
 Vib (Bot)       0.232265D-23        -23.634016        -54.419333
 Vib (V=0)       0.113456D+01          0.054829          0.126247
 Electronic      0.100000D+01          0.000000          0.000000
 Translational   0.230336D+08          7.362362         16.952466
 Rotational      0.341877D+05          4.533870         10.439622
 ***** Axes restored to original set *****
 -------------------------------------------------------------------
 Center     Atomic                   Forces (Hartrees/Bohr)
 Number     Number              X              Y              Z
 -------------------------------------------------------------------
    1          7          -0.000478280   -0.000154352    0.000000000
    2          7           0.000020414    0.000051726    0.000000000
    3          7           0.000018264    0.000167113    0.000000000
    4          1           0.000024297    0.000173134    0.000000000
    5          7           0.000555765   -0.000227499    0.000000000
    6          6          -0.000069830   -0.000018939    0.000000000
    7          1          -0.000070630    0.000008818    0.000000000
 -------------------------------------------------------------------
 Cartesian Forces:  Max     0.000555765 RMS     0.000180664

 GradGradGradGradGradGradGradGradGradGradGradGradGradGradGradGradGradGrad
 Berny optimization.
 Internal  Forces:  Max     0.000447090 RMS     0.000126767
 Search for a local minimum.
 Step number   1 out of a maximum of   2
 All quantities printed in internal units (Hartrees-Bohrs-Radians)
 Second derivative matrix not updated -- analytic derivatives used.
     Eigenvalues ---    0.00929   0.03250   0.08501   0.09116   0.12137
     Eigenvalues ---    0.12594   0.25149   0.30480   0.41236   0.42043
     Eigenvalues ---    0.52735   0.54206   0.58553   0.69099   0.77268
     Eigenvalues --- 1000.000001000.000001000.000001000.000001000.00000
     Eigenvalues --- 1000.000001000.000001000.000001000.000001000.00000
     Eigenvalues --- 1000.00000
 Angle between quadratic step and forces=  26.42 degrees.
 Linear search not attempted -- first point.
 Iteration  1 RMS(Cart)=  0.00031355 RMS(Int)=  0.00000006
 Iteration  2 RMS(Cart)=  0.00000006 RMS(Int)=  0.00000001
 Variable       Old X    -DE/DX   Delta X   Delta X   Delta X     New X
                                 (Linear)    (Quad)   (Total)
    R1        2.35564   0.00018   0.00000  -0.00004  -0.00004   2.35560
    R2        2.53249   0.00045   0.00000   0.00142   0.00142   2.53391
    R3        2.49943   0.00010   0.00000   0.00025   0.00025   2.49968
    R4        1.87083   0.00017   0.00000   0.00030   0.00030   1.87113
    R5        2.50762   0.00009   0.00000   0.00019   0.00019   2.50781
    R6        2.42967   0.00013   0.00000  -0.00009  -0.00009   2.42958
    R7        2.01575  -0.00006   0.00000  -0.00012  -0.00012   2.01563
    A1        1.94321  -0.00009   0.00000  -0.00018  -0.00018   1.94303
    A2        1.86428   0.00013   0.00000   0.00038   0.00038   1.86465
    A3        2.11220   0.00008   0.00000   0.00040   0.00040   2.11261
    A4        1.88382  -0.00009   0.00000  -0.00034  -0.00034   1.88348
    A5        2.28716   0.00001   0.00000  -0.00006  -0.00006   2.28710
    A6        1.84457  -0.00014   0.00000  -0.00049  -0.00049   1.84408
    A7        1.88889   0.00019   0.00000   0.00064   0.00064   1.88953
    A8        2.18231  -0.00013   0.00000  -0.00057  -0.00057   2.18174
    A9        2.21198  -0.00007   0.00000  -0.00007  -0.00007   2.21192
    D1        0.00000   0.00000   0.00000   0.00000   0.00000   0.00000
    D2        0.00000   0.00000   0.00000   0.00000   0.00000   0.00000
    D3        3.14159   0.00000   0.00000   0.00000   0.00000   3.14159
    D4        0.00000   0.00000   0.00000   0.00000   0.00000   0.00000
    D5        0.00000   0.00000   0.00000   0.00000   0.00000   0.00000
    D6        3.14159   0.00000   0.00000   0.00000   0.00000   3.14159
    D7        3.14159   0.00000   0.00000   0.00000   0.00000   3.14159
    D8        0.00000   0.00000   0.00000   0.00000   0.00000   0.00000
    D9        0.00000   0.00000   0.00000   0.00000   0.00000   0.00000
   D10        3.14159   0.00000   0.00000   0.00000   0.00000   3.14159
         Item               Value     Threshold  Converged?
 Maximum Force            0.000447     0.000450     YES
 RMS     Force            0.000127     0.000300     YES
 Maximum Displacement     0.000807     0.001800     YES
 RMS     Displacement     0.000314     0.001200     YES
 Predicted change in Energy=-5.523920D-07
 Optimization completed.
    -- Stationary point found.
                           ----------------------------
                           !   Optimized Parameters   !
                           ! (Angstroms and Degrees)  !
 --------------------------                            --------------------------
 ! Name  Definition              Value          Derivative Info.                !
 --------------------------------------------------------------------------------
 ! R1    R(1,2)                  1.2466         -DE/DX =    0.0002              !
 ! R2    R(1,5)                  1.3401         -DE/DX =    0.0004              !
 ! R3    R(2,3)                  1.3226         -DE/DX =    0.0001              !
 ! R4    R(3,4)                  0.99           -DE/DX =    0.0002              !
 ! R5    R(3,6)                  1.327          -DE/DX =    0.0001              !
 ! R6    R(5,6)                  1.2857         -DE/DX =    0.0001              !
 ! R7    R(6,7)                  1.0667         -DE/DX =   -0.0001              !
 ! A1    A(2,1,5)              111.3378         -DE/DX =   -0.0001              !
 ! A2    A(1,2,3)              106.8153         -DE/DX =    0.0001              !
 ! A3    A(2,3,4)              121.0203         -DE/DX =    0.0001              !
 ! A4    A(2,3,6)              107.9352         -DE/DX =   -0.0001              !
 ! A5    A(4,3,6)              131.0446         -DE/DX =    0.0                 !
 ! A6    A(1,5,6)              105.686          -DE/DX =   -0.0001              !
 ! A7    A(3,6,5)              108.2257         -DE/DX =    0.0002              !
 ! A8    A(3,6,7)              125.0369         -DE/DX =   -0.0001              !
 ! A9    A(5,6,7)              126.7374         -DE/DX =   -0.0001              !
 ! D1    D(5,1,2,3)              0.0            -DE/DX =    0.0                 !
 ! D2    D(2,1,5,6)              0.0            -DE/DX =    0.0                 !
 ! D3    D(1,2,3,4)            180.0            -DE/DX =    0.0                 !
 ! D4    D(1,2,3,6)              0.0            -DE/DX =    0.0                 !
 ! D5    D(2,3,6,5)              0.0            -DE/DX =    0.0                 !
 ! D6    D(2,3,6,7)            180.0            -DE/DX =    0.0                 !
 ! D7    D(4,3,6,5)            180.0            -DE/DX =    0.0                 !
 ! D8    D(4,3,6,7)              0.0            -DE/DX =    0.0                 !
 ! D9    D(1,5,6,3)              0.0            -DE/DX =    0.0                 !
 ! D10   D(1,5,6,7)            180.0            -DE/DX =    0.0                 !
 --------------------------------------------------------------------------------
 GradGradGradGradGradGradGradGradGradGradGradGradGradGradGradGradGradGrad

 1\1\GINC-P768\Freq\RHF\Aug-CC-pVTZ\C1H2N4\RDJ3\14-Jul-2005\0\\#N GEOM=
 ALLCHECK GUESS=READ SCRF=CHECK GENCHK RHF/AUG-CC-PVTZ FREQ\\1htz 1H-Te
 trazole casno=288948 method=1 basis=18\\0,1\N,-0.7162040074,-0.8985351
 773,0.\N,-1.0919000711,0.2900538026,0.\N,-0.0000001111,1.0364708611,0.
 \H,-0.0576101641,2.024791858,0.\N,0.6209929974,-0.9872771056,0.\C,1.04
 98149324,0.2248319174,0.\H,2.0684989154,0.541229972,0.\\Version=IA32L-
 G03RevC.02\State=1-A'\HF=-256.8523196\RMSD=1.275e-09\RMSF=1.807e-04\Di
 pole=1.0218275,1.9112223,0.\DipoleDeriv=0.2466415,-0.0995626,0.,-0.074
 5792,-0.1326127,0.,0.,0.,-0.1528391,-0.2314684,0.4168179,0.,0.2871393,
 0.1343433,0.,0.,0.,-0.0950066,-0.103019,-0.1471225,0.,-0.054473,-0.631
 1992,0.,0.,0.,-0.1744364,0.2047575,-0.0089824,0.,-0.0261321,0.3404994,
 0.,0.,0.,0.3525056,-0.5332514,0.0357386,0.,-0.1645659,-0.3651943,0.,0.
 ,0.,-0.2480974,0.3477055,-0.1654778,0.,0.0561297,0.553756,0.,0.,0.,0.1
 527668,0.0686343,-0.0314113,0.,-0.0235189,0.1004074,0.,0.,0.,0.1651072
 \Polar=40.760632,0.312481,41.0804848,0.,0.,24.9229042\PolarDeriv=2.433
 2324,-2.7297243,-5.0177738,0.,0.,-0.9305753,-8.5705016,-0.3699415,-6.1
 756932,0.,0.,-2.6122096,0.,0.,0.,-1.3961416,-2.4891472,0.,-8.307138,2.
 2589999,-3.2715555,0.,0.,-1.4550416,7.4502337,-1.8714059,2.2784418,0.,
 0.,1.659605,0.,0.,0.,-2.5445504,1.1775708,0.,-0.1849762,-1.9106952,-0.
 5023443,0.,0.,-1.3402477,0.326381,0.6526561,0.5563391,0.,0.,1.5343432,
 0.,0.,0.,-0.5630838,2.1881039,0.,-0.2583061,1.1308262,-0.4075543,0.,0.
 ,0.0014237,1.1779804,-0.3477721,8.5327832,0.,0.,0.8729287,0.,0.,0.,0.0
 027703,0.450975,0.,-3.3972126,-0.9447286,4.4330372,0.,0.,-0.0048848,-7
 .3865328,1.7272161,-5.9861669,0.,0.,-3.3511206,0.,0.,0.,0.6923613,-2.5
 503033,0.,1.7240615,0.4560221,3.3730283,0.,0.,2.6732773,5.3089031,-1.3
 653273,-0.3053202,0.,0.,1.6147883,0.,0.,0.,3.6373675,1.2282994,0.,7.99
 0339,1.7393,1.3931623,0.,0.,1.0560485,1.6935361,1.5745746,1.0996163,0.
 ,0.,0.281665,0.,0.,0.,0.1712767,-0.0054986,0.\HyperPolar=4.9427159,11.
 0912879,3.1212682,-8.0645905,0.,0.,0.,10.9867226,-0.9035176,0.\PG=CS [
 SG(C1H2N4)]\NImag=0\\0.53756903,0.04323974,0.80905182,0.,0.,0.15235382
 ,-0.18068762,0.08372394,0.,0.65960254,0.13326067,-0.48574860,0.,-0.137
 73598,0.70588465,0.,0.,-0.12039735,0.,0.,0.14232653,-0.02711923,-0.092
 78643,0.,-0.27523246,-0.07935303,0.,0.69316546,0.00960818,-0.18558695,
 0.,-0.02998960,-0.14763997,0.,-0.08107042,1.19320899,0.,0.,0.03489232,
 0.,0.,-0.08447909,0.,0.,0.11137695,-0.01036576,-0.01090604,0.,0.020230
 48,-0.03466780,0.,-0.09412133,0.03943091,0.,0.07358905,-0.00385465,0.0
 0219360,0.,0.00521218,-0.01187356,0.,0.02778942,-0.52759768,0.,-0.0267
 5989,0.53954523,0.,0.,0.00864228,0.,0.,-0.01371813,0.,0.,-0.00768078,0
 .,0.,0.01537646,-0.24156054,0.00570474,0.,-0.09126414,0.15820859,0.,0.
 02336659,-0.04908241,0.,-0.00655950,0.00178341,0.,0.49988384,-0.022079
 04,-0.13467344,0.,0.01787277,-0.03702405,0.,0.10434067,-0.12934361,0.,
 0.00975310,0.00192843,0.,-0.00163357,0.75261650,0.,0.,-0.10871969,0.,0
 .,0.04418382,0.,0.,0.02647924,0.,0.,0.00864469,0.,0.,0.13274218,-0.079
 56216,-0.02916628,0.,-0.13228990,-0.04252554,0.,-0.30508910,0.12214455
 ,0.,0.01778113,-0.00458502,0.,-0.18409984,-0.10683787,0.,1.05176385,-0
 .15530569,0.00098951,0.,0.05661773,-0.01728103,0.,0.09229419,-0.220092
 66,0.,0.02380735,-0.00410969,0.,-0.08088425,-0.45488307,0.,0.15282503,
 0.79374836,0.,0.,0.02239526,0.,0.,0.02496145,0.,0.,-0.08103514,0.,0.,-
 0.00983242,0.,0.,-0.10002053,0.,0.,0.18849512,0.00172630,0.00019033,0.
 ,-0.00035890,0.00281307,0.,-0.01496993,-0.01104122,0.,-0.00055407,0.00
 041455,0.,0.00023360,-0.00141606,0.,-0.36850399,-0.08935436,0.,0.38242
 699,-0.00486922,-0.00622595,0.,0.00429896,-0.00631744,0.,0.02878559,0.
 01705187,0.,-0.00065762,-0.00008633,0.,-0.03409652,0.00137924,0.,-0.09
 185487,-0.09837141,0.,0.09839368,0.09257003,0.,0.,0.01083335,0.,0.,0.0
 0712277,0.,0.,0.00044651,0.,0.,-0.00143210,0.,0.,-0.00330971,0.,0.,-0.
 04496374,0.,0.,0.03130291\\0.00047828,0.00015435,0.,-0.00002041,-0.000
 05173,0.,-0.00001826,-0.00016711,0.,-0.00002430,-0.00017313,0.,-0.0005
 5577,0.00022750,0.,0.00006983,0.00001894,0.,0.00007063,-0.00000882,0.\
 \\@


 ALTHOUGH J.J. COULD DIAGNOSE THE FAULTS OF AN
 APPARATUS WITH UNCANNY ACCURACY, IT WAS JUST AS
 WELL NOT TO LET HIM HANDLE IT.
   -- GEORGE THOMPSON, ABOUT HIS FATHER
 Job cpu time:  0 days  5 hours 42 minutes 50.6 seconds.
 File lengths (MBytes):  RWF=     63 Int=      0 D2E=      0 Chk=      8 Scr=      1
 Normal termination of Gaussian 03 at Thu Jul 14 01:27:44 2005.
