 Entering Link 1 = c:\pub\G98W\l1.exe PID=     54316.
  
 Copyright (c) 1988,1990,1992,1993,1995,1998 Gaussian, Inc.
                  All Rights Reserved.
  
 This is part of the Gaussian(R) 98 program.  It is based on
 the Gaussian 94(TM) system (copyright 1995 Gaussian, Inc.),
 the Gaussian 92(TM) system (copyright 1992 Gaussian, Inc.),
 the Gaussian 90(TM) system (copyright 1990 Gaussian, Inc.),
 the Gaussian 88(TM) system (copyright 1988 Gaussian, Inc.),
 the Gaussian 86(TM) system (copyright 1986 Carnegie Mellon
 University), and the Gaussian 82(TM) system (copyright 1983
 Carnegie Mellon University). Gaussian is a federally registered
 trademark of Gaussian, Inc.
  
 This software contains proprietary and confidential information,
 including trade secrets, belonging to Gaussian, Inc.
  
 This software is provided under written license and may be
 used, copied, transmitted, or stored only in accord with that
 written license.
  
 The following legend is applicable only to US Government
 contracts under DFARS:
  
                    RESTRICTED RIGHTS LEGEND
  
 Use, duplication or disclosure by the US Government is subject
 to restrictions as set forth in subparagraph (c)(1)(ii) of the
 Rights in Technical Data and Computer Software clause at DFARS
 252.227-7013.
  
 Gaussian, Inc.
 Carnegie Office Park, Building 6, Pittsburgh, PA 15106 USA
  
 The following legend is applicable only to US Government
 contracts under FAR:
  
                    RESTRICTED RIGHTS LEGEND
  
 Use, reproduction and disclosure by the US Government is subject
 to restrictions as set forth in subparagraph (c) of the
 Commercial Computer Software - Restricted Rights clause at FAR
 52.227-19.
  
 Gaussian, Inc.
 Carnegie Office Park, Building 6, Pittsburgh, PA 15106 USA
  
  
 ---------------------------------------------------------------
 Warning -- This program may not be used in any manner that
 competes with the business of Gaussian, Inc. or will provide
 assistance to any competitor of Gaussian, Inc.  The licensee
 of this program is prohibited from giving any competitor of
 Gaussian, Inc. access to this program.  By using this program,
 the user acknowledges that Gaussian, Inc. is engaged in the
 business of creating and licensing software in the field of
 computational chemistry and represents and warrants to the
 licensee that it is not a competitor of Gaussian, Inc. and that
 it will not use this program in any manner prohibited above.
 ---------------------------------------------------------------
  

 Cite this work as:
 Gaussian 98, Revision A.7,
 M. J. Frisch, G. W. Trucks, H. B. Schlegel, G. E. Scuseria, 
 M. A. Robb, J. R. Cheeseman, V. G. Zakrzewski, J. A. Montgomery, Jr., 
 R. E. Stratmann, J. C. Burant, S. Dapprich, J. M. Millam, 
 A. D. Daniels, K. N. Kudin, M. C. Strain, O. Farkas, J. Tomasi, 
 V. Barone, M. Cossi, R. Cammi, B. Mennucci, C. Pomelli, C. Adamo, 
 S. Clifford, J. Ochterski, G. A. Petersson, P. Y. Ayala, Q. Cui, 
 K. Morokuma, D. K. Malick, A. D. Rabuck, K. Raghavachari, 
 J. B. Foresman, J. Cioslowski, J. V. Ortiz, A. G. Baboul, 
 B. B. Stefanov, G. Liu, A. Liashenko, P. Piskorz, I. Komaromi, 
 R. Gomperts, R. L. Martin, D. J. Fox, T. Keith, M. A. Al-Laham, 
 C. Y. Peng, A. Nanayakkara, C. Gonzalez, M. Challacombe, 
 P. M. W. Gill, B. Johnson, W. Chen, M. W. Wong, J. L. Andres, 
 C. Gonzalez, M. Head-Gordon, E. S. Replogle, and J. A. Pople, 
 Gaussian, Inc., Pittsburgh PA, 1998.

 *********************************************
 Gaussian 98:  x86-Win32-G98RevA.7 11-Apr-1999
                  14-Jan-2004 
 *********************************************
 %mem=56000000
 Default route:  MaxDisk=40GB
 -------------------------
 #HF/6-31G(2df,p) opt freq
 -------------------------
 1/18=20,38=1/1,3;
 2/9=110,17=6,18=5/2;
 3/5=1,6=6,7=104,11=9,25=1,30=1/1,2,3;
 4//1;
 5/5=2,38=4/2;
 6/7=2,8=2,9=2,10=2,28=1/1;
 7//1,2,3,16;
 1/18=20/3(1);
 99//99;
 2/9=110/2;
 3/5=1,6=6,7=104,11=9,25=1,30=1/1,2,3;
 4/5=5,16=2/1;
 5/5=2,38=4/2;
 7//1,2,3,16;
 1/18=20/3(-5);
 2/9=110/2;
 6/7=2,8=2,9=2,10=2,19=2,28=1/1;
 99/9=1/99;
 -----------------------------------
 1htz casno=288948 method=1 basis=19
 -----------------------------------
 Symbolic Z-matrix:
 Charge =  0 Multiplicity = 1
 N                    -0.71631  -0.90193   0. 
 N                    -1.09552   0.29142   0. 
 N                     0.        1.03878   0. 
 H                    -0.06148   2.03099   0. 
 N                     0.62215  -0.9895    0. 
 C                     1.05281   0.22578   0. 
 H                     2.07237   0.54298   0. 

 GradGradGradGradGradGradGradGradGradGradGradGradGradGradGradGradGradGrad
 Berny optimization.
 Initialization pass.
                         ----------------------------
                         !    Initial Parameters    !
                         ! (Angstroms and Degrees)  !
 ------------------------                            -------------------------
 ! Name  Definition              Value          Derivative Info.             !
 -----------------------------------------------------------------------------
 ! R1    R(1,2)                  1.2522         estimate D2E/DX2             !
 ! R2    R(1,5)                  1.3413         estimate D2E/DX2             !
 ! R3    R(2,3)                  1.3262         estimate D2E/DX2             !
 ! R4    R(3,4)                  0.9941         estimate D2E/DX2             !
 ! R5    R(3,6)                  1.3302         estimate D2E/DX2             !
 ! R6    R(5,6)                  1.2893         estimate D2E/DX2             !
 ! R7    R(6,7)                  1.0678         estimate D2E/DX2             !
 ! A1    A(2,1,5)              111.3714         estimate D2E/DX2             !
 ! A2    A(1,2,3)              106.673          estimate D2E/DX2             !
 ! A3    A(2,3,4)              120.7559         estimate D2E/DX2             !
 ! A4    A(2,3,6)              108.0227         estimate D2E/DX2             !
 ! A5    A(4,3,6)              131.2214         estimate D2E/DX2             !
 ! A6    A(1,5,6)              105.7701         estimate D2E/DX2             !
 ! A7    A(3,6,5)              108.1628         estimate D2E/DX2             !
 ! A8    A(3,6,7)              125.0426         estimate D2E/DX2             !
 ! A9    A(5,6,7)              126.7946         estimate D2E/DX2             !
 ! D1    D(5,1,2,3)              0.             estimate D2E/DX2             !
 ! D2    D(2,1,5,6)              0.             estimate D2E/DX2             !
 ! D3    D(1,2,3,4)            180.             estimate D2E/DX2             !
 ! D4    D(1,2,3,6)              0.             estimate D2E/DX2             !
 ! D5    D(2,3,6,5)              0.             estimate D2E/DX2             !
 ! D6    D(2,3,6,7)            180.             estimate D2E/DX2             !
 ! D7    D(4,3,6,5)            180.             estimate D2E/DX2             !
 ! D8    D(4,3,6,7)              0.             estimate D2E/DX2             !
 ! D9    D(1,5,6,3)              0.             estimate D2E/DX2             !
 ! D10   D(1,5,6,7)            180.             estimate D2E/DX2             !
 -----------------------------------------------------------------------------
 Trust Radius=3.00D-01 FncErr=1.00D-07 GrdErr=1.00D-07
 Number of steps in this run=  36 maximum allowed number of steps= 100.
 GradGradGradGradGradGradGradGradGradGradGradGradGradGradGradGradGradGrad

                          Input orientation:                          
 ---------------------------------------------------------------------
 Center     Atomic     Atomic              Coordinates (Angstroms)
 Number     Number      Type              X           Y           Z
 ---------------------------------------------------------------------
    1          7             0       -0.716312   -0.901934    0.000000
    2          7             0       -1.095520    0.291420    0.000000
    3          7             0        0.000000    1.038775    0.000000
    4          1             0       -0.061479    2.030994    0.000000
    5          7             0        0.622151   -0.989495    0.000000
    6          6             0        1.052813    0.225779    0.000000
    7          1             0        2.072370    0.542976    0.000000
 ---------------------------------------------------------------------
                    Distance matrix (angstroms):
                    1          2          3          4          5
     1  N    0.000000
     2  N    1.252155   0.000000
     3  N    2.068684   1.326161   0.000000
     4  H    3.005141   2.023699   0.994122   0.000000
     5  N    1.341324   2.142694   2.121544   3.096886   0.000000
     6  C    2.097985   2.149336   1.330180   2.121426   1.289326
     7  H    3.140782   3.177862   2.130853   2.601444   2.109882
                    6          7
     6  C    0.000000
     7  H    1.067760   0.000000
 Stoichiometry    CH2N4
 Framework group  CS[SG(CH2N4)]
 Deg. of freedom   11
 Full point group                 CS      NOp   2
 Largest Abelian subgroup         CS      NOp   2
 Largest concise Abelian subgroup C1      NOp   1
                         Standard orientation:                         
 ---------------------------------------------------------------------
 Center     Atomic     Atomic              Coordinates (Angstroms)
 Number     Number      Type              X           Y           Z
 ---------------------------------------------------------------------
    1          7             0       -0.716312   -0.901934    0.000000
    2          7             0       -1.095520    0.291420    0.000000
    3          7             0        0.000000    1.038775    0.000000
    4          1             0       -0.061479    2.030994    0.000000
    5          7             0        0.622151   -0.989495    0.000000
    6          6             0        1.052813    0.225779    0.000000
    7          1             0        2.072370    0.542976    0.000000
 ---------------------------------------------------------------------
 Rotational constants (GHZ):     10.9198663     10.7343948      5.4131681
 Isotopes: N-14,N-14,N-14,H-1,N-14,C-12,H-1
 Standard basis: 6-31G(2df,p) (6D, 7F)
 There are   103 symmetry adapted basis functions of A'  symmetry.
 There are    47 symmetry adapted basis functions of A"  symmetry.
 Crude estimate of integral set expansion from redundant integrals=1.000.
 Integral buffers will be    262144 words long.
 Raffenetti 1 integral format.
 Two-electron integral symmetry is turned on.
   150 basis functions      234 primitive gaussians
    18 alpha electrons       18 beta electrons
       nuclear repulsion energy       169.8288360377 Hartrees.
 One-electron integrals computed using PRISM.
 NBasis=   150 RedAO= T  NBF=   103    47
 NBsUse=   150 1.00D-04 NBFU=   103    47
 Projected INDO Guess.
 Initial guess orbital symmetries:
       Occupied  (A') (A') (A') (A') (A') (A') (A') (A') (A') (A')
                 (A') (A") (A') (A') (A") (A") (A') (A')
       Virtual   (A") (A') (A") (A') (A') (A') (A') (A') (A') (A')
                 (A') (A') (A') (A') (A') (A') (A') (A') (A') (A')
                 (A') (A') (A') (A') (A') (A') (A') (A') (A') (A')
                 (A') (A') (A') (A') (A') (A') (A') (A') (A') (A')
                 (A') (A') (A') (A') (A') (A') (A') (A') (A') (A')
                 (A') (A') (A') (A') (A') (A') (A') (A') (A') (A')
                 (A') (A') (A') (A') (A') (A') (A') (A') (A') (A')
                 (A') (A') (A') (A') (A') (A') (A') (A') (A') (A')
                 (A') (A') (A') (A') (A') (A') (A') (A') (A') (A')
                 (A") (A") (A") (A") (A") (A") (A") (A") (A") (A")
                 (A") (A") (A") (A") (A") (A") (A") (A") (A") (A")
                 (A") (A") (A") (A") (A") (A") (A") (A") (A") (A")
                 (A") (A") (A") (A") (A") (A") (A") (A") (A") (A")
                 (A") (A")
 Requested convergence on RMS density matrix=1.00D-08 within  64 cycles.
 Requested convergence on MAX density matrix=1.00D-06.
 Integral accuracy reduced to 1.0D-05 until final iterations.
 Initial convergence to 1.0D-05 achieved.  Increase integral accuracy.
 SCF Done:  E(RHF) =  -256.781973154     A.U. after   15 cycles
             Convg  =    0.7248D-08             -V/T =  2.0006
             S**2   =   0.0000

 **********************************************************************

            Population analysis using the SCF density.

 **********************************************************************

 Orbital Symmetries:
       Occupied  (A') (A') (A') (A') (A') (A') (A') (A') (A') (A')
                 (A') (A") (A') (A') (A') (A') (A") (A")
       Virtual   (A") (A') (A") (A') (A') (A') (A') (A') (A') (A")
                 (A') (A') (A') (A') (A') (A") (A') (A') (A") (A")
                 (A') (A') (A') (A") (A") (A') (A") (A') (A") (A')
                 (A') (A") (A") (A') (A') (A') (A') (A") (A") (A')
                 (A') (A") (A') (A") (A') (A') (A') (A') (A") (A')
                 (A') (A') (A') (A') (A') (A") (A') (A') (A") (A')
                 (A') (A") (A') (A") (A') (A") (A') (A") (A') (A')
                 (A") (A') (A') (A") (A') (A") (A') (A') (A") (A')
                 (A') (A') (A") (A') (A') (A") (A') (A') (A") (A")
                 (A") (A') (A') (A") (A") (A") (A') (A") (A") (A')
                 (A") (A') (A") (A') (A') (A") (A") (A') (A") (A')
                 (A") (A') (A') (A') (A') (A') (A') (A') (A") (A')
                 (A') (A') (A') (A') (A') (A') (A') (A') (A') (A')
                 (A') (A')
  The electronic state is 1-A'.
 Alpha  occ. eigenvalues --  -15.67696 -15.65533 -15.63718 -15.59500 -11.33098
 Alpha  occ. eigenvalues --   -1.51415  -1.26067  -1.20372  -0.90895  -0.89101
 Alpha  occ. eigenvalues --   -0.80412  -0.68587  -0.67869  -0.56878  -0.47116
 Alpha  occ. eigenvalues --   -0.46054  -0.45443  -0.42014
 Alpha virt. eigenvalues --    0.15448   0.20226   0.20368   0.25786   0.36209
 Alpha virt. eigenvalues --    0.39109   0.43047   0.47994   0.59677   0.65004
 Alpha virt. eigenvalues --    0.65539   0.67618   0.73904   0.76345   0.77254
 Alpha virt. eigenvalues --    0.80908   0.83486   0.84630   0.87324   0.91303
 Alpha virt. eigenvalues --    0.92456   0.95233   0.99231   1.00952   1.03521
 Alpha virt. eigenvalues --    1.06620   1.08043   1.09301   1.09895   1.12664
 Alpha virt. eigenvalues --    1.19971   1.31196   1.32401   1.32860   1.47575
 Alpha virt. eigenvalues --    1.49322   1.52105   1.60811   1.61983   1.68113
 Alpha virt. eigenvalues --    1.73547   1.74592   1.81405   1.87782   1.88159
 Alpha virt. eigenvalues --    1.90826   1.96010   1.98448   2.04962   2.07394
 Alpha virt. eigenvalues --    2.22387   2.24112   2.33957   2.42113   2.48979
 Alpha virt. eigenvalues --    2.52559   2.64914   2.77316   2.88791   3.11888
 Alpha virt. eigenvalues --    3.22891   3.23294   3.26087   3.32404   3.40429
 Alpha virt. eigenvalues --    3.43711   3.47207   3.54682   3.57863   3.64853
 Alpha virt. eigenvalues --    3.69371   3.71713   3.74249   3.77409   3.83339
 Alpha virt. eigenvalues --    3.84746   3.95640   3.98886   4.08073   4.09624
 Alpha virt. eigenvalues --    4.16185   4.22521   4.30930   4.31836   4.39864
 Alpha virt. eigenvalues --    4.41620   4.43047   4.45172   4.54014   4.56289
 Alpha virt. eigenvalues --    4.59863   4.62087   4.66028   4.72760   4.81442
 Alpha virt. eigenvalues --    4.86538   4.90446   4.92356   4.94664   4.95649
 Alpha virt. eigenvalues --    4.96288   4.99105   5.00259   5.02619   5.08172
 Alpha virt. eigenvalues --    5.22743   5.24589   5.28743   5.29734   5.39612
 Alpha virt. eigenvalues --    5.41502   5.46638   5.49471   5.62399   5.67989
 Alpha virt. eigenvalues --    5.79067   5.90985   5.96115   5.97776   6.04670
 Alpha virt. eigenvalues --    6.19444   6.25640   6.71616   6.86846   8.47258
 Alpha virt. eigenvalues --   10.82029  11.88240  11.90308  11.97229  12.09939
 Alpha virt. eigenvalues --   16.59598  19.75062
          Condensed to atoms (all electrons):
              1          2          3          4          5          6
  1  N    6.386334   0.487979  -0.115277   0.003425   0.424252  -0.120313
  2  N    0.487979   6.454908   0.347298  -0.021379  -0.116117  -0.108272
  3  N   -0.115277   0.347298   6.351756   0.371301  -0.056381   0.426934
  4  H    0.003425  -0.021379   0.371301   0.323683   0.004029  -0.025021
  5  N    0.424252  -0.116117  -0.056381   0.004029   6.449971   0.559179
  6  C   -0.120313  -0.108272   0.426934  -0.025021   0.559179   4.750258
  7  H    0.002593   0.001326  -0.029495   0.000129  -0.019099   0.413384
              7
  1  N    0.002593
  2  N    0.001326
  3  N   -0.029495
  4  H    0.000129
  5  N   -0.019099
  6  C    0.413384
  7  H    0.422140
 Total atomic charges:
              1
  1  N   -0.068994
  2  N   -0.045742
  3  N   -0.296135
  4  H    0.343833
  5  N   -0.245834
  6  C    0.103849
  7  H    0.209022
 Sum of Mulliken charges=   0.00000
 Atomic charges with hydrogens summed into heavy atoms:
              1
  1  N   -0.068994
  2  N   -0.045742
  3  N    0.047698
  4  H    0.000000
  5  N   -0.245834
  6  C    0.312872
  7  H    0.000000
 Sum of Mulliken charges=   0.00000
 Electronic spatial extent (au):  <R**2>=   243.9149
 Charge=     0.0000 electrons
 Dipole moment (Debye):
    X=     2.5969    Y=     4.8203    Z=     0.0000  Tot=     5.4753
 Quadrupole moment (Debye-Ang):
   XX=   -28.3126   YY=   -26.1259   ZZ=   -28.3224
   XY=     1.9391   XZ=     0.0000   YZ=     0.0000
 Octapole moment (Debye-Ang**2):
  XXX=    12.1767  YYY=    22.1768  ZZZ=     0.0000  XYY=    -0.7170
  XXY=     4.8164  XXZ=     0.0000  XZZ=    -0.5502  YZZ=     0.6004
  YYZ=     0.0000  XYZ=     0.0000
 Hexadecapole moment (Debye-Ang**3):
 XXXX=  -136.0069 YYYY=  -114.3097 ZZZZ=   -24.8642 XXXY=     6.6823
 XXXZ=     0.0000 YYYX=    -0.2238 YYYZ=     0.0000 ZZZX=     0.0000
 ZZZY=     0.0000 XXYY=   -51.4192 XXZZ=   -29.1394 YYZZ=   -27.6768
 XXYZ=     0.0000 YYXZ=     0.0000 ZZXY=     0.0115
 N-N= 1.698288360377D+02 E-N=-9.414150257287D+02  KE= 2.566287625834D+02
 Symmetry A'   KE= 2.476276229075D+02
 Symmetry A"   KE= 9.001139675933D+00
 ***** Axes restored to original set *****
 -------------------------------------------------------------------
 Center     Atomic                   Forces (Hartrees/Bohr)
 Number     Number              X              Y              Z
 -------------------------------------------------------------------
    1          7          -0.000239309    0.004531095    0.000000000
    2          7           0.003932501   -0.003000350    0.000000000
    3          7          -0.000240182    0.001327106    0.000000000
    4          1           0.000378890   -0.003185308    0.000000000
    5          7           0.000799532    0.001611892    0.000000000
    6          6          -0.004779772   -0.001484986    0.000000000
    7          1           0.000148339    0.000200552    0.000000000
 -------------------------------------------------------------------
 Cartesian Forces:  Max     0.004779772 RMS     0.002017949

 GradGradGradGradGradGradGradGradGradGradGradGradGradGradGradGradGradGrad
 Berny optimization.
 Internal  Forces:  Max     0.004161080 RMS     0.001452712
 Search for a local minimum.
 Step number   1 out of a maximum of  36
 All quantities printed in internal units (Hartrees-Bohrs-Radians)
 Second derivative matrix not updated -- first step.
     Eigenvalues ---    0.02505   0.02639   0.02674   0.02834   0.16000
     Eigenvalues ---    0.16000   0.22605   0.24688   0.37515   0.48737
     Eigenvalues ---    0.50885   0.56605   0.58506   0.66912   0.78894
     Eigenvalues --- 1000.000001000.000001000.000001000.000001000.00000
     Eigenvalues --- 1000.000001000.000001000.000001000.000001000.00000
     Eigenvalues --- 1000.00000
 RFO step:  Lambda=-9.67793344D-05.
 Linear search not attempted -- first point.
 Iteration  1 RMS(Cart)=  0.00281787 RMS(Int)=  0.00000365
 Iteration  2 RMS(Cart)=  0.00000363 RMS(Int)=  0.00000069
 Iteration  3 RMS(Cart)=  0.00000000 RMS(Int)=  0.00000069
 Variable       Old X    -DE/DX   Delta X   Delta X   Delta X     New X
                                 (Linear)    (Quad)   (Total)
    R1        2.36623  -0.00416   0.00000  -0.00512  -0.00512   2.36111
    R2        2.53473  -0.00105   0.00000  -0.00180  -0.00180   2.53294
    R3        2.50608  -0.00268   0.00000  -0.00454  -0.00454   2.50154
    R4        1.87862  -0.00320   0.00000  -0.00657  -0.00657   1.87205
    R5        2.51367  -0.00273   0.00000  -0.00456  -0.00456   2.50912
    R6        2.43647  -0.00271   0.00000  -0.00374  -0.00374   2.43273
    R7        2.01777   0.00020   0.00000   0.00054   0.00054   2.01831
    A1        1.94380   0.00040   0.00000   0.00140   0.00140   1.94520
    A2        1.86179   0.00058   0.00000   0.00162   0.00162   1.86341
    A3        2.10759   0.00050   0.00000   0.00265   0.00265   2.11024
    A4        1.88535  -0.00065   0.00000  -0.00317  -0.00317   1.88218
    A5        2.29024   0.00015   0.00000   0.00052   0.00052   2.29077
    A6        1.84604  -0.00127   0.00000  -0.00454  -0.00454   1.84150
    A7        1.88780   0.00095   0.00000   0.00470   0.00470   1.89249
    A8        2.18241  -0.00063   0.00000  -0.00328  -0.00328   2.17913
    A9        2.21298  -0.00033   0.00000  -0.00142  -0.00142   2.21156
    D1        0.00000   0.00000   0.00000   0.00000   0.00000   0.00000
    D2        0.00000   0.00000   0.00000   0.00000   0.00000   0.00000
    D3        3.14159   0.00000   0.00000   0.00000   0.00000   3.14159
    D4        0.00000   0.00000   0.00000   0.00000   0.00000   0.00000
    D5        0.00000   0.00000   0.00000   0.00000   0.00000   0.00000
    D6        3.14159   0.00000   0.00000   0.00000   0.00000   3.14159
    D7        3.14159   0.00000   0.00000   0.00000   0.00000   3.14159
    D8        0.00000   0.00000   0.00000   0.00000   0.00000   0.00000
    D9        0.00000   0.00000   0.00000   0.00000   0.00000   0.00000
   D10        3.14159   0.00000   0.00000   0.00000   0.00000   3.14159
         Item               Value     Threshold  Converged?
 Maximum Force            0.004161     0.000450     NO 
 RMS     Force            0.001453     0.000300     NO 
 Maximum Displacement     0.006745     0.001800     NO 
 RMS     Displacement     0.002819     0.001200     NO 
 Predicted change in Energy=-4.838052D-05
 GradGradGradGradGradGradGradGradGradGradGradGradGradGradGradGradGradGrad

                          Input orientation:                          
 ---------------------------------------------------------------------
 Center     Atomic     Atomic              Coordinates (Angstroms)
 Number     Number      Type              X           Y           Z
 ---------------------------------------------------------------------
    1          7             0       -0.714651   -0.899394    0.000000
    2          7             0       -1.092550    0.291535    0.000000
    3          7             0        0.000084    1.038852    0.000000
    4          1             0       -0.059752    2.027689    0.000000
    5          7             0        0.622702   -0.989313    0.000000
    6          6             0        1.049389    0.225264    0.000000
    7          1             0        2.068801    0.543881    0.000000
 ---------------------------------------------------------------------
                    Distance matrix (angstroms):
                    1          2          3          4          5
     1  N    0.000000
     2  N    1.249448   0.000000
     3  N    2.065828   1.323756   0.000000
     4  H    2.999451   2.020124   0.990645   0.000000
     5  N    1.340372   2.140715   2.121582   3.093226   0.000000
     6  C    2.092054   2.142964   1.327768   2.116348   1.287346
     7  H    3.135386   3.171406   2.127108   2.594691   2.107578
                    6          7
     6  C    0.000000
     7  H    1.068043   0.000000
 Stoichiometry    CH2N4
 Framework group  CS[SG(CH2N4)]
 Deg. of freedom   11
 Full point group                 CS      NOp   2
 Largest Abelian subgroup         CS      NOp   2
 Largest concise Abelian subgroup C1      NOp   1
                         Standard orientation:                         
 ---------------------------------------------------------------------
 Center     Atomic     Atomic              Coordinates (Angstroms)
 Number     Number      Type              X           Y           Z
 ---------------------------------------------------------------------
    1          7             0       -0.715329   -0.899589    0.000000
    2          7             0       -1.092863    0.291456    0.000000
    3          7             0        0.000000    1.038438    0.000000
    4          1             0       -0.059533    2.027293    0.000000
    5          7             0        0.621996   -0.989918    0.000000
    6          6             0        1.049056    0.224528    0.000000
    7          1             0        2.068565    0.542832    0.000000
 ---------------------------------------------------------------------
 Rotational constants (GHZ):     10.9520969     10.7703411      5.4302293
 Isotopes: N-14,N-14,N-14,H-1,N-14,C-12,H-1
 Standard basis: 6-31G(2df,p) (6D, 7F)
 There are   103 symmetry adapted basis functions of A'  symmetry.
 There are    47 symmetry adapted basis functions of A"  symmetry.
 Crude estimate of integral set expansion from redundant integrals=1.000.
 Integral buffers will be    262144 words long.
 Raffenetti 1 integral format.
 Two-electron integral symmetry is turned on.
   150 basis functions      234 primitive gaussians
    18 alpha electrons       18 beta electrons
       nuclear repulsion energy       170.1016780720 Hartrees.
 One-electron integrals computed using PRISM.
 NBasis=   150 RedAO= T  NBF=   103    47
 NBsUse=   150 1.00D-04 NBFU=   103    47
 Initial guess read from the read-write file:
 Initial guess orbital symmetries:
       Occupied  (A') (A') (A') (A') (A') (A') (A') (A') (A') (A')
                 (A') (A") (A') (A') (A') (A') (A") (A")
       Virtual   (A") (A') (A") (A') (A') (A') (A') (A') (A') (A")
                 (A') (A') (A') (A') (A') (A") (A') (A') (A") (A")
                 (A') (A') (A') (A") (A") (A') (A") (A') (A") (A')
                 (A') (A") (A") (A') (A') (A') (A') (A") (A") (A')
                 (A') (A") (A') (A") (A') (A') (A') (A') (A") (A')
                 (A') (A') (A') (A') (A') (A") (A') (A') (A") (A')
                 (A') (A") (A') (A") (A') (A") (A') (A") (A') (A')
                 (A") (A') (A') (A") (A') (A") (A') (A') (A") (A')
                 (A') (A') (A") (A') (A') (A") (A') (A') (A") (A")
                 (A") (A') (A') (A") (A") (A") (A') (A") (A") (A')
                 (A") (A') (A") (A') (A') (A") (A") (A') (A") (A')
                 (A") (A') (A') (A') (A') (A') (A') (A') (A") (A')
                 (A') (A') (A') (A') (A') (A') (A') (A') (A') (A')
                 (A') (A')
 Requested convergence on RMS density matrix=1.00D-08 within  64 cycles.
 Requested convergence on MAX density matrix=1.00D-06.
 SCF Done:  E(RHF) =  -256.782014071     A.U. after   10 cycles
             Convg  =    0.4950D-08             -V/T =  2.0004
             S**2   =   0.0000
 ***** Axes restored to original set *****
 -------------------------------------------------------------------
 Center     Atomic                   Forces (Hartrees/Bohr)
 Number     Number              X              Y              Z
 -------------------------------------------------------------------
    1          7          -0.001541514    0.000112127    0.000000000
    2          7          -0.000299764   -0.000838184    0.000000000
    3          7           0.000176031   -0.000606228    0.000000000
    4          1           0.000087491    0.000285784    0.000000000
    5          7           0.000332816    0.000808770    0.000000000
    6          6           0.001149442    0.000169702    0.000000000
    7          1           0.000095498    0.000068029    0.000000000
 -------------------------------------------------------------------
 Cartesian Forces:  Max     0.001541514 RMS     0.000525435

 GradGradGradGradGradGradGradGradGradGradGradGradGradGradGradGradGradGrad
 Berny optimization.
 Internal  Forces:  Max     0.001042778 RMS     0.000414437
 Search for a local minimum.
 Step number   2 out of a maximum of  36
 All quantities printed in internal units (Hartrees-Bohrs-Radians)
 Update second derivatives using information from points  1  2
 Trust test= 8.46D-01 RLast= 1.43D-02 DXMaxT set to 3.00D-01
     Eigenvalues ---    0.02505   0.02640   0.02675   0.02834   0.15884
     Eigenvalues ---    0.16001   0.23888   0.27297   0.37438   0.47245
     Eigenvalues ---    0.50670   0.56401   0.64721   0.69459   0.71355
     Eigenvalues --- 1000.000001000.000001000.000001000.000001000.00000
     Eigenvalues --- 1000.000001000.000001000.000001000.000001000.00000
     Eigenvalues --- 1000.00000
 RFO step:  Lambda=-8.05105131D-06.
 Quartic linear search produced a step of -0.13504.
 Iteration  1 RMS(Cart)=  0.00111986 RMS(Int)=  0.00000068
 Iteration  2 RMS(Cart)=  0.00000064 RMS(Int)=  0.00000012
 Variable       Old X    -DE/DX   Delta X   Delta X   Delta X     New X
                                 (Linear)    (Quad)   (Total)
    R1        2.36111  -0.00068   0.00069  -0.00186  -0.00117   2.35994
    R2        2.53294   0.00104   0.00024   0.00120   0.00144   2.53438
    R3        2.50154   0.00079   0.00061   0.00010   0.00071   2.50225
    R4        1.87205   0.00028   0.00089  -0.00094  -0.00006   1.87199
    R5        2.50912   0.00003   0.00062  -0.00093  -0.00032   2.50880
    R6        2.43273  -0.00009   0.00051  -0.00089  -0.00039   2.43235
    R7        2.01831   0.00011  -0.00007   0.00037   0.00030   2.01861
    A1        1.94520  -0.00055  -0.00019  -0.00166  -0.00185   1.94335
    A2        1.86341   0.00009  -0.00022   0.00048   0.00026   1.86368
    A3        2.11024  -0.00014  -0.00036   0.00019  -0.00017   2.11007
    A4        1.88218   0.00047   0.00043   0.00115   0.00158   1.88376
    A5        2.29077  -0.00033  -0.00007  -0.00134  -0.00141   2.28936
    A6        1.84150   0.00078   0.00061   0.00190   0.00251   1.84401
    A7        1.89249  -0.00078  -0.00063  -0.00187  -0.00251   1.88999
    A8        2.17913   0.00036   0.00044   0.00053   0.00097   2.18010
    A9        2.21156   0.00043   0.00019   0.00134   0.00153   2.21310
    D1        0.00000   0.00000   0.00000   0.00000   0.00000   0.00000
    D2        0.00000   0.00000   0.00000   0.00000   0.00000   0.00000
    D3        3.14159   0.00000   0.00000   0.00000   0.00000   3.14159
    D4        0.00000   0.00000   0.00000   0.00000   0.00000   0.00000
    D5        0.00000   0.00000   0.00000   0.00000   0.00000   0.00000
    D6        3.14159   0.00000   0.00000   0.00000   0.00000   3.14159
    D7        3.14159   0.00000   0.00000   0.00000   0.00000   3.14159
    D8        0.00000   0.00000   0.00000   0.00000   0.00000   0.00000
    D9        0.00000   0.00000   0.00000   0.00000   0.00000   0.00000
   D10        3.14159   0.00000   0.00000   0.00000   0.00000   3.14159
         Item               Value     Threshold  Converged?
 Maximum Force            0.001043     0.000450     NO 
 RMS     Force            0.000414     0.000300     NO 
 Maximum Displacement     0.002810     0.001800     NO 
 RMS     Displacement     0.001120     0.001200     YES
 Predicted change in Energy=-5.046489D-06
 GradGradGradGradGradGradGradGradGradGradGradGradGradGradGradGradGradGrad

                          Input orientation:                          
 ---------------------------------------------------------------------
 Center     Atomic     Atomic              Coordinates (Angstroms)
 Number     Number      Type              X           Y           Z
 ---------------------------------------------------------------------
    1          7             0       -0.716540   -0.900045    0.000000
    2          7             0       -1.093426    0.290555    0.000000
    3          7             0       -0.000163    1.037616    0.000000
    4          1             0       -0.059739    2.026438    0.000000
    5          7             0        0.621677   -0.988468    0.000000
    6          6             0        1.049945    0.225337    0.000000
    7          1             0        2.069453    0.544180    0.000000
 ---------------------------------------------------------------------
                    Distance matrix (angstroms):
                    1          2          3          4          5
     1  N    0.000000
     2  N    1.248828   0.000000
     3  N    2.065848   1.324132   0.000000
     4  H    2.999282   2.020346   0.990615   0.000000
     5  N    1.341135   2.139505   2.119364   3.090953   0.000000
     6  C    2.094505   2.144363   1.327601   2.115506   1.287142
     7  H    3.138079   3.173032   2.127625   2.594331   2.108332
                    6          7
     6  C    0.000000
     7  H    1.068203   0.000000
 Stoichiometry    CH2N4
 Framework group  CS[SG(CH2N4)]
 Deg. of freedom   11
 Full point group                 CS      NOp   2
 Largest Abelian subgroup         CS      NOp   2
 Largest concise Abelian subgroup C1      NOp   1
                         Standard orientation:                         
 ---------------------------------------------------------------------
 Center     Atomic     Atomic              Coordinates (Angstroms)
 Number     Number      Type              X           Y           Z
 ---------------------------------------------------------------------
    1          7             0       -0.716174   -0.900127    0.000000
    2          7             0       -1.093185    0.290434    0.000000
    3          7             0        0.000000    1.037609    0.000000
    4          1             0       -0.059680    2.026425    0.000000
    5          7             0        0.622053   -0.988410    0.000000
    6          6             0        1.050193    0.225440    0.000000
    7          1             0        2.069668    0.544390    0.000000
 ---------------------------------------------------------------------
 Rotational constants (GHZ):     10.9511215     10.7705083      5.4300320
 Isotopes: N-14,N-14,N-14,H-1,N-14,C-12,H-1
 Standard basis: 6-31G(2df,p) (6D, 7F)
 There are   103 symmetry adapted basis functions of A'  symmetry.
 There are    47 symmetry adapted basis functions of A"  symmetry.
 Crude estimate of integral set expansion from redundant integrals=1.000.
 Integral buffers will be    262144 words long.
 Raffenetti 1 integral format.
 Two-electron integral symmetry is turned on.
   150 basis functions      234 primitive gaussians
    18 alpha electrons       18 beta electrons
       nuclear repulsion energy       170.0989462273 Hartrees.
 One-electron integrals computed using PRISM.
 NBasis=   150 RedAO= T  NBF=   103    47
 NBsUse=   150 1.00D-04 NBFU=   103    47
 Initial guess read from the read-write file:
 Initial guess orbital symmetries:
       Occupied  (A') (A') (A') (A') (A') (A') (A') (A') (A') (A')
                 (A') (A") (A') (A') (A') (A') (A") (A")
       Virtual   (A") (A') (A") (A') (A') (A') (A') (A') (A') (A")
                 (A') (A') (A') (A') (A') (A") (A') (A') (A") (A")
                 (A') (A') (A') (A") (A") (A') (A") (A') (A") (A')
                 (A') (A") (A") (A') (A') (A') (A') (A") (A") (A')
                 (A') (A") (A') (A") (A') (A') (A') (A') (A") (A')
                 (A') (A') (A') (A') (A') (A") (A') (A') (A") (A')
                 (A') (A") (A') (A") (A') (A") (A') (A") (A') (A')
                 (A") (A') (A') (A") (A') (A") (A') (A') (A") (A')
                 (A') (A') (A") (A') (A') (A") (A') (A') (A") (A")
                 (A") (A') (A') (A") (A") (A") (A') (A") (A") (A')
                 (A") (A') (A") (A') (A') (A") (A") (A') (A") (A')
                 (A") (A') (A') (A') (A') (A') (A') (A') (A") (A')
                 (A') (A') (A') (A') (A') (A') (A') (A') (A') (A')
                 (A') (A')
 Requested convergence on RMS density matrix=1.00D-08 within  64 cycles.
 Requested convergence on MAX density matrix=1.00D-06.
 SCF Done:  E(RHF) =  -256.782016682     A.U. after    9 cycles
             Convg  =    0.6740D-08             -V/T =  2.0004
             S**2   =   0.0000
 ***** Axes restored to original set *****
 -------------------------------------------------------------------
 Center     Atomic                   Forces (Hartrees/Bohr)
 Number     Number              X              Y              Z
 -------------------------------------------------------------------
    1          7           0.000084286    0.000271713    0.000000000
    2          7          -0.000261957    0.000152768    0.000000000
    3          7          -0.000267218    0.000392335    0.000000000
    4          1          -0.000059778    0.000325986    0.000000000
    5          7           0.000695751   -0.000757632    0.000000000
    6          6          -0.000135056   -0.000343595    0.000000000
    7          1          -0.000056027   -0.000041575    0.000000000
 -------------------------------------------------------------------
 Cartesian Forces:  Max     0.000757632 RMS     0.000285132

 GradGradGradGradGradGradGradGradGradGradGradGradGradGradGradGradGradGrad
 Berny optimization.
 Internal  Forces:  Max     0.000623738 RMS     0.000252119
 Search for a local minimum.
 Step number   3 out of a maximum of  36
 All quantities printed in internal units (Hartrees-Bohrs-Radians)
 Update second derivatives using information from points  1  2  3
 Trust test= 5.17D-01 RLast= 5.31D-03 DXMaxT set to 3.00D-01
     Eigenvalues ---    0.02505   0.02639   0.02674   0.02834   0.15857
     Eigenvalues ---    0.16001   0.23812   0.37166   0.41328   0.47079
     Eigenvalues ---    0.50120   0.58985   0.62845   0.69148   0.77061
     Eigenvalues --- 1000.000001000.000001000.000001000.000001000.00000
     Eigenvalues --- 1000.000001000.000001000.000001000.000001000.00000
     Eigenvalues --- 1000.00000
 RFO step:  Lambda=-1.14135969D-06.
 Quartic linear search produced a step of -0.32594.
 Iteration  1 RMS(Cart)=  0.00044694 RMS(Int)=  0.00000013
 Iteration  2 RMS(Cart)=  0.00000012 RMS(Int)=  0.00000003
 Variable       Old X    -DE/DX   Delta X   Delta X   Delta X     New X
                                 (Linear)    (Quad)   (Total)
    R1        2.35994   0.00027   0.00038  -0.00022   0.00016   2.36011
    R2        2.53438   0.00028  -0.00047   0.00096   0.00049   2.53487
    R3        2.50225  -0.00005  -0.00023   0.00034   0.00011   2.50236
    R4        1.87199   0.00033   0.00002   0.00051   0.00053   1.87252
    R5        2.50880   0.00062   0.00010   0.00060   0.00070   2.50950
    R6        2.43235   0.00014   0.00013   0.00002   0.00015   2.43249
    R7        2.01861  -0.00007  -0.00010   0.00001  -0.00009   2.01853
    A1        1.94335   0.00050   0.00060   0.00039   0.00099   1.94434
    A2        1.86368  -0.00013  -0.00009  -0.00024  -0.00032   1.86335
    A3        2.11007   0.00007   0.00005   0.00003   0.00009   2.11016
    A4        1.88376  -0.00021  -0.00051   0.00014  -0.00037   1.88338
    A5        2.28936   0.00014   0.00046  -0.00018   0.00028   2.28964
    A6        1.84401  -0.00060  -0.00082  -0.00034  -0.00116   1.84285
    A7        1.88999   0.00043   0.00082   0.00005   0.00087   1.89085
    A8        2.18010  -0.00019  -0.00032  -0.00004  -0.00036   2.17975
    A9        2.21310  -0.00024  -0.00050  -0.00001  -0.00051   2.21259
    D1        0.00000   0.00000   0.00000   0.00000   0.00000   0.00000
    D2        0.00000   0.00000   0.00000   0.00000   0.00000   0.00000
    D3        3.14159   0.00000   0.00000   0.00000   0.00000   3.14159
    D4        0.00000   0.00000   0.00000   0.00000   0.00000   0.00000
    D5        0.00000   0.00000   0.00000   0.00000   0.00000   0.00000
    D6        3.14159   0.00000   0.00000   0.00000   0.00000   3.14159
    D7        3.14159   0.00000   0.00000   0.00000   0.00000   3.14159
    D8        0.00000   0.00000   0.00000   0.00000   0.00000   0.00000
    D9        0.00000   0.00000   0.00000   0.00000   0.00000   0.00000
   D10        3.14159   0.00000   0.00000   0.00000   0.00000   3.14159
         Item               Value     Threshold  Converged?
 Maximum Force            0.000624     0.000450     NO 
 RMS     Force            0.000252     0.000300     YES
 Maximum Displacement     0.001142     0.001800     YES
 RMS     Displacement     0.000447     0.001200     YES
 Predicted change in Energy=-1.367285D-06
 GradGradGradGradGradGradGradGradGradGradGradGradGradGradGradGradGradGrad

                          Input orientation:                          
 ---------------------------------------------------------------------
 Center     Atomic     Atomic              Coordinates (Angstroms)
 Number     Number      Type              X           Y           Z
 ---------------------------------------------------------------------
    1          7             0       -0.715946   -0.899841    0.000000
    2          7             0       -1.093328    0.290693    0.000000
    3          7             0       -0.000069    1.037864    0.000000
    4          1             0       -0.059644    2.026965    0.000000
    5          7             0        0.622476   -0.989080    0.000000
    6          6             0        1.050086    0.225040    0.000000
    7          1             0        2.069533    0.543924    0.000000
 ---------------------------------------------------------------------
                    Distance matrix (angstroms):
                    1          2          3          4          5
     1  N    0.000000
     2  N    1.248915   0.000000
     3  N    2.065715   1.324190   0.000000
     4  H    2.999488   2.020679   0.990894   0.000000
     5  N    1.341394   2.140514   2.120392   3.092218   0.000000
     6  C    2.093854   2.144419   1.327971   2.116231   1.287220
     7  H    3.137412   3.172983   2.127729   2.594765   2.108098
                    6          7
     6  C    0.000000
     7  H    1.068158   0.000000
 Stoichiometry    CH2N4
 Framework group  CS[SG(CH2N4)]
 Deg. of freedom   11
 Full point group                 CS      NOp   2
 Largest Abelian subgroup         CS      NOp   2
 Largest concise Abelian subgroup C1      NOp   1
                         Standard orientation:                         
 ---------------------------------------------------------------------
 Center     Atomic     Atomic              Coordinates (Angstroms)
 Number     Number      Type              X           Y           Z
 ---------------------------------------------------------------------
    1          7             0       -0.716127   -0.899709    0.000000
    2          7             0       -1.093355    0.290873    0.000000
    3          7             0        0.000000    1.037903    0.000000
    4          1             0       -0.059447    2.027012    0.000000
    5          7             0        0.622284   -0.989120    0.000000
    6          6             0        1.050050    0.224944    0.000000
    7          1             0        2.069539    0.543697    0.000000
 ---------------------------------------------------------------------
 Rotational constants (GHZ):     10.9514218     10.7646285      5.4286109
 Isotopes: N-14,N-14,N-14,H-1,N-14,C-12,H-1
 Standard basis: 6-31G(2df,p) (6D, 7F)
 There are   103 symmetry adapted basis functions of A'  symmetry.
 There are    47 symmetry adapted basis functions of A"  symmetry.
 Crude estimate of integral set expansion from redundant integrals=1.000.
 Integral buffers will be    262144 words long.
 Raffenetti 1 integral format.
 Two-electron integral symmetry is turned on.
   150 basis functions      234 primitive gaussians
    18 alpha electrons       18 beta electrons
       nuclear repulsion energy       170.0774168828 Hartrees.
 One-electron integrals computed using PRISM.
 NBasis=   150 RedAO= T  NBF=   103    47
 NBsUse=   150 1.00D-04 NBFU=   103    47
 Initial guess read from the read-write file:
 Initial guess orbital symmetries:
       Occupied  (A') (A') (A') (A') (A') (A') (A') (A') (A') (A')
                 (A') (A") (A') (A') (A') (A') (A") (A")
       Virtual   (A") (A') (A") (A') (A') (A') (A') (A') (A') (A")
                 (A') (A') (A') (A') (A') (A") (A') (A') (A") (A")
                 (A') (A') (A') (A") (A") (A') (A") (A') (A") (A')
                 (A') (A") (A") (A') (A') (A') (A') (A") (A") (A')
                 (A') (A") (A') (A") (A') (A') (A') (A') (A") (A')
                 (A') (A') (A') (A') (A') (A") (A') (A') (A") (A')
                 (A') (A") (A') (A") (A') (A") (A') (A") (A') (A')
                 (A") (A') (A') (A") (A') (A") (A') (A') (A") (A')
                 (A') (A') (A") (A') (A') (A") (A') (A') (A") (A")
                 (A") (A') (A') (A") (A") (A") (A') (A") (A") (A')
                 (A") (A') (A") (A') (A') (A") (A") (A') (A") (A')
                 (A") (A') (A') (A') (A') (A') (A') (A') (A") (A')
                 (A') (A') (A') (A') (A') (A') (A') (A') (A') (A')
                 (A') (A')
 Requested convergence on RMS density matrix=1.00D-08 within  64 cycles.
 Requested convergence on MAX density matrix=1.00D-06.
 SCF Done:  E(RHF) =  -256.782018123     A.U. after    8 cycles
             Convg  =    0.8896D-08             -V/T =  2.0004
             S**2   =   0.0000
 ***** Axes restored to original set *****
 -------------------------------------------------------------------
 Center     Atomic                   Forces (Hartrees/Bohr)
 Number     Number              X              Y              Z
 -------------------------------------------------------------------
    1          7          -0.000260935   -0.000031668    0.000000000
    2          7           0.000104888   -0.000156534    0.000000000
    3          7           0.000015639    0.000250870    0.000000000
    4          1           0.000003517    0.000036108    0.000000000
    5          7           0.000185213    0.000011319    0.000000000
    6          6          -0.000034102   -0.000116936    0.000000000
    7          1          -0.000014221    0.000006841    0.000000000
 -------------------------------------------------------------------
 Cartesian Forces:  Max     0.000260935 RMS     0.000102029

 GradGradGradGradGradGradGradGradGradGradGradGradGradGradGradGradGradGrad
 Berny optimization.
 Internal  Forces:  Max     0.000153405 RMS     0.000060678
 Search for a local minimum.
 Step number   4 out of a maximum of  36
 All quantities printed in internal units (Hartrees-Bohrs-Radians)
 Update second derivatives using information from points  1  2  3  4
 Trust test= 1.05D+00 RLast= 2.21D-03 DXMaxT set to 3.00D-01
     Eigenvalues ---    0.02505   0.02640   0.02674   0.02834   0.15757
     Eigenvalues ---    0.16007   0.23111   0.37282   0.39922   0.46636
     Eigenvalues ---    0.49992   0.55232   0.63984   0.68584   0.78098
     Eigenvalues --- 1000.000001000.000001000.000001000.000001000.00000
     Eigenvalues --- 1000.000001000.000001000.000001000.000001000.00000
     Eigenvalues --- 1000.00000
 RFO step:  Lambda=-3.68346912D-07.
 Quartic linear search produced a step of  0.05729.
 Iteration  1 RMS(Cart)=  0.00022175 RMS(Int)=  0.00000004
 Iteration  2 RMS(Cart)=  0.00000003 RMS(Int)=  0.00000001
 Variable       Old X    -DE/DX   Delta X   Delta X   Delta X     New X
                                 (Linear)    (Quad)   (Total)
    R1        2.36011  -0.00003   0.00001  -0.00013  -0.00012   2.35999
    R2        2.53487   0.00015   0.00003   0.00046   0.00049   2.53536
    R3        2.50236   0.00009   0.00001   0.00020   0.00021   2.50257
    R4        1.87252   0.00004   0.00003   0.00012   0.00015   1.87267
    R5        2.50950   0.00006   0.00004   0.00019   0.00023   2.50973
    R6        2.43249   0.00001   0.00001  -0.00002  -0.00001   2.43249
    R7        2.01853  -0.00001   0.00000  -0.00002  -0.00003   2.01850
    A1        1.94434  -0.00010   0.00006  -0.00039  -0.00033   1.94401
    A2        1.86335   0.00014  -0.00002   0.00061   0.00059   1.86394
    A3        2.11016   0.00006   0.00001   0.00034   0.00035   2.11051
    A4        1.88338  -0.00012  -0.00002  -0.00055  -0.00057   1.88282
    A5        2.28964   0.00005   0.00002   0.00020   0.00022   2.28986
    A6        1.84285   0.00001  -0.00007  -0.00002  -0.00009   1.84277
    A7        1.89085   0.00007   0.00005   0.00034   0.00039   1.89125
    A8        2.17975  -0.00004  -0.00002  -0.00026  -0.00028   2.17947
    A9        2.21259  -0.00002  -0.00003  -0.00008  -0.00011   2.21247
    D1        0.00000   0.00000   0.00000   0.00000   0.00000   0.00000
    D2        0.00000   0.00000   0.00000   0.00000   0.00000   0.00000
    D3        3.14159   0.00000   0.00000   0.00000   0.00000   3.14159
    D4        0.00000   0.00000   0.00000   0.00000   0.00000   0.00000
    D5        0.00000   0.00000   0.00000   0.00000   0.00000   0.00000
    D6        3.14159   0.00000   0.00000   0.00000   0.00000   3.14159
    D7        3.14159   0.00000   0.00000   0.00000   0.00000   3.14159
    D8        0.00000   0.00000   0.00000   0.00000   0.00000   0.00000
    D9        0.00000   0.00000   0.00000   0.00000   0.00000   0.00000
   D10        3.14159   0.00000   0.00000   0.00000   0.00000   3.14159
         Item               Value     Threshold  Converged?
 Maximum Force            0.000153     0.000450     YES
 RMS     Force            0.000061     0.000300     YES
 Maximum Displacement     0.000639     0.001800     YES
 RMS     Displacement     0.000222     0.001200     YES
 Predicted change in Energy=-1.884182D-07
 Optimization completed.
    -- Stationary point found.
                         ----------------------------
                         !   Optimized Parameters   !
                         ! (Angstroms and Degrees)  !
 ------------------------                            -------------------------
 ! Name  Definition              Value          Derivative Info.             !
 -----------------------------------------------------------------------------
 ! R1    R(1,2)                  1.2489         -DE/DX =    0.               !
 ! R2    R(1,5)                  1.3414         -DE/DX =    0.0002           !
 ! R3    R(2,3)                  1.3242         -DE/DX =    0.0001           !
 ! R4    R(3,4)                  0.9909         -DE/DX =    0.               !
 ! R5    R(3,6)                  1.328          -DE/DX =    0.0001           !
 ! R6    R(5,6)                  1.2872         -DE/DX =    0.               !
 ! R7    R(6,7)                  1.0682         -DE/DX =    0.               !
 ! A1    A(2,1,5)              111.4024         -DE/DX =   -0.0001           !
 ! A2    A(1,2,3)              106.7622         -DE/DX =    0.0001           !
 ! A3    A(2,3,4)              120.9032         -DE/DX =    0.0001           !
 ! A4    A(2,3,6)              107.9099         -DE/DX =   -0.0001           !
 ! A5    A(4,3,6)              131.1869         -DE/DX =    0.0001           !
 ! A6    A(1,5,6)              105.5876         -DE/DX =    0.               !
 ! A7    A(3,6,5)              108.3379         -DE/DX =    0.0001           !
 ! A8    A(3,6,7)              124.8902         -DE/DX =    0.               !
 ! A9    A(5,6,7)              126.7719         -DE/DX =    0.               !
 ! D1    D(5,1,2,3)              0.             -DE/DX =    0.               !
 ! D2    D(2,1,5,6)              0.             -DE/DX =    0.               !
 ! D3    D(1,2,3,4)            180.             -DE/DX =    0.               !
 ! D4    D(1,2,3,6)              0.             -DE/DX =    0.               !
 ! D5    D(2,3,6,5)              0.             -DE/DX =    0.               !
 ! D6    D(2,3,6,7)            180.             -DE/DX =    0.               !
 ! D7    D(4,3,6,5)            180.             -DE/DX =    0.               !
 ! D8    D(4,3,6,7)              0.             -DE/DX =    0.               !
 ! D9    D(1,5,6,3)              0.             -DE/DX =    0.               !
 ! D10   D(1,5,6,7)            180.             -DE/DX =    0.               !
 -----------------------------------------------------------------------------
 GradGradGradGradGradGradGradGradGradGradGradGradGradGradGradGradGradGrad

                          Input orientation:                          
 ---------------------------------------------------------------------
 Center     Atomic     Atomic              Coordinates (Angstroms)
 Number     Number      Type              X           Y           Z
 ---------------------------------------------------------------------
    1          7             0       -0.716011   -0.899802    0.000000
    2          7             0       -1.093393    0.290732    0.000000
    3          7             0       -0.000134    1.037903    0.000000
    4          1             0       -0.059709    2.027005    0.000000
    5          7             0        0.622411   -0.989040    0.000000
    6          6             0        1.050021    0.225079    0.000000
    7          1             0        2.069469    0.543964    0.000000
 ---------------------------------------------------------------------
                    Distance matrix (angstroms):
                    1          2          3          4          5
     1  N    0.000000
     2  N    1.248915   0.000000
     3  N    2.065715   1.324190   0.000000
     4  H    2.999488   2.020679   0.990894   0.000000
     5  N    1.341394   2.140514   2.120392   3.092218   0.000000
     6  C    2.093854   2.144419   1.327971   2.116231   1.287220
     7  H    3.137412   3.172983   2.127729   2.594765   2.108098
                    6          7
     6  C    0.000000
     7  H    1.068158   0.000000
 Stoichiometry    CH2N4
 Framework group  CS[SG(CH2N4)]
 Deg. of freedom   11
 Full point group                 CS      NOp   2
 Largest Abelian subgroup         CS      NOp   2
 Largest concise Abelian subgroup C1      NOp   1
                         Standard orientation:                         
 ---------------------------------------------------------------------
 Center     Atomic     Atomic              Coordinates (Angstroms)
 Number     Number      Type              X           Y           Z
 ---------------------------------------------------------------------
    1          7             0       -0.716127   -0.899709    0.000000
    2          7             0       -1.093355    0.290873    0.000000
    3          7             0        0.000000    1.037903    0.000000
    4          1             0       -0.059447    2.027012    0.000000
    5          7             0        0.622284   -0.989120    0.000000
    6          6             0        1.050050    0.224944    0.000000
    7          1             0        2.069539    0.543697    0.000000
 ---------------------------------------------------------------------
 Rotational constants (GHZ):     10.9514218     10.7646285      5.4286109
 Isotopes: N-14,N-14,N-14,H-1,N-14,C-12,H-1

 **********************************************************************

            Population analysis using the SCF density.

 **********************************************************************

 Orbital Symmetries:
       Occupied  (A') (A') (A') (A') (A') (A') (A') (A') (A') (A')
                 (A') (A") (A') (A') (A') (A') (A") (A")
       Virtual   (A") (A') (A") (A') (A') (A') (A') (A') (A') (A")
                 (A') (A') (A') (A') (A') (A") (A') (A') (A") (A")
                 (A') (A') (A') (A") (A") (A') (A") (A') (A") (A')
                 (A') (A") (A") (A') (A') (A') (A') (A") (A") (A')
                 (A') (A") (A') (A") (A') (A') (A') (A') (A") (A')
                 (A') (A') (A') (A') (A') (A") (A') (A') (A") (A')
                 (A') (A") (A') (A") (A') (A") (A') (A") (A') (A')
                 (A") (A') (A') (A") (A') (A") (A') (A') (A") (A')
                 (A') (A') (A") (A') (A') (A") (A') (A') (A") (A")
                 (A") (A') (A') (A") (A") (A") (A') (A") (A") (A')
                 (A") (A') (A") (A') (A') (A") (A") (A') (A") (A')
                 (A") (A') (A') (A') (A') (A') (A') (A') (A") (A')
                 (A') (A') (A') (A') (A') (A') (A') (A') (A') (A')
                 (A') (A')
  The electronic state is 1-A'.
 Alpha  occ. eigenvalues --  -15.67639 -15.65482 -15.63660 -15.59455 -11.33034
 Alpha  occ. eigenvalues --   -1.51643  -1.26178  -1.20514  -0.90947  -0.89220
 Alpha  occ. eigenvalues --   -0.80535  -0.68723  -0.67888  -0.56908  -0.47122
 Alpha  occ. eigenvalues --   -0.46015  -0.45478  -0.42097
 Alpha virt. eigenvalues --    0.15572   0.20280   0.20438   0.25822   0.36307
 Alpha virt. eigenvalues --    0.39160   0.43033   0.48114   0.59788   0.64929
 Alpha virt. eigenvalues --    0.65642   0.67636   0.74011   0.76433   0.77326
 Alpha virt. eigenvalues --    0.80857   0.83506   0.84853   0.87250   0.91272
 Alpha virt. eigenvalues --    0.92495   0.95228   0.99308   1.00916   1.03599
 Alpha virt. eigenvalues --    1.06691   1.07993   1.09412   1.10008   1.12747
 Alpha virt. eigenvalues --    1.20082   1.31377   1.32436   1.32987   1.47628
 Alpha virt. eigenvalues --    1.49331   1.52143   1.60922   1.62126   1.68311
 Alpha virt. eigenvalues --    1.73592   1.74685   1.81596   1.87848   1.88186
 Alpha virt. eigenvalues --    1.90940   1.96217   1.98601   2.05120   2.07566
 Alpha virt. eigenvalues --    2.22734   2.24172   2.34191   2.42361   2.49163
 Alpha virt. eigenvalues --    2.52663   2.65261   2.77645   2.89114   3.12054
 Alpha virt. eigenvalues --    3.23063   3.23454   3.26476   3.32528   3.40525
 Alpha virt. eigenvalues --    3.43578   3.47629   3.54753   3.58060   3.65198
 Alpha virt. eigenvalues --    3.69553   3.71772   3.74501   3.77470   3.83629
 Alpha virt. eigenvalues --    3.84866   3.95693   3.98923   4.08086   4.09775
 Alpha virt. eigenvalues --    4.16429   4.22649   4.30530   4.31922   4.39811
 Alpha virt. eigenvalues --    4.41204   4.43296   4.45500   4.53569   4.55965
 Alpha virt. eigenvalues --    4.59680   4.62437   4.66225   4.72842   4.81642
 Alpha virt. eigenvalues --    4.86746   4.90735   4.92566   4.94924   4.95889
 Alpha virt. eigenvalues --    4.96551   4.99633   5.00675   5.02873   5.08606
 Alpha virt. eigenvalues --    5.23223   5.25150   5.28903   5.30176   5.40056
 Alpha virt. eigenvalues --    5.42207   5.46926   5.49663   5.62609   5.68395
 Alpha virt. eigenvalues --    5.79441   5.91871   5.96859   5.98409   6.05153
 Alpha virt. eigenvalues --    6.20116   6.26445   6.72844   6.88690   8.49730
 Alpha virt. eigenvalues --   10.82596  11.88307  11.90045  11.97417  12.10309
 Alpha virt. eigenvalues --   16.62891  19.82269
          Condensed to atoms (all electrons):
              1          2          3          4          5          6
  1  N    6.385686   0.490065  -0.115836   0.003453   0.424394  -0.120889
  2  N    0.490065   6.451771   0.348289  -0.021359  -0.116372  -0.108693
  3  N   -0.115836   0.348289   6.347639   0.372191  -0.056138   0.427460
  4  H    0.003453  -0.021359   0.372191   0.323840   0.004050  -0.025188
  5  N    0.424394  -0.116372  -0.056138   0.004050   6.448533   0.560434
  6  C   -0.120889  -0.108693   0.427460  -0.025188   0.560434   4.750425
  7  H    0.002640   0.001343  -0.029788   0.000126  -0.019180   0.413551
              7
  1  N    0.002640
  2  N    0.001343
  3  N   -0.029788
  4  H    0.000126
  5  N   -0.019180
  6  C    0.413551
  7  H    0.423002
 Total atomic charges:
              1
  1  N   -0.069514
  2  N   -0.045043
  3  N   -0.293818
  4  H    0.342887
  5  N   -0.245721
  6  C    0.102901
  7  H    0.208307
 Sum of Mulliken charges=   0.00000
 Atomic charges with hydrogens summed into heavy atoms:
              1
  1  N   -0.069514
  2  N   -0.045043
  3  N    0.049069
  4  H    0.000000
  5  N   -0.245721
  6  C    0.311208
  7  H    0.000000
 Sum of Mulliken charges=   0.00000
 Electronic spatial extent (au):  <R**2>=   243.3905
 Charge=     0.0000 electrons
 Dipole moment (Debye):
    X=     2.5891    Y=     4.8188    Z=     0.0000  Tot=     5.4702
 Quadrupole moment (Debye-Ang):
   XX=   -28.3318   YY=   -26.1309   ZZ=   -28.2964
   XY=     1.9392   XZ=     0.0000   YZ=     0.0000
 Octapole moment (Debye-Ang**2):
  XXX=    12.0945  YYY=    22.1070  ZZZ=     0.0000  XYY=    -0.7031
  XXY=     4.8136  XXZ=     0.0000  XZZ=    -0.5545  YZZ=     0.6096
  YYZ=     0.0000  XYZ=     0.0000
 Hexadecapole moment (Debye-Ang**3):
 XXXX=  -135.7839 YYYY=  -114.1584 ZZZZ=   -24.8226 XXXY=     6.6574
 XXXZ=     0.0000 YYYX=    -0.1603 YYYZ=     0.0000 ZZZX=     0.0000
 ZZZY=     0.0000 XXYY=   -51.2908 XXZZ=   -29.0596 YYZZ=   -27.6017
 XXYZ=     0.0000 YYXZ=     0.0000 ZZXY=     0.0183
 N-N= 1.700774168828D+02 E-N=-9.419348605916D+02  KE= 2.566667371760D+02
 Symmetry A'   KE= 2.476588584541D+02
 Symmetry A"   KE= 9.007878721962D+00
 1|1|UNPC-UNK|FOpt|RHF|6-31G(2df,p)|C1H2N4|PCUSER|14-Jan-2004|0||#HF/6-
 31G(2DF,P) OPT FREQ||1htz casno=288948 method=1 basis=19||0,1|N,-0.716
 0108402,-0.8998016086,0.|N,-1.0933929266,0.2907323772,0.|N,-0.00013392
 48,1.0379032547,0.|H,-0.0597088711,2.027004537,0.|N,0.6224114047,-0.98
 90401785,0.|C,1.0500207171,0.2250791478,0.|H,2.069468577,0.543963663,0
 .||Version=x86-Win32-G98RevA.7|State=1-A'|HF=-256.7820181|RMSD=8.896e-
 009|RMSF=1.020e-004|Dipole=1.0183585,1.8959604,0.|PG=CS [SG(C1H2N4)]||
 @


 KINETICS       FACT
 ---------  =  -------
 MECHANISM     FICTION
 Job cpu time:  0 days  0 hours 16 minutes 21.0 seconds.
 File lengths (MBytes):  RWF=   15 Int=    0 D2E=    0 Chk=    4 Scr=    1
 Normal termination of Gaussian 98.
 Link1:  Proceeding to internal job step number  2.
 ---------------------------------------------------
 #N Geom=AllCheck Guess=TCheck RHF/6-31G(2df,p) Freq
 ---------------------------------------------------
 1/10=4,29=7,30=1,38=1/1,3;
 2//2;
 3/5=1,6=6,7=104,11=1,25=1,30=1/1,2,3;
 4/5=101,7=1/1;
 5/5=2/2;
 8/6=4,11=11,23=2,27=1073741824/1;
 10/13=10/2;
 11/6=2,8=1,9=11,15=111,16=11/1,2,10;
 10/6=1/2;
 6/7=2,8=2,9=2,10=2,18=1,28=1/1;
 7/8=1,10=1,25=1/1,2,3,16;
 1/10=4,30=1/3;
 99//99;
 -----------------------------------
 1htz casno=288948 method=1 basis=19
 -----------------------------------
 Redundant internal coordinates taken from checkpointfile:
 gxx.chk
 Charge =  0 Multiplicity = 1
 N,0,-0.7160108402,-0.8998016086,0.
 N,0,-1.0933929266,0.2907323772,0.
 N,0,-0.0001339248,1.0379032547,0.
 H,0,-0.0597088711,2.027004537,0.
 N,0,0.6224114047,-0.9890401785,0.
 C,0,1.0500207171,0.2250791478,0.
 H,0,2.069468577,0.543963663,0.
 Recover connectivity data from disk.

 GradGradGradGradGradGradGradGradGradGradGradGradGradGradGradGradGradGrad
 Berny optimization.
 Initialization pass.
                         ----------------------------
                         !    Initial Parameters    !
                         ! (Angstroms and Degrees)  !
 ------------------------                            -------------------------
 ! Name  Definition              Value          Derivative Info.             !
 -----------------------------------------------------------------------------
 ! R1    R(1,2)                  1.2489         calculate D2E/DX2 analyticall!
 ! R2    R(1,5)                  1.3414         calculate D2E/DX2 analyticall!
 ! R3    R(2,3)                  1.3242         calculate D2E/DX2 analyticall!
 ! R4    R(3,4)                  0.9909         calculate D2E/DX2 analyticall!
 ! R5    R(3,6)                  1.328          calculate D2E/DX2 analyticall!
 ! R6    R(5,6)                  1.2872         calculate D2E/DX2 analyticall!
 ! R7    R(6,7)                  1.0682         calculate D2E/DX2 analyticall!
 ! A1    A(2,1,5)              111.4024         calculate D2E/DX2 analyticall!
 ! A2    A(1,2,3)              106.7622         calculate D2E/DX2 analyticall!
 ! A3    A(2,3,4)              120.9032         calculate D2E/DX2 analyticall!
 ! A4    A(2,3,6)              107.9099         calculate D2E/DX2 analyticall!
 ! A5    A(4,3,6)              131.1869         calculate D2E/DX2 analyticall!
 ! A6    A(1,5,6)              105.5876         calculate D2E/DX2 analyticall!
 ! A7    A(3,6,5)              108.3379         calculate D2E/DX2 analyticall!
 ! A8    A(3,6,7)              124.8902         calculate D2E/DX2 analyticall!
 ! A9    A(5,6,7)              126.7719         calculate D2E/DX2 analyticall!
 ! D1    D(5,1,2,3)              0.             calculate D2E/DX2 analyticall!
 ! D2    D(2,1,5,6)              0.             calculate D2E/DX2 analyticall!
 ! D3    D(1,2,3,4)            180.             calculate D2E/DX2 analyticall!
 ! D4    D(1,2,3,6)              0.             calculate D2E/DX2 analyticall!
 ! D5    D(2,3,6,5)              0.             calculate D2E/DX2 analyticall!
 ! D6    D(2,3,6,7)            180.             calculate D2E/DX2 analyticall!
 ! D7    D(4,3,6,5)            180.             calculate D2E/DX2 analyticall!
 ! D8    D(4,3,6,7)              0.             calculate D2E/DX2 analyticall!
 ! D9    D(1,5,6,3)              0.             calculate D2E/DX2 analyticall!
 ! D10   D(1,5,6,7)            180.             calculate D2E/DX2 analyticall!
 -----------------------------------------------------------------------------
 Trust Radius=3.00D-01 FncErr=1.00D-07 GrdErr=1.00D-07
 Number of steps in this run=  36 maximum allowed number of steps= 100.
 GradGradGradGradGradGradGradGradGradGradGradGradGradGradGradGradGradGrad

                          Input orientation:                          
 ---------------------------------------------------------------------
 Center     Atomic     Atomic              Coordinates (Angstroms)
 Number     Number      Type              X           Y           Z
 ---------------------------------------------------------------------
    1          7             0       -0.716011   -0.899802    0.000000
    2          7             0       -1.093393    0.290732    0.000000
    3          7             0       -0.000134    1.037903    0.000000
    4          1             0       -0.059709    2.027005    0.000000
    5          7             0        0.622411   -0.989040    0.000000
    6          6             0        1.050021    0.225079    0.000000
    7          1             0        2.069469    0.543964    0.000000
 ---------------------------------------------------------------------
                    Distance matrix (angstroms):
                    1          2          3          4          5
     1  N    0.000000
     2  N    1.248915   0.000000
     3  N    2.065715   1.324190   0.000000
     4  H    2.999488   2.020679   0.990894   0.000000
     5  N    1.341394   2.140514   2.120392   3.092218   0.000000
     6  C    2.093854   2.144419   1.327971   2.116231   1.287220
     7  H    3.137412   3.172983   2.127729   2.594765   2.108098
                    6          7
     6  C    0.000000
     7  H    1.068158   0.000000
                           Interatomic angles:
       N1-N2-N3=106.7622       N1-N2-H4=131.6448       N1-N3-H4=156.2766
       N2-N3-H4=120.9032       N2-N1-N5=111.4024       N3-N1-N5= 73.538 
       N2-N3-N5= 72.7235       H4-N1-N5= 81.1757       H4-N2-N5= 95.951 
       H4-N3-N5=166.3733       N2-N1-C6= 75.0926       N1-N3-C6= 72.5365
       N2-N3-C6=107.9099       N1-C6-H4= 90.8681       N2-H4-C6= 62.3945
       H4-N3-C6=131.1869       N1-N5-C6=105.5876       N2-N5-C6= 72.6838
       N3-C6-N5=108.3379       H4-C6-N5=128.9707       N1-N3-H7= 96.8532
       N2-N3-H7=132.2266       N1-H4-H7= 67.7804       N2-H4-H7= 85.9089
       H4-N3-H7=106.8702       N1-N5-H7=129.5335       N2-N5-H7= 96.6297
       N3-N5-H7= 60.4216       H4-H7-N5= 81.5104       N1-C6-H7=164.8745
       N2-C6-H7=160.8758       N3-C6-H7=124.8902       H4-C6-H7=104.2574
       N5-C6-H7=126.7719
 Stoichiometry    CH2N4
 Framework group  CS[SG(CH2N4)]
 Deg. of freedom   11
 Full point group                 CS      NOp   2
 Largest Abelian subgroup         CS      NOp   2
 Largest concise Abelian subgroup C1      NOp   1
                         Standard orientation:                         
 ---------------------------------------------------------------------
 Center     Atomic     Atomic              Coordinates (Angstroms)
 Number     Number      Type              X           Y           Z
 ---------------------------------------------------------------------
    1          7             0       -0.716127   -0.899709    0.000000
    2          7             0       -1.093355    0.290873    0.000000
    3          7             0        0.000000    1.037903    0.000000
    4          1             0       -0.059447    2.027012    0.000000
    5          7             0        0.622284   -0.989120    0.000000
    6          6             0        1.050050    0.224944    0.000000
    7          1             0        2.069539    0.543697    0.000000
 ---------------------------------------------------------------------
 Rotational constants (GHZ):     10.9514218     10.7646285      5.4286109
 Isotopes: N-14,N-14,N-14,H-1,N-14,C-12,H-1
 Standard basis: 6-31G(2df,p) (6D, 7F)
 There are   103 symmetry adapted basis functions of A'  symmetry.
 There are    47 symmetry adapted basis functions of A"  symmetry.
 Crude estimate of integral set expansion from redundant integrals=1.000.
 Integral buffers will be    262144 words long.
 Raffenetti 1 integral format.
 Two-electron integral symmetry is turned on.
   150 basis functions      234 primitive gaussians
    18 alpha electrons       18 beta electrons
       nuclear repulsion energy       170.0774168828 Hartrees.
 One-electron integrals computed using PRISM.
 NBasis=   150 RedAO= T  NBF=   103    47
 NBsUse=   150 1.00D-04 NBFU=   103    47
 Initial guess read from the checkpoint file:
 gxx.chk
 Initial guess orbital symmetries:
       Occupied  (A') (A') (A') (A') (A') (A') (A') (A') (A') (A')
                 (A') (A") (A') (A') (A') (A') (A") (A")
       Virtual   (A") (A') (A") (A') (A') (A') (A') (A') (A') (A")
                 (A') (A') (A') (A') (A') (A") (A') (A') (A") (A")
                 (A') (A') (A') (A") (A") (A') (A") (A') (A") (A')
                 (A') (A") (A") (A') (A') (A') (A') (A") (A") (A')
                 (A') (A") (A') (A") (A') (A') (A') (A') (A") (A')
                 (A') (A') (A') (A') (A') (A") (A') (A') (A") (A')
                 (A') (A") (A') (A") (A') (A") (A') (A") (A') (A')
                 (A") (A') (A') (A") (A') (A") (A') (A') (A") (A')
                 (A') (A') (A") (A') (A') (A") (A') (A') (A") (A")
                 (A") (A') (A') (A") (A") (A") (A') (A") (A") (A')
                 (A") (A') (A") (A') (A') (A") (A") (A') (A") (A')
                 (A") (A') (A') (A') (A') (A') (A') (A') (A") (A')
                 (A') (A') (A') (A') (A') (A') (A') (A') (A') (A')
                 (A') (A')
 Requested convergence on RMS density matrix=1.00D-08 within  64 cycles.
 Requested convergence on MAX density matrix=1.00D-06.
 SCF Done:  E(RHF) =  -256.782018123     A.U. after    1 cycles
             Convg  =    0.1927D-08             -V/T =  2.0004
             S**2   =   0.0000
 Range of M.O.s used for correlation:     1   150
 NBasis=   150 NAE=    18 NBE=    18 NFC=     0 NFV=     0
 NROrb=    150 NOA=    18 NOB=    18 NVA=   132 NVB=   132

 **** Warning!!: The largest alpha MO coefficient is  0.38114577D+02

          Differentiating once with respect to electric field.
                with respect to dipole field.
 Integrals replicated using symmetry in FoFDir.
 MinBra= 0 MaxBra= 3 Meth= 1.
 IRaf=       0 NMat=   3 IRICut=       1 DoRegI=T DoRafI=F ISym2E= 2 JSym2E=2.
          There are   3 degrees of freedom in the 1st order CPHF.
   3 vectors were produced by pass  0.
 AX will form   3 AO Fock derivatives at one time.
   3 vectors were produced by pass  1.
   3 vectors were produced by pass  2.
   3 vectors were produced by pass  3.
   3 vectors were produced by pass  4.
   3 vectors were produced by pass  5.
   3 vectors were produced by pass  6.
   3 vectors were produced by pass  7.
   3 vectors were produced by pass  8.
   3 vectors were produced by pass  9.
   2 vectors were produced by pass 10.
   2 vectors were produced by pass 11.
 Inv2:  IOpt= 1 Iter= 1 AM= 6.55D-16 Conv= 1.00D-12.
 Inverted reduced A of dimension  34 with in-core refinement.
 G2DrvN: will do    7 atoms at a time, making    1 passes doing MaxLOS=3.
 FoFDir used for L=0 through L=3.
          Differentiating once with respect to electric field.
                with respect to dipole field.
          Differentiating once with respect to nuclear coordinates.
 Integrals replicated using symmetry in FoFDir.
 MinBra= 0 MaxBra= 3 Meth= 1.
 IRaf=       0 NMat=  24 IRICut=      24 DoRegI=T DoRafI=T ISym2E= 2 JSym2E=2.
          There are  24 degrees of freedom in the 1st order CPHF.
  21 vectors were produced by pass  0.
 AX will form  21 AO Fock derivatives at one time.
  21 vectors were produced by pass  1.
  21 vectors were produced by pass  2.
  21 vectors were produced by pass  3.
  21 vectors were produced by pass  4.
  21 vectors were produced by pass  5.
  21 vectors were produced by pass  6.
  13 vectors were produced by pass  7.
   3 vectors were produced by pass  8.
 Inv2:  IOpt= 1 Iter= 1 AM= 1.64D-15 Conv= 1.00D-12.
 Inverted reduced A of dimension 163 with in-core refinement.

 **********************************************************************

            Population analysis using the SCF density.

 **********************************************************************

 Orbital Symmetries:
       Occupied  (A') (A') (A') (A') (A') (A') (A') (A') (A') (A')
                 (A') (A") (A') (A') (A') (A') (A") (A")
       Virtual   (A") (A') (A") (A') (A') (A') (A') (A') (A') (A")
                 (A') (A') (A') (A') (A') (A") (A') (A') (A") (A")
                 (A') (A') (A') (A") (A") (A') (A") (A') (A") (A')
                 (A') (A") (A") (A') (A') (A') (A') (A") (A") (A')
                 (A') (A") (A') (A") (A') (A') (A') (A') (A") (A')
                 (A') (A') (A') (A') (A') (A") (A') (A') (A") (A')
                 (A') (A") (A') (A") (A') (A") (A') (A") (A') (A')
                 (A") (A') (A') (A") (A') (A") (A') (A') (A") (A')
                 (A') (A') (A") (A') (A') (A") (A') (A') (A") (A")
                 (A") (A') (A') (A") (A") (A") (A') (A") (A") (A')
                 (A") (A') (A") (A') (A') (A") (A") (A') (A") (A')
                 (A") (A') (A') (A') (A') (A') (A') (A') (A") (A')
                 (A') (A') (A') (A') (A') (A') (A') (A') (A') (A')
                 (A') (A')
  The electronic state is 1-A'.
 Alpha  occ. eigenvalues --  -15.67639 -15.65482 -15.63660 -15.59455 -11.33034
 Alpha  occ. eigenvalues --   -1.51643  -1.26178  -1.20514  -0.90947  -0.89220
 Alpha  occ. eigenvalues --   -0.80535  -0.68723  -0.67888  -0.56908  -0.47122
 Alpha  occ. eigenvalues --   -0.46015  -0.45478  -0.42097
 Alpha virt. eigenvalues --    0.15572   0.20280   0.20438   0.25822   0.36307
 Alpha virt. eigenvalues --    0.39160   0.43033   0.48114   0.59788   0.64929
 Alpha virt. eigenvalues --    0.65642   0.67636   0.74011   0.76433   0.77326
 Alpha virt. eigenvalues --    0.80857   0.83506   0.84853   0.87250   0.91272
 Alpha virt. eigenvalues --    0.92495   0.95228   0.99308   1.00916   1.03599
 Alpha virt. eigenvalues --    1.06691   1.07993   1.09412   1.10008   1.12747
 Alpha virt. eigenvalues --    1.20082   1.31377   1.32436   1.32987   1.47628
 Alpha virt. eigenvalues --    1.49331   1.52143   1.60922   1.62126   1.68311
 Alpha virt. eigenvalues --    1.73592   1.74685   1.81596   1.87848   1.88186
 Alpha virt. eigenvalues --    1.90940   1.96217   1.98601   2.05120   2.07566
 Alpha virt. eigenvalues --    2.22734   2.24172   2.34191   2.42361   2.49163
 Alpha virt. eigenvalues --    2.52663   2.65261   2.77645   2.89114   3.12054
 Alpha virt. eigenvalues --    3.23063   3.23454   3.26476   3.32528   3.40525
 Alpha virt. eigenvalues --    3.43578   3.47629   3.54753   3.58060   3.65198
 Alpha virt. eigenvalues --    3.69553   3.71772   3.74501   3.77470   3.83629
 Alpha virt. eigenvalues --    3.84866   3.95693   3.98923   4.08086   4.09775
 Alpha virt. eigenvalues --    4.16429   4.22649   4.30530   4.31922   4.39811
 Alpha virt. eigenvalues --    4.41204   4.43296   4.45500   4.53569   4.55965
 Alpha virt. eigenvalues --    4.59680   4.62437   4.66225   4.72842   4.81642
 Alpha virt. eigenvalues --    4.86746   4.90735   4.92566   4.94924   4.95889
 Alpha virt. eigenvalues --    4.96551   4.99633   5.00675   5.02873   5.08606
 Alpha virt. eigenvalues --    5.23223   5.25150   5.28903   5.30176   5.40056
 Alpha virt. eigenvalues --    5.42207   5.46926   5.49663   5.62609   5.68395
 Alpha virt. eigenvalues --    5.79441   5.91871   5.96859   5.98409   6.05153
 Alpha virt. eigenvalues --    6.20116   6.26445   6.72844   6.88690   8.49730
 Alpha virt. eigenvalues --   10.82596  11.88307  11.90045  11.97417  12.10309
 Alpha virt. eigenvalues --   16.62891  19.82269
          Condensed to atoms (all electrons):
              1          2          3          4          5          6
  1  N    6.385686   0.490065  -0.115836   0.003453   0.424394  -0.120889
  2  N    0.490065   6.451771   0.348289  -0.021359  -0.116372  -0.108693
  3  N   -0.115836   0.348289   6.347639   0.372191  -0.056138   0.427460
  4  H    0.003453  -0.021359   0.372191   0.323840   0.004050  -0.025188
  5  N    0.424394  -0.116372  -0.056138   0.004050   6.448533   0.560434
  6  C   -0.120889  -0.108693   0.427460  -0.025188   0.560434   4.750425
  7  H    0.002640   0.001343  -0.029788   0.000126  -0.019180   0.413551
              7
  1  N    0.002640
  2  N    0.001343
  3  N   -0.029788
  4  H    0.000126
  5  N   -0.019180
  6  C    0.413551
  7  H    0.423002
 Total atomic charges:
              1
  1  N   -0.069513
  2  N   -0.045043
  3  N   -0.293818
  4  H    0.342887
  5  N   -0.245720
  6  C    0.102901
  7  H    0.208307
 Sum of Mulliken charges=   0.00000
 Atomic charges with hydrogens summed into heavy atoms:
              1
  1  N   -0.069513
  2  N   -0.045043
  3  N    0.049069
  4  H    0.000000
  5  N   -0.245720
  6  C    0.311208
  7  H    0.000000
 Sum of Mulliken charges=   0.00000
 Electronic spatial extent (au):  <R**2>=   243.3905
 Charge=     0.0000 electrons
 Dipole moment (Debye):
    X=     2.5891    Y=     4.8188    Z=     0.0000  Tot=     5.4702
 Quadrupole moment (Debye-Ang):
   XX=   -28.3318   YY=   -26.1309   ZZ=   -28.2964
   XY=     1.9392   XZ=     0.0000   YZ=     0.0000
 Octapole moment (Debye-Ang**2):
  XXX=    12.0945  YYY=    22.1070  ZZZ=     0.0000  XYY=    -0.7031
  XXY=     4.8136  XXZ=     0.0000  XZZ=    -0.5545  YZZ=     0.6096
  YYZ=     0.0000  XYZ=     0.0000
 Hexadecapole moment (Debye-Ang**3):
 XXXX=  -135.7839 YYYY=  -114.1584 ZZZZ=   -24.8226 XXXY=     6.6574
 XXXZ=     0.0000 YYYX=    -0.1603 YYYZ=     0.0000 ZZZX=     0.0000
 ZZZY=     0.0000 XXYY=   -51.2908 XXZZ=   -29.0596 YYZZ=   -27.6017
 XXYZ=     0.0000 YYXZ=     0.0000 ZZXY=     0.0183
 N-N= 1.700774168828D+02 E-N=-9.419348605058D+02  KE= 2.566667371226D+02
 Symmetry A'   KE= 2.476588583128D+02
 Symmetry A"   KE= 9.007878809825D+00
  Exact polarizability:  35.685   0.685  35.796   0.000   0.000  17.984
 Approx polarizability:  36.854   0.319  38.953   0.000   0.000  20.668
 Full mass-weighted force constant matrix:
 Low frequencies ---   -9.8983   -7.7985   -4.9359    0.0005    0.0009    0.0011
 Low frequencies ---  619.6070  750.1239  817.6656
 Harmonic frequencies (cm**-1), IR intensities (KM/Mole),
 Raman scattering activities (A**4/AMU), Raman depolarization ratios,
 reduced masses (AMU), force constants (mDyne/A) and normal coordinates:
[...]
 Depolar     --     0.7500                 0.7500                 0.7500
 Atom AN      X      Y      Z        X      Y      Z        X      Y      Z
   1   7     0.00   0.00  -0.01     0.00   0.00   0.03     0.00   0.00   0.54
   2   7     0.00   0.00  -0.06     0.00   0.00   0.12     0.00   0.00  -0.46
   3   7     0.00   0.00   0.19     0.00   0.00  -0.12     0.00   0.00   0.15
   4   1     0.00   0.00  -0.96     0.00   0.00  -0.76     0.00   0.00   0.55
   5   7     0.00   0.00   0.02     0.00   0.00  -0.17     0.00   0.00  -0.36
   6   6     0.00   0.00  -0.06     0.00   0.00   0.19     0.00   0.00   0.09
   7   1     0.00   0.00  -0.21     0.00   0.00   0.57     0.00   0.00   0.18
                     4                      5                      6
                    A"                     A'                     A'
 Frequencies --  1017.4544              1088.7040              1111.4882
 Red. masses --     1.3848                 4.8160                 7.3985
 Frc consts  --     0.8447                 3.3632                 5.3852
 IR Inten    --     7.3721                 1.8198                 2.1550
 Raman Activ --     0.1656                 1.7308                 2.2149
 Depolar     --     0.7500                 0.5067                 0.6540
 Atom AN      X      Y      Z        X      Y      Z        X      Y      Z
   1   7     0.00   0.00   0.01     0.02   0.19   0.00     0.26  -0.09   0.00
   2   7     0.00   0.00   0.00    -0.17   0.13   0.00     0.24  -0.02   0.00
   3   7     0.00   0.00   0.03    -0.09  -0.01   0.00    -0.02   0.39   0.00
   4   1     0.00   0.00   0.03     0.46   0.02   0.00    -0.04   0.41   0.00
   5   7     0.00   0.00   0.03     0.33  -0.25   0.00    -0.11  -0.23   0.00
   6   6     0.00   0.00  -0.18    -0.13  -0.12   0.00    -0.40  -0.05   0.00
   7   1     0.00   0.00   0.98    -0.35   0.61   0.00    -0.30  -0.47   0.00
                     7                      8                      9
                    A'                     A'                     A'
 Frequencies --  1171.8317              1194.2245              1255.8755
 Red. masses --     3.6858                 2.6995                 2.4086
 Frc consts  --     2.9821                 2.2684                 2.2382
 IR Inten    --    22.5088                33.4701                20.7607
 Raman Activ --     5.1230                 1.2921                 6.3834
 Depolar     --     0.1383                 0.7328                 0.7139
 Atom AN      X      Y      Z        X      Y      Z        X      Y      Z
   1   7     0.18   0.04   0.00    -0.17   0.00   0.00     0.20   0.14   0.00
   2   7     0.17   0.16   0.00     0.22   0.08   0.00    -0.09   0.05   0.00
   3   7    -0.07  -0.27   0.00    -0.16   0.02   0.00    -0.14  -0.05   0.00
   4   1     0.00  -0.28   0.00    -0.93  -0.02   0.00    -0.38  -0.06   0.00
   5   7    -0.18  -0.01   0.00     0.11  -0.05   0.00    -0.03   0.02   0.00
   6   6    -0.08   0.05   0.00     0.07  -0.07   0.00     0.08  -0.11   0.00
   7   1    -0.33   0.78   0.00     0.03   0.05   0.00     0.29  -0.81   0.00
                    10                     11                     12
                    A'                     A'                     A'
 Frequencies --  1420.5181              1538.7846              1619.1031
 Red. masses --     2.7087                 5.6884                 3.2231
 Frc consts  --     3.2203                 7.9359                 4.9782
 IR Inten    --     1.1163                33.2451                 9.9488
 Raman Activ --    10.4969                18.0896                 6.7639
 Depolar     --     0.0936                 0.0938                 0.6006
 Atom AN      X      Y      Z        X      Y      Z        X      Y      Z
   1   7    -0.07  -0.02   0.00    -0.03   0.39   0.00     0.02   0.04   0.00
   2   7     0.12   0.04   0.00     0.07  -0.34   0.00     0.07  -0.12   0.00
   3   7    -0.05  -0.12   0.00     0.20  -0.06   0.00    -0.17   0.12   0.00
   4   1     0.61  -0.10   0.00    -0.71  -0.15   0.00     0.67   0.19   0.00
   5   7     0.14   0.19   0.00    -0.01   0.07   0.00    -0.07   0.14   0.00
   6   6    -0.21  -0.04   0.00    -0.19  -0.07   0.00     0.13  -0.28   0.00
   7   1    -0.04  -0.70   0.00    -0.30   0.15   0.00    -0.12   0.56   0.00
                    13                     14                     15
                    A'                     A'                     A'
 Frequencies --  1710.3784              3444.0754              3925.5954
 Red. masses --     3.8223                 1.1043                 1.0848
 Frc consts  --     6.5880                 7.7173                 9.8497
 IR Inten    --    25.1135                 0.2463               138.2573
 Raman Activ --     1.3409                61.1484                60.1299
 Depolar     --     0.6376                 0.2773                 0.2762
 Atom AN      X      Y      Z        X      Y      Z        X      Y      Z
   1   7     0.07  -0.16   0.00     0.00   0.00   0.00     0.00   0.00   0.00
   2   7    -0.13   0.15   0.00     0.00   0.00   0.00     0.00   0.00   0.00
   3   7     0.17   0.03   0.00     0.00   0.00   0.00     0.01  -0.08   0.00
   4   1    -0.74  -0.02   0.00     0.01   0.02   0.00    -0.06   1.00   0.00
   5   7     0.05   0.20   0.00     0.00   0.00   0.00     0.00   0.00   0.00
   6   6    -0.11  -0.27   0.00     0.09   0.03   0.00     0.00   0.00   0.00
   7   1    -0.34   0.33   0.00    -0.95  -0.29   0.00     0.01   0.00   0.00

 -------------------
 - Thermochemistry -
 -------------------
 Temperature   298.150 Kelvin.  Pressure   1.00000 Atm.
 Atom  1 has atomic number  7 and mass  14.00307
 Atom  2 has atomic number  7 and mass  14.00307
 Atom  3 has atomic number  7 and mass  14.00307
 Atom  4 has atomic number  1 and mass   1.00783
 Atom  5 has atomic number  7 and mass  14.00307
 Atom  6 has atomic number  6 and mass  12.00000
 Atom  7 has atomic number  1 and mass   1.00783
 Molecular mass:    70.02795 amu.
 Principal axes and moments of inertia in atomic units:
                           1         2         3
     EIGENVALUES --   164.79515 167.65476 332.44990
           X            0.92854   0.37122   0.00000
           Y           -0.37122   0.92854   0.00000
           Z            0.00000   0.00000   1.00000
 THIS MOLECULE IS AN ASYMMETRIC TOP.
 ROTATIONAL SYMMETRY NUMBER  1.
 ROTATIONAL TEMPERATURES (KELVIN)      0.52558     0.51662     0.26053
 ROTATIONAL CONSTANTS (GHZ)           10.95142    10.76463     5.42861
 Zero-point vibrational energy     135689.0 (Joules/Mol)
                                   32.43045 (Kcal/Mol)
 WARNING-- EXPLICIT CONSIDERATION OF   1 DEGREES OF FREEDOM AS
           VIBRATIONS MAY CAUSE SIGNIFICANT ERROR
 VIBRATIONAL TEMPERATURES:    891.47  1079.25  1176.43  1463.88  1566.39
          (KELVIN)           1599.17  1685.99  1718.21  1806.91  2043.80
                             2213.96  2329.51  2460.84  4955.23  5648.02
 
 Zero-point correction=                           0.051681 (Hartree/Particle)
 Thermal correction to Energy=                    0.054980
 Thermal correction to Enthalpy=                  0.055925
 Thermal correction to Gibbs Free Energy=         0.025695
 Sum of electronic and zero-point Energies=           -256.730337
 Sum of electronic and thermal Energies=              -256.727038
 Sum of electronic and thermal Enthalpies=            -256.726093
 Sum of electronic and thermal Free Energies=         -256.756323
 
                     E (Thermal)             CV                S
                      KCAL/MOL        CAL/MOL-KELVIN    CAL/MOL-KELVIN
 TOTAL                   34.501             10.081             63.624
 ELECTRONIC               0.000              0.000              0.000
 TRANSLATIONAL            0.889              2.981             38.656
 ROTATIONAL               0.889              2.981             23.734
 VIBRATIONAL             32.723              4.120              1.234
 VIBRATION  1             0.980              0.991              0.417
                       Q            LOG10(Q)             LN(Q)
 TOTAL BOT       0.151820D-11        -11.818670        -27.213493
 TOTAL V=0       0.897179D+12         11.952879         27.522521
 VIB (BOT)       0.192119D-23        -23.716430        -54.609098
 VIB (BOT)  1    0.236121D+00         -0.626865         -1.443409
 VIB (V=0)       0.113532D+01          0.055119          0.126916
 VIB (V=0)  1    0.105295D+01          0.022408          0.051595
 ELECTRONIC      0.100000D+01          0.000000          0.000000
 TRANSLATIONAL   0.230339D+08          7.362368         16.952478
 ROTATIONAL      0.343078D+05          4.535393         10.443127
 ***** Axes restored to original set *****
 -------------------------------------------------------------------
 Center     Atomic                   Forces (Hartrees/Bohr)
 Number     Number              X              Y              Z
 -------------------------------------------------------------------
    1          7          -0.000260879   -0.000031646    0.000000000
    2          7           0.000104851   -0.000156602    0.000000000
    3          7           0.000015667    0.000250896    0.000000000
    4          1           0.000003511    0.000036157    0.000000000
    5          7           0.000185148    0.000011341    0.000000000
    6          6          -0.000034099   -0.000116998    0.000000000
    7          1          -0.000014199    0.000006852    0.000000000
 -------------------------------------------------------------------
 Cartesian Forces:  Max     0.000260879 RMS     0.000102027

 GradGradGradGradGradGradGradGradGradGradGradGradGradGradGradGradGradGrad
 Berny optimization.
 Internal  Forces:  Max     0.000153350 RMS     0.000060680
 Search for a local minimum.
 Step number   1 out of a maximum of  36
 All quantities printed in internal units (Hartrees-Bohrs-Radians)
 Second derivative matrix not updated -- analytic derivatives used.
     Eigenvalues ---    0.00908   0.03285   0.08488   0.09131   0.12191
     Eigenvalues ---    0.12614   0.25522   0.30840   0.41489   0.42544
     Eigenvalues ---    0.53388   0.54789   0.59137   0.70009   0.78049
     Eigenvalues --- 1000.000001000.000001000.000001000.000001000.00000
     Eigenvalues --- 1000.000001000.000001000.000001000.000001000.00000
     Eigenvalues --- 1000.00000
 Angle between quadratic step and forces=  21.04 degrees.
 Linear search not attempted -- first point.
 Iteration  1 RMS(Cart)=  0.00014148 RMS(Int)=  0.00000002
 Iteration  2 RMS(Cart)=  0.00000001 RMS(Int)=  0.00000001
 Variable       Old X    -DE/DX   Delta X   Delta X   Delta X     New X
                                 (Linear)    (Quad)   (Total)
    R1        2.36011  -0.00003   0.00000  -0.00023  -0.00023   2.35988
    R2        2.53487   0.00015   0.00000   0.00059   0.00059   2.53545
    R3        2.50236   0.00009   0.00000   0.00023   0.00023   2.50258
    R4        1.87252   0.00004   0.00000   0.00005   0.00005   1.87257
    R5        2.50950   0.00006   0.00000   0.00022   0.00022   2.50972
    R6        2.43249   0.00001   0.00000  -0.00018  -0.00018   2.43231
    R7        2.01853  -0.00001   0.00000  -0.00001  -0.00001   2.01851
    A1        1.94434  -0.00010   0.00000  -0.00018  -0.00018   1.94415
    A2        1.86335   0.00014   0.00000   0.00035   0.00035   1.86370
    A3        2.11016   0.00006   0.00000   0.00016   0.00016   2.11031
    A4        1.88338  -0.00012   0.00000  -0.00036  -0.00036   1.88302
    A5        2.28964   0.00005   0.00000   0.00021   0.00021   2.28985
    A6        1.84285   0.00001   0.00000  -0.00009  -0.00009   1.84276
    A7        1.89085   0.00007   0.00000   0.00029   0.00029   1.89114
    A8        2.17975  -0.00004   0.00000  -0.00023  -0.00023   2.17952
    A9        2.21259  -0.00002   0.00000  -0.00006  -0.00006   2.21253
    D1        0.00000   0.00000   0.00000   0.00000   0.00000   0.00000
    D2        0.00000   0.00000   0.00000   0.00000   0.00000   0.00000
    D3        3.14159   0.00000   0.00000   0.00000   0.00000   3.14159
    D4        0.00000   0.00000   0.00000   0.00000   0.00000   0.00000
    D5        0.00000   0.00000   0.00000   0.00000   0.00000   0.00000
    D6        3.14159   0.00000   0.00000   0.00000   0.00000   3.14159
    D7        3.14159   0.00000   0.00000   0.00000   0.00000   3.14159
    D8        0.00000   0.00000   0.00000   0.00000   0.00000   0.00000
    D9        0.00000   0.00000   0.00000   0.00000   0.00000   0.00000
   D10        3.14159   0.00000   0.00000   0.00000   0.00000   3.14159
         Item               Value     Threshold  Converged?
 Maximum Force            0.000153     0.000450     YES
 RMS     Force            0.000061     0.000300     YES
 Maximum Displacement     0.000350     0.001800     YES
 RMS     Displacement     0.000141     0.001200     YES
 Predicted change in Energy=-1.470962D-07
 Optimization completed.
    -- Stationary point found.
                         ----------------------------
                         !   Optimized Parameters   !
                         ! (Angstroms and Degrees)  !
 ------------------------                            -------------------------
 ! Name  Definition              Value          Derivative Info.             !
 -----------------------------------------------------------------------------
 ! R1    R(1,2)                  1.2489         -DE/DX =    0.               !
 ! R2    R(1,5)                  1.3414         -DE/DX =    0.0002           !
 ! R3    R(2,3)                  1.3242         -DE/DX =    0.0001           !
 ! R4    R(3,4)                  0.9909         -DE/DX =    0.               !
 ! R5    R(3,6)                  1.328          -DE/DX =    0.0001           !
 ! R6    R(5,6)                  1.2872         -DE/DX =    0.               !
 ! R7    R(6,7)                  1.0682         -DE/DX =    0.               !
 ! A1    A(2,1,5)              111.4024         -DE/DX =   -0.0001           !
 ! A2    A(1,2,3)              106.7622         -DE/DX =    0.0001           !
 ! A3    A(2,3,4)              120.9032         -DE/DX =    0.0001           !
 ! A4    A(2,3,6)              107.9099         -DE/DX =   -0.0001           !
 ! A5    A(4,3,6)              131.1869         -DE/DX =    0.0001           !
 ! A6    A(1,5,6)              105.5876         -DE/DX =    0.               !
 ! A7    A(3,6,5)              108.3379         -DE/DX =    0.0001           !
 ! A8    A(3,6,7)              124.8902         -DE/DX =    0.               !
 ! A9    A(5,6,7)              126.7719         -DE/DX =    0.               !
 ! D1    D(5,1,2,3)              0.             -DE/DX =    0.               !
 ! D2    D(2,1,5,6)              0.             -DE/DX =    0.               !
 ! D3    D(1,2,3,4)            180.             -DE/DX =    0.               !
 ! D4    D(1,2,3,6)              0.             -DE/DX =    0.               !
 ! D5    D(2,3,6,5)              0.             -DE/DX =    0.               !
 ! D6    D(2,3,6,7)            180.             -DE/DX =    0.               !
 ! D7    D(4,3,6,5)            180.             -DE/DX =    0.               !
 ! D8    D(4,3,6,7)              0.             -DE/DX =    0.               !
 ! D9    D(1,5,6,3)              0.             -DE/DX =    0.               !
 ! D10   D(1,5,6,7)            180.             -DE/DX =    0.               !
 -----------------------------------------------------------------------------
 GradGradGradGradGradGradGradGradGradGradGradGradGradGradGradGradGradGrad

 1|1|UNPC-UNK|Freq|RHF|6-31G(2df,p)|C1H2N4|PCUSER|14-Jan-2004|0||#N GEO
 M=ALLCHECK GUESS=TCHECK RHF/6-31G(2DF,P) FREQ||1htz casno=288948 metho
 d=1 basis=19||0,1|N,-0.7160108402,-0.8998016086,0.|N,-1.0933929266,0.2
 907323772,0.|N,-0.0001339248,1.0379032547,0.|H,-0.0597088711,2.0270045
 37,0.|N,0.6224114047,-0.9890401785,0.|C,1.0500207171,0.2250791478,0.|H
 ,2.069468577,0.543963663,0.||Version=x86-Win32-G98RevA.7|State=1-A'|HF
 =-256.7820181|RMSD=1.927e-009|RMSF=1.020e-004|Dipole=1.0183585,1.89595
 95,0.|DipoleDeriv=0.2315286,-0.0968795,0.,-0.0756421,-0.14694,0.,0.,0.
 ,-0.1461037,-0.2455206,0.4237604,0.,0.2751997,0.1407207,0.,0.,0.,-0.09
 84815,-0.1146911,-0.16418,0.,-0.056281,-0.600117,0.,0.,0.,-0.1941517,0
 .2158757,-0.0082107,0.,-0.0245626,0.3461901,0.,0.,0.,0.35579,-0.523819
 4,0.0408339,0.,-0.1672929,-0.3649628,0.,0.,0.,-0.2596948,0.3726992,-0.
 1613798,0.,0.0773635,0.5200839,0.,0.,0.,0.1958218,0.0639275,-0.0339444
 ,0.,-0.0287846,0.105025,0.,0.,0.,0.14682|Polar=35.6845828,0.6845627,35
 .7959213,0.,0.,17.9839106|PolarDeriv=1.7744751,-3.9474765,-4.2133915,0
 .,0.,-0.5592076,-6.211123,-1.0747766,-5.9827453,0.,0.,-0.888706,0.,0.,
 0.,-1.3362027,-2.5639575,0.,-8.6258882,2.8246337,-2.7327619,0.,0.,-0.6
 798001,6.106486,-2.928214,2.2085908,0.,0.,0.4841256,0.,0.,0.,-2.799430
 3,1.24515,0.,0.015164,-0.7246249,-0.2982059,0.,0.,-0.4986001,-0.046772
 1,0.9538626,0.7181319,0.,0.,0.7906113,0.,0.,0.,-0.3156189,1.9566542,0.
 ,-0.1830252,1.1968904,-0.360365,0.,0.,-0.0094704,0.6538128,-0.4640799,
 8.2253956,0.,0.,0.2701825,0.,0.,0.,-0.0614527,0.7662233,0.,-2.095263,-
 1.4612154,4.305088,0.,0.,0.2745152,-5.9013685,2.3065873,-5.5864824,0.,
 0.,-1.0256816,0.,0.,0.,0.7216337,-2.8214948,0.,1.1821113,0.4941731,2.3
 126536,0.,0.,0.8888577,3.6904934,-0.4836694,-0.7033498,0.,0.,0.198184,
 0.,0.,0.,2.8929288,1.2195811,0.,7.932426,1.6176196,0.9869827,0.,0.,0.5
 837053,1.7084713,1.69029,1.1204592,0.,0.,0.1712842,0.,0.,0.,0.8981422,
 0.1978437,0.|HyperPolar=25.7140106,15.695918,4.6315389,26.3532863,0.,0
 .,0.,3.350079,2.0562338,0.|PG=CS [SG(C1H2N4)]|NImag=0||0.54785422,0.03
 785096,0.81837208,0.,0.,0.15257254,-0.18117020,0.08656783,0.,0.6654808
 5,0.13912027,-0.49445385,0.,-0.13778252,0.71850664,0.,0.,-0.12037263,0
 .,0.,0.14219115,-0.02927350,-0.09313844,0.,-0.27905762,-0.08410880,0.,
 0.70128535,0.01143984,-0.18620854,0.,-0.03341696,-0.14810135,0.,-0.082
 19024,1.19940727,0.,0.,0.03480541,0.,0.,-0.08393766,0.,0.,0.10968146,-
 0.01039964,-0.01107475,0.,0.02024181,-0.03458542,0.,-0.09406685,0.0406
 4655,0.,0.07378787,-0.00403121,0.00213814,0.,0.00554710,-0.01264022,0.
 ,0.02962542,-0.53177907,0.,-0.02805530,0.54486146,0.,0.,0.00869472,0.,
 0.,-0.01393889,0.,0.,-0.00714957,0.,0.,0.01526258,-0.24866604,0.007677
 44,0.,-0.09214190,0.15806192,0.,0.02305792,-0.05073591,0.,-0.00662057,
 0.00189890,0.,0.50782410,-0.02138129,-0.13353301,0.,0.01629572,-0.0382
 6697,0.,0.10548526,-0.12903515,0.,0.00974369,0.00188824,0.,-0.00011278
 ,0.75898017,0.,0.,-0.10877344,0.,0.,0.04417344,0.,0.,0.02613351,0.,0.,
 0.00871989,0.,0.,0.13266563,-0.07991060,-0.02800285,0.,-0.13301574,-0.
 04357435,0.,-0.30659190,0.12589030,0.,0.01767865,-0.00536230,0.,-0.183
 39039,-0.10921918,0.,1.05476006,-0.15822111,0.00008436,0.,0.05846904,-
 0.01880918,0.,0.09561034,-0.22117243,0.,0.02389858,-0.00439730,0.,-0.0
 8249496,-0.46149481,0.,0.15319660,0.80459191,0.,0.,0.02202330,0.,0.,0.
 02461582,0.,0.,-0.07950310,0.,0.,-0.01024915,0.,0.,-0.09932556,0.,0.,0
 .18723068,0.00156575,0.00011981,0.,-0.00033720,0.00286891,0.,-0.015353
 40,-0.01163359,0.,-0.00062128,0.00037737,0.,-0.00006313,-0.00081142,0.
 ,-0.36953010,-0.09045850,0.,0.38433934,-0.00477747,-0.00639918,0.,0.00
 431979,-0.00623506,0.,0.02871645,0.01688927,0.,-0.00057335,-0.00007125
 ,0.,-0.03429461,0.00146152,0.,-0.09292823,-0.09880255,0.,0.09953741,0.
 09315725,0.,0.,0.01105010,0.,0.,0.00726877,0.,0.,-0.00003005,0.,0.,-0.
 00133958,0.,0.,-0.00359348,0.,0.,-0.04479198,0.,0.,0.03143622||0.00026
 088,0.00003165,0.,-0.00010485,0.00015660,0.,-0.00001567,-0.00025090,0.
 ,-0.00000351,-0.00003616,0.,-0.00018515,-0.00001134,0.,0.00003410,0.00
 011700,0.,0.00001420,-0.00000685,0.|||@


 IF AT FIRST YOU DON'T SUCCEED, TRY LOOKING IN 
 THE WASTEBASKET FOR THE DIRECTIONS.
 Job cpu time:  0 days  0 hours 21 minutes 32.0 seconds.
 File lengths (MBytes):  RWF=   31 Int=    0 D2E=    0 Chk=    4 Scr=    1
 Normal termination of Gaussian 98.
