 Entering Gaussian System, Link 0=g98
 Initial command:
 /usr/local/apps/g98a6/g98/l1.exe /wrk/rdj3/Gau-12560.inp -scrdir=/wrk/rdj3/
 Entering Link 1 = /usr/local/apps/g98a6/g98/l1.exe PID=     14058.
  
 Copyright (c) 1988,1990,1992,1993,1995,1998 Gaussian, Inc.
                  All Rights Reserved.
  
 This is part of the Gaussian(R) 98 program.  It is based on
 the Gaussian 94(TM) system (copyright 1995 Gaussian, Inc.),
 the Gaussian 92(TM) system (copyright 1992 Gaussian, Inc.),
 the Gaussian 90(TM) system (copyright 1990 Gaussian, Inc.),
 the Gaussian 88(TM) system (copyright 1988 Gaussian, Inc.),
 the Gaussian 86(TM) system (copyright 1986 Carnegie Mellon
 University), and the Gaussian 82(TM) system (copyright 1983
 Carnegie Mellon University). Gaussian is a federally registered
 trademark of Gaussian, Inc.
  
 This software contains proprietary and confidential information,
 including trade secrets, belonging to Gaussian, Inc.
  
 This software is provided under written license and may be
 used, copied, transmitted, or stored only in accord with that
 written license.
  
 The following legend is applicable only to US Government
 contracts under DFARS:
  
                    RESTRICTED RIGHTS LEGEND
  
 Use, duplication or disclosure by the US Government is subject
 to restrictions as set forth in subparagraph (c)(1)(ii) of the
 Rights in Technical Data and Computer Software clause at DFARS
 252.227-7013.
  
 Gaussian, Inc.
 Carnegie Office Park, Building 6, Pittsburgh, PA 15106 USA
  
 The following legend is applicable only to US Government
 contracts under FAR:
  
                    RESTRICTED RIGHTS LEGEND
  
 Use, reproduction and disclosure by the US Government is subject
 to restrictions as set forth in subparagraph (c) of the
 Commercial Computer Software - Restricted Rights clause at FAR
 52.227-19.
  
 Gaussian, Inc.
 Carnegie Office Park, Building 6, Pittsburgh, PA 15106 USA
  
  
 ---------------------------------------------------------------
 Warning -- This program may not be used in any manner that
 competes with the business of Gaussian, Inc. or will provide
 assistance to any competitor of Gaussian, Inc.  The licensee
 of this program is prohibited from giving any competitor of
 Gaussian, Inc. access to this program.  By using this program,
 the user acknowledges that Gaussian, Inc. is engaged in the
 business of creating and licensing software in the field of
 computational chemistry and represents and warrants to the
 licensee that it is not a competitor of Gaussian, Inc. and that
 it will not use this program in any manner prohibited above.
 ---------------------------------------------------------------
  

 Cite this work as:
 Gaussian 98, Revision A.6,
 M. J. Frisch, G. W. Trucks, H. B. Schlegel, G. E. Scuseria, 
 M. A. Robb, J. R. Cheeseman, V. G. Zakrzewski, J. A. Montgomery, Jr., 
 R. E. Stratmann, J. C. Burant, S. Dapprich, J. M. Millam, 
 A. D. Daniels, K. N. Kudin, M. C. Strain, O. Farkas, J. Tomasi, 
 V. Barone, M. Cossi, R. Cammi, B. Mennucci, C. Pomelli, C. Adamo, 
 S. Clifford, J. Ochterski, G. A. Petersson, P. Y. Ayala, Q. Cui, 
 K. Morokuma, D. K. Malick, A. D. Rabuck, K. Raghavachari, 
 J. B. Foresman, J. Cioslowski, J. V. Ortiz, B. B. Stefanov, G. Liu, 
 A. Liashenko, P. Piskorz, I. Komaromi, R. Gomperts, R. L. Martin, 
 D. J. Fox, T. Keith, M. A. Al-Laham, C. Y. Peng, A. Nanayakkara, 
 C. Gonzalez, M. Challacombe, P. M. W. Gill, B. Johnson, W. Chen, 
 M. W. Wong, J. L. Andres, C. Gonzalez, M. Head-Gordon, 
 E. S. Replogle, and J. A. Pople, 
 Gaussian, Inc., Pittsburgh PA, 1998.

 **********************************************
 Gaussian 98:  IBM-RS6000-G98RevA.6 19-Oct-1998
                  28-Jul-2001 
 **********************************************
 %mem=24000000
 ------------------------
 #HF/aug-cc-pVDZ opt freq
 ------------------------
 1/18=20,38=1/1,3;
 2/9=110,17=6,18=5/2;
 3/5=16,7=10,11=9,25=1,30=1/1,2,3;
 4//1;
 5/5=2,38=4/2;
 6/7=2,8=2,9=2,10=2,28=1/1;
 7//1,2,3,16;
 1/18=20/3(1);
 99//99;
 2/9=110/2;
 3/5=16,7=10,11=9,25=1,30=1/1,2,3;
 4/5=5,16=2/1;
 5/5=2,38=4/2;
 7//1,2,3,16;
 1/18=20/3(-5);
 2/9=110/2;
 6/7=2,8=2,9=2,10=2,19=2,28=1/1;
 99/9=1/99;
 ----------------------------------------
 1H tetrazole c CH-NH-N=N-N= casno=288948
 ----------------------------------------
 Symbolic Z-matrix:
 Charge =  0 Multiplicity = 1
 7                    -1.12329  -0.25456   0. 
 7                    -0.67158   0.91328   0. 
 7                     0.65055   0.80984   0. 
 1                     1.224     1.62189   0. 
 7                    -0.13465  -1.16105   0. 
 6                     0.96218  -0.48332   0. 
 1                     1.95569  -0.87454   0. 

 GradGradGradGradGradGradGradGradGradGradGradGradGradGradGradGradGradGrad
 Berny optimization.
 Initialization pass.
                         ----------------------------
                         !    Initial Parameters    !
                         ! (Angstroms and Degrees)  !
 ------------------------                            -------------------------
 ! Name  Definition              Value          Derivative Info.             !
 -----------------------------------------------------------------------------
 ! R1    R(1,2)                  1.2522         estimate D2E/DX2             !
 ! R2    R(1,5)                  1.3413         estimate D2E/DX2             !
 ! R3    R(2,3)                  1.3262         estimate D2E/DX2             !
 ! R4    R(3,4)                  0.9941         estimate D2E/DX2             !
 ! R5    R(3,6)                  1.3302         estimate D2E/DX2             !
 ! R6    R(5,6)                  1.2893         estimate D2E/DX2             !
 ! R7    R(6,7)                  1.0678         estimate D2E/DX2             !
 ! A1    A(2,1,5)              111.3714         estimate D2E/DX2             !
 ! A2    A(1,2,3)              106.673          estimate D2E/DX2             !
 ! A3    A(2,3,4)              120.7559         estimate D2E/DX2             !
 ! A4    A(2,3,6)              108.0227         estimate D2E/DX2             !
 ! A5    A(4,3,6)              131.2214         estimate D2E/DX2             !
 ! A6    A(1,5,6)              105.77           estimate D2E/DX2             !
 ! A7    A(3,6,5)              108.1628         estimate D2E/DX2             !
 ! A8    A(3,6,7)              125.0426         estimate D2E/DX2             !
 ! A9    A(5,6,7)              126.7945         estimate D2E/DX2             !
 ! D1    D(5,1,2,3)              0.             estimate D2E/DX2             !
 ! D2    D(2,1,5,6)              0.             estimate D2E/DX2             !
 ! D3    D(1,2,3,4)            180.             estimate D2E/DX2             !
 ! D4    D(1,2,3,6)              0.             estimate D2E/DX2             !
 ! D5    D(2,3,6,5)              0.             estimate D2E/DX2             !
 ! D6    D(2,3,6,7)            180.             estimate D2E/DX2             !
 ! D7    D(4,3,6,5)            180.             estimate D2E/DX2             !
 ! D8    D(4,3,6,7)              0.             estimate D2E/DX2             !
 ! D9    D(1,5,6,3)              0.             estimate D2E/DX2             !
 ! D10   D(1,5,6,7)            180.             estimate D2E/DX2             !
 -----------------------------------------------------------------------------
 Trust Radius=3.00D-01 FncErr=1.00D-07 GrdErr=1.00D-07
 Number of steps in this run=  36 maximum allowed number of steps= 100.
 GradGradGradGradGradGradGradGradGradGradGradGradGradGradGradGradGradGrad

                          Input orientation:                          
 ---------------------------------------------------------------------
 Center     Atomic     Atomic              Coordinates (Angstroms)
 Number     Number      Type              X           Y           Z
 ---------------------------------------------------------------------
    1          7             0       -1.123293   -0.254560    0.000000
    2          7             0       -0.671576    0.913277    0.000000
    3          7             0        0.650545    0.809842    0.000000
    4          1             0        1.224004    1.621891    0.000000
    5          7             0       -0.134646   -1.161053    0.000000
    6          6             0        0.962183   -0.483316    0.000000
    7          1             0        1.955691   -0.874535    0.000000
 ---------------------------------------------------------------------
                    Distance matrix (angstroms):
                    1          2          3          4          5
     1  N    0.000000
     2  N    1.252155   0.000000
     3  N    2.068684   1.326161   0.000000
     4  H    3.005141   2.023699   0.994122   0.000000
     5  N    1.341325   2.142694   2.121545   3.096887   0.000000
     6  C    2.097985   2.149335   1.330179   2.121426   1.289326
     7  H    3.140782   3.177861   2.130852   2.601444   2.109882
                    6          7
     6  C    0.000000
     7  H    1.067760   0.000000
 Stoichiometry    CH2N4
 Framework group  CS[SG(CH2N4)]
 Deg. of freedom   11
 Full point group                 CS      NOp   2
 Largest Abelian subgroup         CS      NOp   2
 Largest concise Abelian subgroup C1      NOp   1
                         Standard orientation:                         
 ---------------------------------------------------------------------
 Center     Atomic     Atomic              Coordinates (Angstroms)
 Number     Number      Type              X           Y           Z
 ---------------------------------------------------------------------
    1          7             0       -0.716312   -0.901934    0.000000
    2          7             0       -1.095520    0.291420    0.000000
    3          7             0        0.000000    1.038775    0.000000
    4          1             0       -0.061479    2.030994    0.000000
    5          7             0        0.622151   -0.989495    0.000000
    6          6             0        1.052813    0.225779    0.000000
    7          1             0        2.072370    0.542976    0.000000
 ---------------------------------------------------------------------
 Rotational constants (GHZ):     10.9198679     10.7343949      5.4131685
 Isotopes: N-14,N-14,N-14,H-1,N-14,C-12,H-1
 Standard basis: Aug-CC-pVDZ (5D, 7F)
 There are    94 symmetry adapted basis functions of A'  symmetry.
 There are    39 symmetry adapted basis functions of A"  symmetry.
 Crude estimate of integral set expansion from redundant integrals=1.000.
 Integral buffers will be    262144 words long.
 Raffenetti 1 integral format.
 Two-electron integral symmetry is turned on.
   133 basis functions      247 primitive gaussians
    18 alpha electrons       18 beta electrons
       nuclear repulsion energy       169.8288422228 Hartrees.
 One-electron integrals computed using PRISM.
 NBasis=   133 RedAO= T  NBF=    94    39
 NBsUse=   133 1.00D-04 NBFU=    94    39
 Projected INDO Guess.
 Initial guess orbital symmetries:
       Occupied  (A') (A') (A') (A') (A') (A') (A') (A') (A') (A')
                 (A') (A") (A') (A') (A") (A") (A') (A')
       Virtual   (A") (A') (A") (A') (A') (A') (A') (A') (A') (A')
                 (A') (A') (A') (A') (A') (A') (A') (A') (A') (A')
                 (A') (A') (A') (A') (A') (A') (A') (A') (A') (A')
                 (A') (A') (A') (A') (A') (A') (A') (A') (A') (A')
                 (A') (A') (A') (A') (A') (A') (A') (A') (A') (A')
                 (A') (A') (A') (A') (A') (A') (A') (A') (A') (A')
                 (A') (A') (A') (A') (A') (A') (A') (A') (A') (A')
                 (A') (A') (A') (A') (A') (A') (A') (A') (A') (A')
                 (A') (A") (A") (A") (A") (A") (A") (A") (A") (A")
                 (A") (A") (A") (A") (A") (A") (A") (A") (A") (A")
                 (A") (A") (A") (A") (A") (A") (A") (A") (A") (A")
                 (A") (A") (A") (A") (A")
 Requested convergence on RMS density matrix=1.00D-08 within  64 cycles.
 Requested convergence on MAX density matrix=1.00D-06.
 SCF Done:  E(RHF) =  -256.797933875     A.U. after   15 cycles
             Convg  =    0.5030D-08             -V/T =  2.0004
             S**2   =   0.0000

 **********************************************************************

            Population analysis using the SCF density.

 **********************************************************************

 Orbital Symmetries:
       Occupied  (A') (A') (A') (A') (A') (A') (A') (A') (A') (A')
                 (A') (A") (A') (A') (A') (A') (A") (A")
       Virtual   (A') (A') (A") (A') (A') (A') (A") (A') (A') (A')
                 (A") (A") (A') (A") (A') (A') (A") (A') (A") (A')
                 (A') (A') (A') (A') (A') (A") (A') (A') (A') (A")
                 (A') (A') (A') (A") (A') (A') (A") (A') (A') (A')
                 (A') (A") (A') (A') (A') (A") (A") (A') (A') (A")
                 (A') (A") (A') (A") (A') (A') (A") (A') (A') (A")
                 (A') (A') (A') (A") (A") (A') (A") (A') (A') (A')
                 (A") (A") (A') (A") (A') (A') (A') (A") (A') (A')
                 (A') (A") (A') (A") (A') (A') (A") (A') (A") (A')
                 (A") (A') (A') (A') (A') (A') (A") (A') (A') (A")
                 (A') (A") (A') (A') (A") (A') (A') (A") (A') (A')
                 (A') (A') (A') (A') (A')
  The electronic state is 1-A'.
 Alpha  occ. eigenvalues --  -15.68576 -15.66623 -15.64870 -15.60648 -11.33972
 Alpha  occ. eigenvalues --   -1.52622  -1.27116  -1.21498  -0.91836  -0.90075
 Alpha  occ. eigenvalues --   -0.81259  -0.69240  -0.68677  -0.57681  -0.47975
 Alpha  occ. eigenvalues --   -0.46906  -0.46100  -0.42738
 Alpha virt. eigenvalues --    0.01946   0.04181   0.08133   0.08632   0.10883
 Alpha virt. eigenvalues --    0.12763   0.13619   0.14283   0.15631   0.16765
 Alpha virt. eigenvalues --    0.17027   0.17917   0.19853   0.20028   0.21572
 Alpha virt. eigenvalues --    0.24837   0.25335   0.26761   0.27560   0.28131
 Alpha virt. eigenvalues --    0.30134   0.32777   0.33650   0.36773   0.37467
 Alpha virt. eigenvalues --    0.38295   0.39714   0.41104   0.42589   0.44845
 Alpha virt. eigenvalues --    0.50003   0.53951   0.54142   0.58379   0.59112
 Alpha virt. eigenvalues --    0.62448   0.63010   0.64359   0.68940   0.70229
 Alpha virt. eigenvalues --    0.72071   0.74618   0.74639   0.75330   0.80804
 Alpha virt. eigenvalues --    0.82216   0.83213   0.84231   0.88197   0.89723
 Alpha virt. eigenvalues --    0.96096   0.99601   1.00866   1.01303   1.03319
 Alpha virt. eigenvalues --    1.04305   1.04986   1.07549   1.13223   1.15602
 Alpha virt. eigenvalues --    1.15716   1.18264   1.21895   1.27521   1.31064
 Alpha virt. eigenvalues --    1.35979   1.37679   1.38268   1.43727   1.54537
 Alpha virt. eigenvalues --    1.55000   1.60994   1.63003   1.66213   1.70568
 Alpha virt. eigenvalues --    1.76091   1.82330   1.86211   1.88452   1.96440
 Alpha virt. eigenvalues --    2.04199   2.04661   2.11689   2.12147   2.13871
 Alpha virt. eigenvalues --    2.21543   2.23132   2.30483   2.33578   2.35812
 Alpha virt. eigenvalues --    2.39190   2.41671   2.45696   2.55837   2.57536
 Alpha virt. eigenvalues --    2.62029   2.67862   2.70547   2.74117   2.83538
 Alpha virt. eigenvalues --    2.85752   2.89993   2.93219   2.95368   2.96309
 Alpha virt. eigenvalues --    3.08498   3.09875   3.22056   3.31135   3.35035
 Alpha virt. eigenvalues --    3.45251   3.52836   3.56889   3.95262   4.15378
          Condensed to atoms (all electrons):
              1          2          3          4          5          6
  1  N    8.114283  -0.541722   0.161125   0.024189  -0.444700  -0.047022
  2  N   -0.541722   8.099845  -0.274347  -0.185400   0.286895  -0.228148
  3  N    0.161125  -0.274347   6.764036   0.514983  -0.221925   0.311070
  4  H    0.024189  -0.185400   0.514983   0.760947  -0.008433  -0.108834
  5  N   -0.444700   0.286895  -0.221925  -0.008433   7.484006   0.379052
  6  C   -0.047022  -0.228148   0.311070  -0.108834   0.379052   4.321307
  7  H   -0.015727  -0.001415  -0.078292   0.010474  -0.035284   0.215932
              7
  1  N   -0.015727
  2  N   -0.001415
  3  N   -0.078292
  4  H    0.010474
  5  N   -0.035284
  6  C    0.215932
  7  H    1.030630
 Total atomic charges:
              1
  1  N   -0.250427
  2  N   -0.155709
  3  N   -0.176651
  4  H   -0.007926
  5  N   -0.439611
  6  C    1.156642
  7  H   -0.126318
 Sum of Mulliken charges=   0.00000
 Atomic charges with hydrogens summed into heavy atoms:
              1
  1  N   -0.250427
  2  N   -0.155709
  3  N   -0.184577
  4  H    0.000000
  5  N   -0.439611
  6  C    1.030323
  7  H    0.000000
 Sum of Mulliken charges=   0.00000
 Electronic spatial extent (au):  <R**2>=   245.3549
 Charge=     0.0000 electrons
 Dipole moment (Debye):
    X=     2.6246    Y=     4.8844    Z=     0.0000  Tot=     5.5449
 Quadrupole moment (Debye-Ang):
   XX=   -28.9042   YY=   -26.7690   ZZ=   -29.0246
   XY=     2.0162   XZ=     0.0000   YZ=     0.0000
 Octapole moment (Debye-Ang**2):
  XXX=    12.6742  YYY=    22.8463  ZZZ=     0.0000  XYY=    -0.8184
  XXY=     5.0995  XXZ=     0.0000  XZZ=    -0.4630  YZZ=     0.8218
  YYZ=     0.0000  XYZ=     0.0000
 Hexadecapole moment (Debye-Ang**3):
 XXXX=  -141.1513 YYYY=  -119.9084 ZZZZ=   -28.0458 XXXY=     7.2455
 XXXZ=     0.0000 YYYX=     0.1184 YYYZ=     0.0000 ZZZX=     0.0000
 ZZZY=     0.0000 XXYY=   -53.6693 XXZZ=   -31.0072 YYZZ=   -29.6576
 XXYZ=     0.0000 YYXZ=     0.0000 ZZXY=     0.2056
 N-N= 1.698288422228D+02 E-N=-9.411878455084D+02  KE= 2.567025147867D+02
 Symmetry A'   KE= 2.477104063996D+02
 Symmetry A"   KE= 8.992108387136D+00
 ***** Axes restored to original set *****
 -------------------------------------------------------------------
 Center     Atomic                   Forces (Hartrees/Bohr)
 Number     Number              X              Y              Z
 -------------------------------------------------------------------
    1          7          -0.002549601   -0.001006096    0.000000000
    2          7           0.001022911    0.001576383    0.000000000
    3          7          -0.000833320    0.003150466    0.000000000
    4          1           0.000869195    0.000436220    0.000000000
    5          7          -0.002750814   -0.004482167    0.000000000
    6          6           0.000102486    0.002065232    0.000000000
    7          1           0.004139143   -0.001740038    0.000000000
 -------------------------------------------------------------------
 Cartesian Forces:  Max     0.004482167 RMS     0.001886069

 GradGradGradGradGradGradGradGradGradGradGradGradGradGradGradGradGradGrad
 Berny optimization.
 Internal  Forces:  Max     0.004814239 RMS     0.001593258
 Search for a local minimum.
 Step number   1 out of a maximum of  36
 All quantities printed in internal units (Hartrees-Bohrs-Radians)
 Second derivative matrix not updated -- first step.
     Eigenvalues ---    0.02505   0.02639   0.02674   0.02834   0.16000
     Eigenvalues ---    0.16000   0.22605   0.24688   0.37515   0.48737
     Eigenvalues ---    0.50885   0.56605   0.58506   0.66912   0.78894
     Eigenvalues --- 1000.000001000.000001000.000001000.000001000.00000
     Eigenvalues --- 1000.000001000.000001000.000001000.000001000.00000
     Eigenvalues --- 1000.00000
 RFO step:  Lambda=-1.28502194D-04.
 Linear search not attempted -- first point.
 Iteration  1 RMS(Cart)=  0.00329532 RMS(Int)=  0.00000235
 Iteration  2 RMS(Cart)=  0.00000210 RMS(Int)=  0.00000059
 Iteration  3 RMS(Cart)=  0.00000000 RMS(Int)=  0.00000059
 Variable       Old X    -DE/DX   Delta X   Delta X   Delta X     New X
                                 (Linear)    (Quad)   (Total)
    R1        2.36623   0.00284   0.00000   0.00331   0.00331   2.36954
    R2        2.53474   0.00175   0.00000   0.00322   0.00322   2.53796
    R3        2.50608   0.00042   0.00000   0.00042   0.00042   2.50650
    R4        1.87862   0.00086   0.00000   0.00176   0.00176   1.88038
    R5        2.51367   0.00273   0.00000   0.00462   0.00462   2.51829
    R6        2.43647   0.00481   0.00000   0.00710   0.00710   2.44357
    R7        2.01777   0.00449   0.00000   0.01196   0.01196   2.02973
    A1        1.94380  -0.00002   0.00000  -0.00024  -0.00024   1.94356
    A2        1.86179   0.00121   0.00000   0.00341   0.00341   1.86520
    A3        2.10759   0.00066   0.00000   0.00398   0.00398   2.11157
    A4        1.88535  -0.00045   0.00000  -0.00258  -0.00258   1.88278
    A5        2.29025  -0.00020   0.00000  -0.00140  -0.00140   2.28884
    A6        1.84604  -0.00096   0.00000  -0.00244  -0.00244   1.84360
    A7        1.88780   0.00023   0.00000   0.00185   0.00185   1.88965
    A8        2.18241  -0.00001   0.00000  -0.00028  -0.00028   2.18213
    A9        2.21298  -0.00022   0.00000  -0.00157  -0.00157   2.21141
    D1        0.00000   0.00000   0.00000   0.00000   0.00000   0.00000
    D2        0.00000   0.00000   0.00000   0.00000   0.00000   0.00000
    D3        3.14159   0.00000   0.00000   0.00000   0.00000   3.14159
    D4        0.00000   0.00000   0.00000   0.00000   0.00000   0.00000
    D5        0.00000   0.00000   0.00000   0.00000   0.00000   0.00000
    D6        3.14159   0.00000   0.00000   0.00000   0.00000   3.14159
    D7        3.14159   0.00000   0.00000   0.00000   0.00000   3.14159
    D8        0.00000   0.00000   0.00000   0.00000   0.00000   0.00000
    D9        0.00000   0.00000   0.00000   0.00000   0.00000   0.00000
   D10        3.14159   0.00000   0.00000   0.00000   0.00000   3.14159
         Item               Value     Threshold  Converged?
 Maximum Force            0.004814     0.000450     NO 
 RMS     Force            0.001593     0.000300     NO 
 Maximum Displacement     0.010033     0.001800     NO 
 RMS     Displacement     0.003294     0.001200     NO 
 Predicted change in Energy=-6.423317D-05
 GradGradGradGradGradGradGradGradGradGradGradGradGradGradGradGradGradGrad

                          Input orientation:                          
 ---------------------------------------------------------------------
 Center     Atomic     Atomic              Coordinates (Angstroms)
 Number     Number      Type              X           Y           Z
 ---------------------------------------------------------------------
    1          7             0       -1.126277   -0.255266    0.000000
    2          7             0       -0.672268    0.913561    0.000000
    3          7             0        0.650279    0.812737    0.000000
    4          1             0        1.225891    1.624402    0.000000
    5          7             0       -0.137443   -1.164076    0.000000
    6          6             0        0.961725   -0.482982    0.000000
    7          1             0        1.961000   -0.876831    0.000000
 ---------------------------------------------------------------------
                    Distance matrix (angstroms):
                    1          2          3          4          5
     1  N    0.000000
     2  N    1.253906   0.000000
     3  N    2.072867   1.326384   0.000000
     4  H    3.010954   2.026895   0.995053   0.000000
     5  N    1.343030   2.145371   2.127979   3.103916   0.000000
     6  C    2.100383   2.149480   1.332623   2.123876   1.293081
     7  H    3.149226   3.184275   2.138371   2.607020   2.118011
                    6          7
     6  C    0.000000
     7  H    1.074089   0.000000
 Stoichiometry    CH2N4
 Framework group  CS[SG(CH2N4)]
 Deg. of freedom   11
 Full point group                 CS      NOp   2
 Largest Abelian subgroup         CS      NOp   2
 Largest concise Abelian subgroup C1      NOp   1
                         Standard orientation:                         
 ---------------------------------------------------------------------
 Center     Atomic     Atomic              Coordinates (Angstroms)
 Number     Number      Type              X           Y           Z
 ---------------------------------------------------------------------
    1          7             0       -0.718274   -0.902800    0.000000
    2          7             0       -1.095025    0.293168    0.000000
    3          7             0        0.000000    1.041644    0.000000
    4          1             0       -0.058489    2.034976    0.000000
    5          7             0        0.621690   -0.993497    0.000000
    6          6             0        1.053387    0.225395    0.000000
    7          1             0        2.079431    0.543046    0.000000
 ---------------------------------------------------------------------
 Rotational constants (GHZ):     10.8711531     10.7123610      5.3955865
 Isotopes: N-14,N-14,N-14,H-1,N-14,C-12,H-1
 Standard basis: Aug-CC-pVDZ (5D, 7F)
 There are    94 symmetry adapted basis functions of A'  symmetry.
 There are    39 symmetry adapted basis functions of A"  symmetry.
 Crude estimate of integral set expansion from redundant integrals=1.000.
 Integral buffers will be    262144 words long.
 Raffenetti 1 integral format.
 Two-electron integral symmetry is turned on.
   133 basis functions      247 primitive gaussians
    18 alpha electrons       18 beta electrons
       nuclear repulsion energy       169.5517142716 Hartrees.
 One-electron integrals computed using PRISM.
 NBasis=   133 RedAO= T  NBF=    94    39
 NBsUse=   133 1.00D-04 NBFU=    94    39
 Initial guess read from the read-write file:
 Initial guess orbital symmetries:
       Occupied  (A') (A') (A') (A') (A') (A') (A') (A') (A') (A')
                 (A') (A") (A') (A') (A') (A') (A") (A")
       Virtual   (A') (A') (A") (A') (A') (A') (A") (A') (A') (A')
                 (A") (A") (A') (A") (A') (A') (A") (A') (A") (A')
                 (A') (A') (A') (A') (A') (A") (A') (A') (A') (A")
                 (A') (A') (A') (A") (A') (A') (A") (A') (A') (A')
                 (A') (A") (A') (A') (A') (A") (A") (A') (A') (A")
                 (A') (A") (A') (A") (A') (A') (A") (A') (A') (A")
                 (A') (A') (A') (A") (A") (A') (A") (A') (A') (A')
                 (A") (A") (A') (A") (A') (A') (A') (A") (A') (A')
                 (A') (A") (A') (A") (A') (A') (A") (A') (A") (A')
                 (A") (A') (A') (A') (A') (A') (A") (A') (A') (A")
                 (A') (A") (A') (A') (A") (A') (A') (A") (A') (A')
                 (A') (A') (A') (A') (A')
 Requested convergence on RMS density matrix=1.00D-08 within  64 cycles.
 Requested convergence on MAX density matrix=1.00D-06.
 SCF Done:  E(RHF) =  -256.797986581     A.U. after   11 cycles
             Convg  =    0.3795D-08             -V/T =  2.0006
             S**2   =   0.0000
 ***** Axes restored to original set *****
 -------------------------------------------------------------------
 Center     Atomic                   Forces (Hartrees/Bohr)
 Number     Number              X              Y              Z
 -------------------------------------------------------------------
    1          7           0.000482278    0.000519596    0.000000000
    2          7          -0.000314209    0.000602293    0.000000000
    3          7          -0.001196341   -0.001228782    0.000000000
    4          1          -0.000002800   -0.000150442    0.000000000
    5          7           0.000607559    0.000472885    0.000000000
    6          6           0.000953395   -0.000371420    0.000000000
    7          1          -0.000529882    0.000155871    0.000000000
 -------------------------------------------------------------------
 Cartesian Forces:  Max     0.001228782 RMS     0.000528816

 GradGradGradGradGradGradGradGradGradGradGradGradGradGradGradGradGradGrad
 Berny optimization.
 Internal  Forces:  Max     0.000961491 RMS     0.000399142
 Search for a local minimum.
 Step number   2 out of a maximum of  36
 All quantities printed in internal units (Hartrees-Bohrs-Radians)
 Update second derivatives using information from points  1  2
 Trust test= 8.21D-01 RLast= 1.70D-02 DXMaxT set to 3.00D-01
     Eigenvalues ---    0.02505   0.02640   0.02674   0.02833   0.15797
     Eigenvalues ---    0.16001   0.23715   0.24666   0.39953   0.48807
     Eigenvalues ---    0.50642   0.56605   0.58350   0.68963   0.82185
     Eigenvalues --- 1000.000001000.000001000.000001000.000001000.00000
     Eigenvalues --- 1000.000001000.000001000.000001000.000001000.00000
     Eigenvalues --- 1000.00000
 RFO step:  Lambda=-7.59280607D-06.
 Quartic linear search produced a step of -0.15047.
 Iteration  1 RMS(Cart)=  0.00118185 RMS(Int)=  0.00000105
 Iteration  2 RMS(Cart)=  0.00000100 RMS(Int)=  0.00000037
 Iteration  3 RMS(Cart)=  0.00000000 RMS(Int)=  0.00000037
 Variable       Old X    -DE/DX   Delta X   Delta X   Delta X     New X
                                 (Linear)    (Quad)   (Total)
    R1        2.36954  -0.00048  -0.00050   0.00022  -0.00028   2.36926
    R2        2.53796   0.00029  -0.00048   0.00117   0.00068   2.53864
    R3        2.50650  -0.00026  -0.00006  -0.00032  -0.00038   2.50612
    R4        1.88038  -0.00012  -0.00026   0.00015  -0.00012   1.88026
    R5        2.51829  -0.00030  -0.00070   0.00049  -0.00021   2.51809
    R6        2.44357  -0.00077  -0.00107   0.00056  -0.00050   2.44307
    R7        2.02973  -0.00055  -0.00180   0.00124  -0.00056   2.02917
    A1        1.94356   0.00034   0.00004   0.00127   0.00131   1.94486
    A2        1.86520  -0.00086  -0.00051  -0.00232  -0.00284   1.86237
    A3        2.11157  -0.00040  -0.00060  -0.00049  -0.00109   2.11048
    A4        1.88278   0.00096   0.00039   0.00293   0.00332   1.88609
    A5        2.28884  -0.00056   0.00021  -0.00244  -0.00223   2.28662
    A6        1.84360   0.00013   0.00037   0.00009   0.00046   1.84406
    A7        1.88965  -0.00058  -0.00028  -0.00197  -0.00225   1.88740
    A8        2.18213   0.00034   0.00004   0.00138   0.00142   2.18355
    A9        2.21141   0.00024   0.00024   0.00059   0.00082   2.21223
    D1        0.00000   0.00000   0.00000   0.00000   0.00000   0.00000
    D2        0.00000   0.00000   0.00000   0.00000   0.00000   0.00000
    D3        3.14159   0.00000   0.00000   0.00000   0.00000   3.14159
    D4        0.00000   0.00000   0.00000   0.00000   0.00000   0.00000
    D5        0.00000   0.00000   0.00000   0.00000   0.00000   0.00000
    D6        3.14159   0.00000   0.00000   0.00000   0.00000   3.14159
    D7        3.14159   0.00000   0.00000   0.00000   0.00000   3.14159
    D8        0.00000   0.00000   0.00000   0.00000   0.00000   0.00000
    D9        0.00000   0.00000   0.00000   0.00000   0.00000   0.00000
   D10        3.14159   0.00000   0.00000   0.00000   0.00000   3.14159
         Item               Value     Threshold  Converged?
 Maximum Force            0.000961     0.000450     NO 
 RMS     Force            0.000399     0.000300     NO 
 Maximum Displacement     0.002581     0.001800     NO 
 RMS     Displacement     0.001182     0.001200     YES
 Predicted change in Energy=-5.505216D-06
 GradGradGradGradGradGradGradGradGradGradGradGradGradGradGradGradGradGrad

                          Input orientation:                          
 ---------------------------------------------------------------------
 Center     Atomic     Atomic              Coordinates (Angstroms)
 Number     Number      Type              X           Y           Z
 ---------------------------------------------------------------------
    1          7             0       -1.124538   -0.254289    0.000000
    2          7             0       -0.671891    0.914906    0.000000
    3          7             0        0.650278    0.811827    0.000000
    4          1             0        1.226364    1.623082    0.000000
    5          7             0       -0.135609   -1.163530    0.000000
    6          6             0        0.963771   -0.483285    0.000000
    7          1             0        1.962839   -0.876849    0.000000
 ---------------------------------------------------------------------
                    Distance matrix (angstroms):
                    1          2          3          4          5
     1  N    0.000000
     2  N    1.253757   0.000000
     3  N    2.070405   1.326181   0.000000
     4  H    3.008532   2.026052   0.994992   0.000000
     5  N    1.343391   2.146507   2.125948   3.101641   0.000000
     6  C    2.100827   2.151820   1.332514   2.122672   1.292815
     7  H    3.149520   3.186250   2.138795   2.606156   2.117940
                    6          7
     6  C    0.000000
     7  H    1.073791   0.000000
 Stoichiometry    CH2N4
 Framework group  CS[SG(CH2N4)]
 Deg. of freedom   11
 Full point group                 CS      NOp   2
 Largest Abelian subgroup         CS      NOp   2
 Largest concise Abelian subgroup C1      NOp   1
                         Standard orientation:                         
 ---------------------------------------------------------------------
 Center     Atomic     Atomic              Coordinates (Angstroms)
 Number     Number      Type              X           Y           Z
 ---------------------------------------------------------------------
    1          7             0       -0.718402   -0.901800    0.000000
    2          7             0       -1.096258    0.293663    0.000000
    3          7             0        0.000000    1.039971    0.000000
    4          1             0       -0.057706    2.033289    0.000000
    5          7             0        0.621891   -0.992984    0.000000
    6          6             0        1.054477    0.225310    0.000000
    7          1             0        2.080230    0.542892    0.000000
 ---------------------------------------------------------------------
 Rotational constants (GHZ):     10.8890044     10.6989364      5.3965668
 Isotopes: N-14,N-14,N-14,H-1,N-14,C-12,H-1
 Standard basis: Aug-CC-pVDZ (5D, 7F)
 There are    94 symmetry adapted basis functions of A'  symmetry.
 There are    39 symmetry adapted basis functions of A"  symmetry.
 Crude estimate of integral set expansion from redundant integrals=1.000.
 Integral buffers will be    262144 words long.
 Raffenetti 1 integral format.
 Two-electron integral symmetry is turned on.
   133 basis functions      247 primitive gaussians
    18 alpha electrons       18 beta electrons
       nuclear repulsion energy       169.5670124624 Hartrees.
 One-electron integrals computed using PRISM.
 NBasis=   133 RedAO= T  NBF=    94    39
 NBsUse=   133 1.00D-04 NBFU=    94    39
 Initial guess read from the read-write file:
 Initial guess orbital symmetries:
       Occupied  (A') (A') (A') (A') (A') (A') (A') (A') (A') (A')
                 (A') (A") (A') (A') (A') (A') (A") (A")
       Virtual   (A') (A') (A") (A') (A') (A') (A") (A') (A') (A')
                 (A") (A") (A') (A") (A') (A') (A") (A') (A") (A')
                 (A') (A') (A') (A') (A') (A") (A') (A') (A') (A")
                 (A') (A') (A') (A") (A') (A') (A") (A') (A') (A')
                 (A') (A') (A") (A') (A') (A") (A") (A') (A') (A")
                 (A') (A") (A') (A") (A') (A') (A") (A') (A') (A")
                 (A') (A') (A') (A") (A") (A') (A") (A') (A') (A')
                 (A") (A") (A') (A") (A') (A') (A') (A") (A') (A')
                 (A') (A") (A') (A") (A') (A') (A") (A') (A") (A')
                 (A") (A') (A') (A') (A') (A') (A") (A') (A') (A")
                 (A') (A") (A') (A') (A") (A') (A') (A") (A') (A')
                 (A') (A') (A') (A') (A')
 Requested convergence on RMS density matrix=1.00D-08 within  64 cycles.
 Requested convergence on MAX density matrix=1.00D-06.
 SCF Done:  E(RHF) =  -256.797988822     A.U. after   10 cycles
             Convg  =    0.5011D-08             -V/T =  2.0005
             S**2   =   0.0000
 ***** Axes restored to original set *****
 -------------------------------------------------------------------
 Center     Atomic                   Forces (Hartrees/Bohr)
 Number     Number              X              Y              Z
 -------------------------------------------------------------------
    1          7          -0.000451534   -0.000319449    0.000000000
    2          7           0.000697933   -0.000759921    0.000000000
    3          7           0.000357125    0.000496909    0.000000000
    4          1           0.000061948   -0.000055744    0.000000000
    5          7          -0.000130760    0.000207919    0.000000000
    6          6          -0.000219739    0.000262873    0.000000000
    7          1          -0.000314973    0.000167413    0.000000000
 -------------------------------------------------------------------
 Cartesian Forces:  Max     0.000759921 RMS     0.000312964

 GradGradGradGradGradGradGradGradGradGradGradGradGradGradGradGradGradGrad
 Berny optimization.
 Internal  Forces:  Max     0.000706515 RMS     0.000270993
 Search for a local minimum.
 Step number   3 out of a maximum of  36
 All quantities printed in internal units (Hartrees-Bohrs-Radians)
 Update second derivatives using information from points  1  2  3
 Trust test= 4.07D-01 RLast= 6.01D-03 DXMaxT set to 3.00D-01
     Eigenvalues ---    0.02505   0.02640   0.02674   0.02833   0.15304
     Eigenvalues ---    0.16016   0.23385   0.39326   0.43614   0.48841
     Eigenvalues ---    0.49516   0.56680   0.63129   0.70233   0.84020
     Eigenvalues --- 1000.000001000.000001000.000001000.000001000.00000
     Eigenvalues --- 1000.000001000.000001000.000001000.000001000.00000
     Eigenvalues --- 1000.00000
 RFO step:  Lambda=-1.05733522D-06.
 Quartic linear search produced a step of -0.37184.
 Iteration  1 RMS(Cart)=  0.00054758 RMS(Int)=  0.00000020
 Iteration  2 RMS(Cart)=  0.00000016 RMS(Int)=  0.00000010
 Variable       Old X    -DE/DX   Delta X   Delta X   Delta X     New X
                                 (Linear)    (Quad)   (Total)
    R1        2.36926   0.00010   0.00010  -0.00011  -0.00001   2.36925
    R2        2.53864  -0.00034  -0.00025  -0.00009  -0.00034   2.53830
    R3        2.50612  -0.00022   0.00014  -0.00038  -0.00023   2.50588
    R4        1.88026  -0.00001   0.00004  -0.00010  -0.00005   1.88021
    R5        2.51809  -0.00036   0.00008  -0.00052  -0.00044   2.51764
    R6        2.44307   0.00015   0.00019  -0.00025  -0.00006   2.44301
    R7        2.02917  -0.00035   0.00021  -0.00100  -0.00079   2.02838
    A1        1.94486  -0.00055  -0.00049  -0.00060  -0.00109   1.94377
    A2        1.86237   0.00071   0.00105   0.00030   0.00136   1.86372
    A3        2.11048   0.00036   0.00041   0.00043   0.00083   2.11131
    A4        1.88609  -0.00056  -0.00123   0.00011  -0.00112   1.88497
    A5        2.28662   0.00020   0.00083  -0.00054   0.00029   2.28691
    A6        1.84406   0.00008  -0.00017   0.00042   0.00025   1.84431
    A7        1.88740   0.00033   0.00083  -0.00023   0.00060   1.88800
    A8        2.18355  -0.00020  -0.00053   0.00010  -0.00043   2.18312
    A9        2.21223  -0.00012  -0.00031   0.00014  -0.00017   2.21206
    D1        0.00000   0.00000   0.00000   0.00000   0.00000   0.00000
    D2        0.00000   0.00000   0.00000   0.00000   0.00000   0.00000
    D3        3.14159   0.00000   0.00000   0.00000   0.00000   3.14159
    D4        0.00000   0.00000   0.00000   0.00000   0.00000   0.00000
    D5        0.00000   0.00000   0.00000   0.00000   0.00000   0.00000
    D6        3.14159   0.00000   0.00000   0.00000   0.00000   3.14159
    D7        3.14159   0.00000   0.00000   0.00000   0.00000   3.14159
    D8        0.00000   0.00000   0.00000   0.00000   0.00000   0.00000
    D9        0.00000   0.00000   0.00000   0.00000   0.00000   0.00000
   D10        3.14159   0.00000   0.00000   0.00000   0.00000   3.14159
         Item               Value     Threshold  Converged?
 Maximum Force            0.000707     0.000450     NO 
 RMS     Force            0.000271     0.000300     YES
 Maximum Displacement     0.001372     0.001800     YES
 RMS     Displacement     0.000548     0.001200     YES
 Predicted change in Energy=-1.737404D-06
 GradGradGradGradGradGradGradGradGradGradGradGradGradGradGradGradGradGrad

                          Input orientation:                          
 ---------------------------------------------------------------------
 Center     Atomic     Atomic              Coordinates (Angstroms)
 Number     Number      Type              X           Y           Z
 ---------------------------------------------------------------------
    1          7             0       -1.124869   -0.254958    0.000000
    2          7             0       -0.671444    0.913932    0.000000
    3          7             0        0.650673    0.811777    0.000000
    4          1             0        1.226857    1.622928    0.000000
    5          7             0       -0.135687   -1.163657    0.000000
    6          6             0        0.963551   -0.483242    0.000000
    7          1             0        1.962228   -0.876653    0.000000
 ---------------------------------------------------------------------
                    Distance matrix (angstroms):
                    1          2          3          4          5
     1  N    0.000000
     2  N    1.253753   0.000000
     3  N    2.071345   1.326057   0.000000
     4  H    3.009496   2.026382   0.994964   0.000000
     5  N    1.343210   2.145556   2.126195   3.101868   0.000000
     6  C    2.100860   2.150652   1.332280   2.122565   1.292784
     7  H    3.149074   3.184717   2.137984   2.605508   2.117456
                    6          7
     6  C    0.000000
     7  H    1.073372   0.000000
 Stoichiometry    CH2N4
 Framework group  CS[SG(CH2N4)]
 Deg. of freedom   11
 Full point group                 CS      NOp   2
 Largest Abelian subgroup         CS      NOp   2
 Largest concise Abelian subgroup C1      NOp   1
                         Standard orientation:                         
 ---------------------------------------------------------------------
 Center     Atomic     Atomic              Coordinates (Angstroms)
 Number     Number      Type              X           Y           Z
 ---------------------------------------------------------------------
    1          7             0       -0.718416   -0.902347    0.000000
    2          7             0       -1.095575    0.293332    0.000000
    3          7             0        0.000000    1.040421    0.000000
    4          1             0       -0.057648    2.033714    0.000000
    5          7             0        0.621743   -0.992837    0.000000
    6          6             0        1.054008    0.225537    0.000000
    7          1             0        2.079334    0.543083    0.000000
 ---------------------------------------------------------------------
 Rotational constants (GHZ):     10.8825889     10.7086615      5.3974623
 Isotopes: N-14,N-14,N-14,H-1,N-14,C-12,H-1
 Standard basis: Aug-CC-pVDZ (5D, 7F)
 There are    94 symmetry adapted basis functions of A'  symmetry.
 There are    39 symmetry adapted basis functions of A"  symmetry.
 Crude estimate of integral set expansion from redundant integrals=1.000.
 Integral buffers will be    262144 words long.
 Raffenetti 1 integral format.
 Two-electron integral symmetry is turned on.
   133 basis functions      247 primitive gaussians
    18 alpha electrons       18 beta electrons
       nuclear repulsion energy       169.5809390627 Hartrees.
 One-electron integrals computed using PRISM.
 NBasis=   133 RedAO= T  NBF=    94    39
 NBsUse=   133 1.00D-04 NBFU=    94    39
 Initial guess read from the read-write file:
 Initial guess orbital symmetries:
       Occupied  (A') (A') (A') (A') (A') (A') (A') (A') (A') (A')
                 (A') (A") (A') (A') (A') (A') (A") (A")
       Virtual   (A') (A') (A") (A') (A') (A') (A") (A') (A') (A')
                 (A") (A") (A') (A") (A') (A') (A") (A') (A") (A')
                 (A') (A') (A') (A') (A') (A") (A') (A') (A') (A")
                 (A') (A') (A') (A") (A') (A') (A") (A') (A') (A')
                 (A') (A') (A") (A') (A') (A") (A") (A') (A') (A")
                 (A') (A") (A') (A") (A') (A') (A") (A') (A') (A")
                 (A') (A') (A') (A") (A") (A') (A") (A') (A') (A')
                 (A") (A") (A') (A") (A') (A') (A') (A") (A') (A')
                 (A') (A") (A') (A") (A') (A') (A") (A') (A") (A')
                 (A") (A') (A') (A') (A') (A') (A") (A') (A') (A")
                 (A') (A") (A') (A') (A") (A') (A') (A") (A') (A')
                 (A') (A') (A') (A') (A')
 Requested convergence on RMS density matrix=1.00D-08 within  64 cycles.
 Requested convergence on MAX density matrix=1.00D-06.
 SCF Done:  E(RHF) =  -256.797990493     A.U. after    9 cycles
             Convg  =    0.6154D-08             -V/T =  2.0005
             S**2   =   0.0000
 ***** Axes restored to original set *****
 -------------------------------------------------------------------
 Center     Atomic                   Forces (Hartrees/Bohr)
 Number     Number              X              Y              Z
 -------------------------------------------------------------------
    1          7           0.000159258   -0.000045613    0.000000000
    2          7           0.000093591    0.000094423    0.000000000
    3          7          -0.000116895    0.000063310    0.000000000
    4          1           0.000003394   -0.000003048    0.000000000
    5          7          -0.000026859   -0.000117534    0.000000000
    6          6          -0.000096146    0.000010328    0.000000000
    7          1          -0.000016343   -0.000001866    0.000000000
 -------------------------------------------------------------------
 Cartesian Forces:  Max     0.000159258 RMS     0.000064354

 GradGradGradGradGradGradGradGradGradGradGradGradGradGradGradGradGradGrad
 Berny optimization.
 Internal  Forces:  Max     0.000144155 RMS     0.000055336
 Search for a local minimum.
 Step number   4 out of a maximum of  36
 All quantities printed in internal units (Hartrees-Bohrs-Radians)
 Update second derivatives using information from points  1  2  3  4
 Trust test= 9.62D-01 RLast= 2.59D-03 DXMaxT set to 3.00D-01
     Eigenvalues ---    0.02505   0.02640   0.02674   0.02833   0.15034
     Eigenvalues ---    0.16027   0.24799   0.38861   0.46539   0.48856
     Eigenvalues ---    0.48900   0.56205   0.60968   0.73493   0.83429
     Eigenvalues --- 1000.000001000.000001000.000001000.000001000.00000
     Eigenvalues --- 1000.000001000.000001000.000001000.000001000.00000
     Eigenvalues --- 1000.00000
 RFO step:  Lambda=-2.09226515D-07.
 Quartic linear search produced a step of -0.03722.
 Iteration  1 RMS(Cart)=  0.00017956 RMS(Int)=  0.00000002
 Iteration  2 RMS(Cart)=  0.00000002 RMS(Int)=  0.00000000
 Variable       Old X    -DE/DX   Delta X   Delta X   Delta X     New X
                                 (Linear)    (Quad)   (Total)
    R1        2.36925   0.00006   0.00000   0.00006   0.00006   2.36931
    R2        2.53830  -0.00005   0.00001  -0.00012  -0.00011   2.53819
    R3        2.50588  -0.00014   0.00001  -0.00027  -0.00026   2.50563
    R4        1.88021   0.00000   0.00000  -0.00001  -0.00001   1.88020
    R5        2.51764   0.00006   0.00002   0.00002   0.00003   2.51768
    R6        2.44301  -0.00003   0.00000  -0.00006  -0.00005   2.44295
    R7        2.02838  -0.00001   0.00003  -0.00017  -0.00014   2.02824
    A1        1.94377   0.00012   0.00004   0.00033   0.00037   1.94414
    A2        1.86372  -0.00006  -0.00005  -0.00008  -0.00013   1.86359
    A3        2.11131   0.00001  -0.00003   0.00016   0.00013   2.11144
    A4        1.88497  -0.00001   0.00004  -0.00016  -0.00012   1.88485
    A5        2.28691   0.00000  -0.00001   0.00000  -0.00001   2.28690
    A6        1.84431  -0.00014  -0.00001  -0.00045  -0.00046   1.84385
    A7        1.88800   0.00008  -0.00002   0.00038   0.00035   1.88835
    A8        2.18312  -0.00003   0.00002  -0.00016  -0.00014   2.18298
    A9        2.21206  -0.00005   0.00001  -0.00022  -0.00021   2.21185
    D1        0.00000   0.00000   0.00000   0.00000   0.00000   0.00000
    D2        0.00000   0.00000   0.00000   0.00000   0.00000   0.00000
    D3        3.14159   0.00000   0.00000   0.00000   0.00000   3.14159
    D4        0.00000   0.00000   0.00000   0.00000   0.00000   0.00000
    D5        0.00000   0.00000   0.00000   0.00000   0.00000   0.00000
    D6        3.14159   0.00000   0.00000   0.00000   0.00000   3.14159
    D7        3.14159   0.00000   0.00000   0.00000   0.00000   3.14159
    D8        0.00000   0.00000   0.00000   0.00000   0.00000   0.00000
    D9        0.00000   0.00000   0.00000   0.00000   0.00000   0.00000
   D10        3.14159   0.00000   0.00000   0.00000   0.00000   3.14159
         Item               Value     Threshold  Converged?
 Maximum Force            0.000144     0.000450     YES
 RMS     Force            0.000055     0.000300     YES
 Maximum Displacement     0.000493     0.001800     YES
 RMS     Displacement     0.000180     0.001200     YES
 Predicted change in Energy=-1.071130D-07
 Optimization completed.
    -- Stationary point found.
                         ----------------------------
                         !   Optimized Parameters   !
                         ! (Angstroms and Degrees)  !
 ------------------------                            -------------------------
 ! Name  Definition              Value          Derivative Info.             !
 -----------------------------------------------------------------------------
 ! R1    R(1,2)                  1.2538         -DE/DX =    0.0001           !
 ! R2    R(1,5)                  1.3432         -DE/DX =   -0.0001           !
 ! R3    R(2,3)                  1.3261         -DE/DX =   -0.0001           !
 ! R4    R(3,4)                  0.995          -DE/DX =    0.               !
 ! R5    R(3,6)                  1.3323         -DE/DX =    0.0001           !
 ! R6    R(5,6)                  1.2928         -DE/DX =    0.               !
 ! R7    R(6,7)                  1.0734         -DE/DX =    0.               !
 ! A1    A(2,1,5)              111.37           -DE/DX =    0.0001           !
 ! A2    A(1,2,3)              106.7836         -DE/DX =   -0.0001           !
 ! A3    A(2,3,4)              120.9691         -DE/DX =    0.               !
 ! A4    A(2,3,6)              108.0007         -DE/DX =    0.               !
 ! A5    A(4,3,6)              131.0302         -DE/DX =    0.               !
 ! A6    A(1,5,6)              105.6713         -DE/DX =   -0.0001           !
 ! A7    A(3,6,5)              108.1745         -DE/DX =    0.0001           !
 ! A8    A(3,6,7)              125.0835         -DE/DX =    0.               !
 ! A9    A(5,6,7)              126.742          -DE/DX =    0.               !
 ! D1    D(5,1,2,3)              0.             -DE/DX =    0.               !
 ! D2    D(2,1,5,6)              0.             -DE/DX =    0.               !
 ! D3    D(1,2,3,4)            180.             -DE/DX =    0.               !
 ! D4    D(1,2,3,6)              0.             -DE/DX =    0.               !
 ! D5    D(2,3,6,5)              0.             -DE/DX =    0.               !
 ! D6    D(2,3,6,7)            180.             -DE/DX =    0.               !
 ! D7    D(4,3,6,5)            180.             -DE/DX =    0.               !
 ! D8    D(4,3,6,7)              0.             -DE/DX =    0.               !
 ! D9    D(1,5,6,3)              0.             -DE/DX =    0.               !
 ! D10   D(1,5,6,7)            180.             -DE/DX =    0.               !
 -----------------------------------------------------------------------------
 GradGradGradGradGradGradGradGradGradGradGradGradGradGradGradGradGradGrad

                          Input orientation:                          
 ---------------------------------------------------------------------
 Center     Atomic     Atomic              Coordinates (Angstroms)
 Number     Number      Type              X           Y           Z
 ---------------------------------------------------------------------
    1          7             0       -1.124899   -0.254860    0.000000
    2          7             0       -0.671475    0.914030    0.000000
    3          7             0        0.650642    0.811875    0.000000
    4          1             0        1.226827    1.623026    0.000000
    5          7             0       -0.135718   -1.163559    0.000000
    6          6             0        0.963521   -0.483145    0.000000
    7          1             0        1.962197   -0.876555    0.000000
 ---------------------------------------------------------------------
                    Distance matrix (angstroms):
                    1          2          3          4          5
     1  N    0.000000
     2  N    1.253753   0.000000
     3  N    2.071345   1.326057   0.000000
     4  H    3.009496   2.026382   0.994964   0.000000
     5  N    1.343210   2.145556   2.126195   3.101868   0.000000
     6  C    2.100860   2.150652   1.332280   2.122565   1.292784
     7  H    3.149074   3.184717   2.137984   2.605508   2.117456
                    6          7
     6  C    0.000000
     7  H    1.073372   0.000000
 Stoichiometry    CH2N4
 Framework group  CS[SG(CH2N4)]
 Deg. of freedom   11
 Full point group                 CS      NOp   2
 Largest Abelian subgroup         CS      NOp   2
 Largest concise Abelian subgroup C1      NOp   1
                         Standard orientation:                         
 ---------------------------------------------------------------------
 Center     Atomic     Atomic              Coordinates (Angstroms)
 Number     Number      Type              X           Y           Z
 ---------------------------------------------------------------------
    1          7             0       -0.718416   -0.902347    0.000000
    2          7             0       -1.095575    0.293332    0.000000
    3          7             0        0.000000    1.040421    0.000000
    4          1             0       -0.057648    2.033714    0.000000
    5          7             0        0.621743   -0.992837    0.000000
    6          6             0        1.054008    0.225537    0.000000
    7          1             0        2.079334    0.543083    0.000000
 ---------------------------------------------------------------------
 Rotational constants (GHZ):     10.8825889     10.7086615      5.3974623
 Isotopes: N-14,N-14,N-14,H-1,N-14,C-12,H-1

 **********************************************************************

            Population analysis using the SCF density.

 **********************************************************************

 Orbital Symmetries:
       Occupied  (A') (A') (A') (A') (A') (A') (A') (A') (A') (A')
                 (A') (A") (A') (A') (A') (A') (A") (A")
       Virtual   (A') (A') (A") (A') (A') (A') (A") (A') (A') (A')
                 (A") (A") (A') (A") (A') (A') (A") (A') (A") (A')
                 (A') (A') (A') (A') (A') (A") (A') (A') (A') (A")
                 (A') (A') (A') (A") (A') (A') (A") (A') (A') (A')
                 (A') (A') (A") (A') (A') (A") (A") (A') (A') (A")
                 (A') (A") (A') (A") (A') (A') (A") (A') (A') (A")
                 (A') (A') (A') (A") (A") (A') (A") (A') (A') (A')
                 (A") (A") (A') (A") (A') (A') (A') (A") (A') (A')
                 (A') (A") (A') (A") (A') (A') (A") (A') (A") (A')
                 (A") (A') (A') (A') (A') (A') (A") (A') (A') (A")
                 (A') (A") (A') (A') (A") (A') (A') (A") (A') (A')
                 (A') (A') (A') (A') (A')
  The electronic state is 1-A'.
 Alpha  occ. eigenvalues --  -15.68634 -15.66652 -15.64918 -15.60739 -11.34091
 Alpha  occ. eigenvalues --   -1.52466  -1.27065  -1.21348  -0.91755  -0.90025
 Alpha  occ. eigenvalues --   -0.81128  -0.69149  -0.68559  -0.57623  -0.47976
 Alpha  occ. eigenvalues --   -0.46950  -0.46076  -0.42665
 Alpha virt. eigenvalues --    0.01942   0.04176   0.08134   0.08632   0.10887
 Alpha virt. eigenvalues --    0.12757   0.13575   0.14285   0.15627   0.16754
 Alpha virt. eigenvalues --    0.16976   0.17905   0.19850   0.20012   0.21561
 Alpha virt. eigenvalues --    0.24835   0.25335   0.26725   0.27541   0.28123
 Alpha virt. eigenvalues --    0.30135   0.32717   0.33657   0.36708   0.37421
 Alpha virt. eigenvalues --    0.38256   0.39679   0.41064   0.42509   0.44819
 Alpha virt. eigenvalues --    0.49974   0.53932   0.54058   0.58360   0.59072
 Alpha virt. eigenvalues --    0.62313   0.62986   0.64159   0.68803   0.70205
 Alpha virt. eigenvalues --    0.72003   0.74562   0.74691   0.75256   0.80734
 Alpha virt. eigenvalues --    0.82165   0.83195   0.84127   0.88137   0.89688
 Alpha virt. eigenvalues --    0.96015   0.99583   1.00826   1.01236   1.03320
 Alpha virt. eigenvalues --    1.04211   1.04933   1.07541   1.13071   1.15473
 Alpha virt. eigenvalues --    1.15632   1.18188   1.21740   1.27468   1.31064
 Alpha virt. eigenvalues --    1.35899   1.37560   1.38208   1.43652   1.54497
 Alpha virt. eigenvalues --    1.54924   1.60921   1.62917   1.66099   1.70605
 Alpha virt. eigenvalues --    1.76128   1.82201   1.86068   1.88225   1.96263
 Alpha virt. eigenvalues --    2.04187   2.04493   2.11694   2.12081   2.13738
 Alpha virt. eigenvalues --    2.21320   2.22999   2.30303   2.33561   2.35763
 Alpha virt. eigenvalues --    2.39169   2.41476   2.45637   2.55552   2.57275
 Alpha virt. eigenvalues --    2.61772   2.67806   2.69953   2.73675   2.83325
 Alpha virt. eigenvalues --    2.85324   2.89781   2.92669   2.94984   2.96162
 Alpha virt. eigenvalues --    3.07989   3.09346   3.21872   3.30714   3.34354
 Alpha virt. eigenvalues --    3.44882   3.52794   3.56553   3.94729   4.15215
          Condensed to atoms (all electrons):
              1          2          3          4          5          6
  1  N    8.103357  -0.535032   0.159748   0.023624  -0.439576  -0.046074
  2  N   -0.535032   8.093896  -0.276793  -0.184546   0.284561  -0.225666
  3  N    0.159748  -0.276793   6.769586   0.514713  -0.221109   0.308917
  4  H    0.023624  -0.184546   0.514713   0.758381  -0.008025  -0.107695
  5  N   -0.439576   0.284561  -0.221109  -0.008025   7.485030   0.376906
  6  C   -0.046074  -0.225666   0.308917  -0.107695   0.376906   4.321780
  7  H   -0.015791  -0.001758  -0.077880   0.010133  -0.037395   0.230299
              7
  1  N   -0.015791
  2  N   -0.001758
  3  N   -0.077880
  4  H    0.010133
  5  N   -0.037395
  6  C    0.230299
  7  H    1.004847
 Total atomic charges:
              1
  1  N   -0.250255
  2  N   -0.154664
  3  N   -0.177183
  4  H   -0.006584
  5  N   -0.440393
  6  C    1.141533
  7  H   -0.112455
 Sum of Mulliken charges=   0.00000
 Atomic charges with hydrogens summed into heavy atoms:
              1
  1  N   -0.250255
  2  N   -0.154664
  3  N   -0.183767
  4  H    0.000000
  5  N   -0.440393
  6  C    1.029078
  7  H    0.000000
 Sum of Mulliken charges=   0.00000
 Electronic spatial extent (au):  <R**2>=   245.9296
 Charge=     0.0000 electrons
 Dipole moment (Debye):
    X=     2.6358    Y=     4.8892    Z=     0.0000  Tot=     5.5544
 Quadrupole moment (Debye-Ang):
   XX=   -28.8994   YY=   -26.7661   ZZ=   -29.0565
   XY=     2.0307   XZ=     0.0000   YZ=     0.0000
 Octapole moment (Debye-Ang**2):
  XXX=    12.7460  YYY=    22.9188  ZZZ=     0.0000  XYY=    -0.8054
  XXY=     5.1092  XXZ=     0.0000  XZZ=    -0.4834  YZZ=     0.8248
  YYZ=     0.0000  XYZ=     0.0000
 Hexadecapole moment (Debye-Ang**3):
 XXXX=  -141.3092 YYYY=  -120.2069 ZZZZ=   -28.1102 XXXY=     7.2847
 XXXZ=     0.0000 YYYX=     0.1905 YYYZ=     0.0000 ZZZX=     0.0000
 ZZZY=     0.0000 XXYY=   -53.8351 XXZZ=   -31.1089 YYZZ=   -29.7552
 XXYZ=     0.0000 YYXZ=     0.0000 ZZXY=     0.2011
 N-N= 1.695809390627D+02 E-N=-9.406624682791D+02  KE= 2.566610034495D+02
 Symmetry A'   KE= 2.476741656371D+02
 Symmetry A"   KE= 8.986837812471D+00
 1\1\GINC-PLUMBUM\FOpt\RHF\Aug-CC-pVDZ\C1H2N4\RDJ3\28-Jul-2001\0\\#HF/A
 UG-CC-PVDZ OPT FREQ\\1H tetrazole c CH-NH-N=N-N= casno=288948\\0,1\N,-
 1.1248991151,-0.2548600174,0.\N,-0.6714745345,0.9140295548,0.\N,0.6506
 419123,0.811875136,0.\H,1.22682659,1.6230255674,0.\N,-0.1357179663,-1.
 1635592983,0.\C,0.9635206625,-0.4831446984,0.\H,1.9621973601,-0.876555
 0024,0.\\Version=IBM-RS6000-G98RevA.6\State=1-A'\HF=-256.7979905\RMSD=
 6.154e-09\RMSF=6.435e-05\Dipole=2.0121275,0.852494,0.\PG=CS [SG(C1H2N4
 )]\\@


 IT IS A QUALITY OF REVOLUTIONS NOT TO GO BY OLD LINES OR OLD LAWS,
 BUT TO BREAK UP BOTH, AND MAKE NEW ONES.
                                              -- A. LINCOLN (1848)
 Job cpu time:  0 days  0 hours 44 minutes 22.8 seconds.
 File lengths (MBytes):  RWF=   15 Int=    0 D2E=    0 Chk=    4 Scr=    1
 Normal termination of Gaussian 98.
 Link1:  Proceeding to internal job step number  2.
 --------------------------------------------------
 #N Geom=AllCheck Guess=TCheck RHF/Aug-CC-pVDZ Freq
 --------------------------------------------------
 1/10=4,29=7,30=1,38=1/1,3;
 2//2;
 3/5=16,7=10,11=1,25=1,30=1/1,2,3;
 4/5=101,7=1/1;
 5/5=2/2;
 8/6=4,11=11/1;
 10/13=10/2;
 11/6=2,8=1,9=11,15=111,16=11/1,2,10;
 10/6=1/2;
 6/7=2,8=2,9=2,10=2,18=1,28=1/1;
 7/8=1,10=1,25=1/1,2,3,16;
 1/10=4,30=1/3;
 99//99;
 ----------------------------------------
 1H tetrazole c CH-NH-N=N-N= casno=288948
 ----------------------------------------
 Redundant internal coordinates taken from checkpointfile:
 /wrk/rdj3/Gau-14058.chk
 Charge =  0 Multiplicity = 1
 N,0,-1.1248991151,-0.2548600174,0.
 N,0,-0.6714745345,0.9140295548,0.
 N,0,0.6506419123,0.811875136,0.
 H,0,1.22682659,1.6230255674,0.
 N,0,-0.1357179663,-1.1635592983,0.
 C,0,0.9635206625,-0.4831446984,0.
 H,0,1.9621973601,-0.8765550024,0.
 Recover connectivity data from disk.

 GradGradGradGradGradGradGradGradGradGradGradGradGradGradGradGradGradGrad
 Berny optimization.
 Initialization pass.
                         ----------------------------
                         !    Initial Parameters    !
                         ! (Angstroms and Degrees)  !
 ------------------------                            -------------------------
 ! Name  Definition              Value          Derivative Info.             !
 -----------------------------------------------------------------------------
 ! R1    R(1,2)                  1.2538         calculate D2E/DX2 analyticall!
 ! R2    R(1,5)                  1.3432         calculate D2E/DX2 analyticall!
 ! R3    R(2,3)                  1.3261         calculate D2E/DX2 analyticall!
 ! R4    R(3,4)                  0.995          calculate D2E/DX2 analyticall!
 ! R5    R(3,6)                  1.3323         calculate D2E/DX2 analyticall!
 ! R6    R(5,6)                  1.2928         calculate D2E/DX2 analyticall!
 ! R7    R(6,7)                  1.0734         calculate D2E/DX2 analyticall!
 ! A1    A(2,1,5)              111.37           calculate D2E/DX2 analyticall!
 ! A2    A(1,2,3)              106.7836         calculate D2E/DX2 analyticall!
 ! A3    A(2,3,4)              120.9691         calculate D2E/DX2 analyticall!
 ! A4    A(2,3,6)              108.0007         calculate D2E/DX2 analyticall!
 ! A5    A(4,3,6)              131.0302         calculate D2E/DX2 analyticall!
 ! A6    A(1,5,6)              105.6713         calculate D2E/DX2 analyticall!
 ! A7    A(3,6,5)              108.1745         calculate D2E/DX2 analyticall!
 ! A8    A(3,6,7)              125.0835         calculate D2E/DX2 analyticall!
 ! A9    A(5,6,7)              126.742          calculate D2E/DX2 analyticall!
 ! D1    D(5,1,2,3)              0.             calculate D2E/DX2 analyticall!
 ! D2    D(2,1,5,6)              0.             calculate D2E/DX2 analyticall!
 ! D3    D(1,2,3,4)            180.             calculate D2E/DX2 analyticall!
 ! D4    D(1,2,3,6)              0.             calculate D2E/DX2 analyticall!
 ! D5    D(2,3,6,5)              0.             calculate D2E/DX2 analyticall!
 ! D6    D(2,3,6,7)            180.             calculate D2E/DX2 analyticall!
 ! D7    D(4,3,6,5)            180.             calculate D2E/DX2 analyticall!
 ! D8    D(4,3,6,7)              0.             calculate D2E/DX2 analyticall!
 ! D9    D(1,5,6,3)              0.             calculate D2E/DX2 analyticall!
 ! D10   D(1,5,6,7)            180.             calculate D2E/DX2 analyticall!
 -----------------------------------------------------------------------------
 Trust Radius=3.00D-01 FncErr=1.00D-07 GrdErr=1.00D-07
 Number of steps in this run=  36 maximum allowed number of steps= 100.
 GradGradGradGradGradGradGradGradGradGradGradGradGradGradGradGradGradGrad

                          Input orientation:                          
 ---------------------------------------------------------------------
 Center     Atomic     Atomic              Coordinates (Angstroms)
 Number     Number      Type              X           Y           Z
 ---------------------------------------------------------------------
    1          7             0       -1.124899   -0.254860    0.000000
    2          7             0       -0.671475    0.914030    0.000000
    3          7             0        0.650642    0.811875    0.000000
    4          1             0        1.226827    1.623026    0.000000
    5          7             0       -0.135718   -1.163559    0.000000
    6          6             0        0.963521   -0.483145    0.000000
    7          1             0        1.962197   -0.876555    0.000000
 ---------------------------------------------------------------------
                    Distance matrix (angstroms):
                    1          2          3          4          5
     1  N    0.000000
     2  N    1.253753   0.000000
     3  N    2.071345   1.326057   0.000000
     4  H    3.009496   2.026382   0.994964   0.000000
     5  N    1.343210   2.145556   2.126195   3.101868   0.000000
     6  C    2.100860   2.150652   1.332280   2.122565   1.292784
     7  H    3.149074   3.184717   2.137984   2.605508   2.117456
                    6          7
     6  C    0.000000
     7  H    1.073372   0.000000
                           Interatomic angles:
       N1-N2-N3=106.7836       N1-N2-H4=131.6819       N1-N3-H4=156.3845
       N2-N3-H4=120.9691       N2-N1-N5=111.37         N3-N1-N5= 73.569 
       N2-N3-N5= 72.7122       H4-N1-N5= 81.1796       H4-N2-N5= 96.0201
       H4-N3-N5=166.3187       N2-N1-C6= 75.0364       N1-N3-C6= 72.5853
       N2-N3-C6=108.0007       N1-C6-H4= 90.8877       N2-H4-C6= 62.3939
       H4-N3-C6=131.0302       N1-N5-C6=105.6713       N2-N5-C6= 72.7031
       N3-C6-N5=108.1745       H4-C6-N5=128.8829       N1-N3-H7= 96.8425
       N2-N3-H7=132.2579       N1-H4-H7= 67.7859       N2-H4-H7= 85.9136
       H4-N3-H7=106.773        N1-N5-H7=129.6383       N2-N5-H7= 96.6701
       N3-N5-H7= 60.5041       H4-H7-N5= 81.3962       N1-C6-H7=164.7372
       N2-C6-H7=160.9857       N3-C6-H7=125.0835       H4-C6-H7=104.3751
       N5-C6-H7=126.742 
 Stoichiometry    CH2N4
 Framework group  CS[SG(CH2N4)]
 Deg. of freedom   11
 Full point group                 CS      NOp   2
 Largest Abelian subgroup         CS      NOp   2
 Largest concise Abelian subgroup C1      NOp   1
                         Standard orientation:                         
 ---------------------------------------------------------------------
 Center     Atomic     Atomic              Coordinates (Angstroms)
 Number     Number      Type              X           Y           Z
 ---------------------------------------------------------------------
    1          7             0       -0.718416   -0.902347    0.000000
    2          7             0       -1.095575    0.293332    0.000000
    3          7             0        0.000000    1.040421    0.000000
    4          1             0       -0.057648    2.033714    0.000000
    5          7             0        0.621743   -0.992837    0.000000
    6          6             0        1.054008    0.225537    0.000000
    7          1             0        2.079334    0.543083    0.000000
 ---------------------------------------------------------------------
 Rotational constants (GHZ):     10.8825889     10.7086615      5.3974623
 Isotopes: N-14,N-14,N-14,H-1,N-14,C-12,H-1
 Standard basis: Aug-CC-pVDZ (5D, 7F)
 There are    94 symmetry adapted basis functions of A'  symmetry.
 There are    39 symmetry adapted basis functions of A"  symmetry.
 Crude estimate of integral set expansion from redundant integrals=1.000.
 Integral buffers will be    262144 words long.
 Raffenetti 1 integral format.
 Two-electron integral symmetry is turned on.
   133 basis functions      247 primitive gaussians
    18 alpha electrons       18 beta electrons
       nuclear repulsion energy       169.5809390627 Hartrees.
 One-electron integrals computed using PRISM.
 NBasis=   133 RedAO= T  NBF=    94    39
 NBsUse=   133 1.00D-04 NBFU=    94    39
 Initial guess read from the checkpoint file:
 /wrk/rdj3/Gau-14058.chk
 Initial guess orbital symmetries:
       Occupied  (A') (A') (A') (A') (A') (A') (A') (A') (A') (A')
                 (A') (A") (A') (A') (A') (A') (A") (A")
       Virtual   (A') (A') (A") (A') (A') (A') (A") (A') (A') (A')
                 (A") (A") (A') (A") (A') (A') (A") (A') (A") (A')
                 (A') (A') (A') (A') (A') (A") (A') (A') (A') (A")
                 (A') (A') (A') (A") (A') (A') (A") (A') (A') (A')
                 (A') (A') (A") (A') (A') (A") (A") (A') (A') (A")
                 (A') (A") (A') (A") (A') (A') (A") (A') (A') (A")
                 (A') (A') (A') (A") (A") (A') (A") (A') (A') (A')
                 (A") (A") (A') (A") (A') (A') (A') (A") (A') (A')
                 (A') (A") (A') (A") (A') (A') (A") (A') (A") (A')
                 (A") (A') (A') (A') (A') (A') (A") (A') (A') (A")
                 (A') (A") (A') (A') (A") (A') (A') (A") (A') (A')
                 (A') (A') (A') (A') (A')
 Requested convergence on RMS density matrix=1.00D-08 within  64 cycles.
 Requested convergence on MAX density matrix=1.00D-06.
 SCF Done:  E(RHF) =  -256.797990493     A.U. after    1 cycles
             Convg  =    0.1893D-08             -V/T =  2.0005
             S**2   =   0.0000
 Range of M.O.s used for correlation:     1   133
 NBasis=   133 NAE=    18 NBE=    18 NFC=     0 NFV=     0
 NROrb=    133 NOA=    18 NOB=    18 NVA=   115 NVB=   115

 **** Warning!!: The largest alpha MO coefficient is  0.30267662D+02

          Differentiating once with respect to electric field.
                with respect to dipole field.
 Integrals replicated using symmetry in FoFDir.
 MinBra= 0 MaxBra= 2 Meth= 1.
 IRaf=       0 NMat=   3 IRICut=       1 DoRegI=T DoRafI=F ISym2E= 2 JSym2E=2.
          There are   3 degrees of freedom in the 1st order CPHF.
   3 vectors were produced by pass  0.
 AX will form   3 AO Fock derivatives at one time.
   3 vectors were produced by pass  1.
   3 vectors were produced by pass  2.
   3 vectors were produced by pass  3.
   3 vectors were produced by pass  4.
   3 vectors were produced by pass  5.
   3 vectors were produced by pass  6.
   3 vectors were produced by pass  7.
   3 vectors were produced by pass  8.
   3 vectors were produced by pass  9.
   2 vectors were produced by pass 10.
   1 vectors were produced by pass 11.
   1 vectors were produced by pass 12.
 Inv2:  IOpt= 1 Iter= 1 AM= 5.22D-16 Conv= 1.00D-12.
 Inverted reduced A of dimension  34 with in-core refinement.
 G2DrvN: will do    7 atoms at a time, making    1 passes doing MaxLOS=2.
 FoFDir used for L=0 through L=2.
          Differentiating once with respect to electric field.
                with respect to dipole field.
          Differentiating once with respect to nuclear coordinates.
 Integrals replicated using symmetry in FoFDir.
 MinBra= 0 MaxBra= 2 Meth= 1.
 IRaf=       0 NMat=  24 IRICut=      24 DoRegI=T DoRafI=T ISym2E= 2 JSym2E=2.
          There are  24 degrees of freedom in the 1st order CPHF.
  21 vectors were produced by pass  0.
 AX will form  21 AO Fock derivatives at one time.
  21 vectors were produced by pass  1.
  21 vectors were produced by pass  2.
  21 vectors were produced by pass  3.
  21 vectors were produced by pass  4.
  21 vectors were produced by pass  5.
  21 vectors were produced by pass  6.
  14 vectors were produced by pass  7.
   3 vectors were produced by pass  8.
 Inv2:  IOpt= 1 Iter= 1 AM= 1.54D-15 Conv= 1.00D-12.
 Inverted reduced A of dimension 164 with in-core refinement.

 **********************************************************************

            Population analysis using the SCF density.

 **********************************************************************

 Orbital Symmetries:
       Occupied  (A') (A') (A') (A') (A') (A') (A') (A') (A') (A')
                 (A') (A") (A') (A') (A') (A') (A") (A")
       Virtual   (A') (A') (A") (A') (A') (A') (A") (A') (A') (A')
                 (A") (A") (A') (A") (A') (A') (A") (A') (A") (A')
                 (A') (A') (A') (A') (A') (A") (A') (A') (A') (A")
                 (A') (A') (A') (A") (A') (A') (A") (A') (A') (A')
                 (A') (A') (A") (A') (A') (A") (A") (A') (A') (A")
                 (A') (A") (A') (A") (A') (A') (A") (A') (A') (A")
                 (A') (A') (A') (A") (A") (A') (A") (A') (A') (A')
                 (A") (A") (A') (A") (A') (A') (A') (A") (A') (A')
                 (A') (A") (A') (A") (A') (A') (A") (A') (A") (A')
                 (A") (A') (A') (A') (A') (A') (A") (A') (A') (A")
                 (A') (A") (A') (A') (A") (A') (A') (A") (A') (A')
                 (A') (A') (A') (A') (A')
  The electronic state is 1-A'.
 Alpha  occ. eigenvalues --  -15.68634 -15.66652 -15.64918 -15.60739 -11.34091
 Alpha  occ. eigenvalues --   -1.52466  -1.27065  -1.21348  -0.91755  -0.90025
 Alpha  occ. eigenvalues --   -0.81128  -0.69149  -0.68559  -0.57623  -0.47976
 Alpha  occ. eigenvalues --   -0.46950  -0.46076  -0.42665
 Alpha virt. eigenvalues --    0.01942   0.04176   0.08134   0.08632   0.10887
 Alpha virt. eigenvalues --    0.12757   0.13575   0.14285   0.15627   0.16754
 Alpha virt. eigenvalues --    0.16976   0.17905   0.19850   0.20012   0.21561
 Alpha virt. eigenvalues --    0.24835   0.25335   0.26725   0.27541   0.28123
 Alpha virt. eigenvalues --    0.30135   0.32717   0.33657   0.36708   0.37421
 Alpha virt. eigenvalues --    0.38256   0.39679   0.41064   0.42509   0.44819
 Alpha virt. eigenvalues --    0.49974   0.53932   0.54058   0.58360   0.59072
 Alpha virt. eigenvalues --    0.62313   0.62986   0.64159   0.68803   0.70205
 Alpha virt. eigenvalues --    0.72003   0.74562   0.74691   0.75256   0.80734
 Alpha virt. eigenvalues --    0.82165   0.83195   0.84127   0.88137   0.89688
 Alpha virt. eigenvalues --    0.96015   0.99583   1.00826   1.01236   1.03320
 Alpha virt. eigenvalues --    1.04211   1.04933   1.07541   1.13071   1.15473
 Alpha virt. eigenvalues --    1.15632   1.18188   1.21740   1.27468   1.31064
 Alpha virt. eigenvalues --    1.35899   1.37560   1.38208   1.43652   1.54497
 Alpha virt. eigenvalues --    1.54924   1.60921   1.62917   1.66099   1.70605
 Alpha virt. eigenvalues --    1.76128   1.82201   1.86068   1.88225   1.96263
 Alpha virt. eigenvalues --    2.04187   2.04493   2.11694   2.12081   2.13738
 Alpha virt. eigenvalues --    2.21320   2.22999   2.30303   2.33561   2.35763
 Alpha virt. eigenvalues --    2.39169   2.41476   2.45637   2.55552   2.57275
 Alpha virt. eigenvalues --    2.61772   2.67806   2.69953   2.73675   2.83325
 Alpha virt. eigenvalues --    2.85324   2.89781   2.92669   2.94984   2.96162
 Alpha virt. eigenvalues --    3.07989   3.09346   3.21872   3.30714   3.34354
 Alpha virt. eigenvalues --    3.44882   3.52794   3.56553   3.94729   4.15215
          Condensed to atoms (all electrons):
              1          2          3          4          5          6
  1  N    8.103357  -0.535032   0.159748   0.023624  -0.439576  -0.046074
  2  N   -0.535032   8.093896  -0.276793  -0.184546   0.284561  -0.225666
  3  N    0.159748  -0.276793   6.769586   0.514713  -0.221109   0.308917
  4  H    0.023624  -0.184546   0.514713   0.758381  -0.008025  -0.107695
  5  N   -0.439576   0.284561  -0.221109  -0.008025   7.485031   0.376906
  6  C   -0.046074  -0.225666   0.308917  -0.107695   0.376906   4.321780
  7  H   -0.015791  -0.001758  -0.077880   0.010133  -0.037395   0.230299
              7
  1  N   -0.015791
  2  N   -0.001758
  3  N   -0.077880
  4  H    0.010133
  5  N   -0.037395
  6  C    0.230299
  7  H    1.004847
 Total atomic charges:
              1
  1  N   -0.250255
  2  N   -0.154664
  3  N   -0.177183
  4  H   -0.006584
  5  N   -0.440393
  6  C    1.141533
  7  H   -0.112455
 Sum of Mulliken charges=   0.00000
 Atomic charges with hydrogens summed into heavy atoms:
              1
  1  N   -0.250255
  2  N   -0.154664
  3  N   -0.183767
  4  H    0.000000
  5  N   -0.440393
  6  C    1.029078
  7  H    0.000000
 Sum of Mulliken charges=   0.00000
 Electronic spatial extent (au):  <R**2>=   245.9296
 Charge=     0.0000 electrons
 Dipole moment (Debye):
    X=     2.6358    Y=     4.8892    Z=     0.0000  Tot=     5.5544
 Quadrupole moment (Debye-Ang):
   XX=   -28.8994   YY=   -26.7661   ZZ=   -29.0565
   XY=     2.0307   XZ=     0.0000   YZ=     0.0000
 Octapole moment (Debye-Ang**2):
  XXX=    12.7460  YYY=    22.9188  ZZZ=     0.0000  XYY=    -0.8054
  XXY=     5.1092  XXZ=     0.0000  XZZ=    -0.4834  YZZ=     0.8248
  YYZ=     0.0000  XYZ=     0.0000
 Hexadecapole moment (Debye-Ang**3):
 XXXX=  -141.3092 YYYY=  -120.2069 ZZZZ=   -28.1102 XXXY=     7.2847
 XXXZ=     0.0000 YYYX=     0.1905 YYYZ=     0.0000 ZZZX=     0.0000
 ZZZY=     0.0000 XXYY=   -53.8351 XXZZ=   -31.1089 YYZZ=   -29.7552
 XXYZ=     0.0000 YYXZ=     0.0000 ZZXY=     0.2010
 N-N= 1.695809390627D+02 E-N=-9.406624687227D+02  KE= 2.566610035765D+02
 Symmetry A'   KE= 2.476741658004D+02
 Symmetry A"   KE= 8.986837776120D+00
  Exact polarizability:  40.897   0.312  41.218   0.000   0.000  24.865
 Approx polarizability:  40.369   0.279  42.388   0.000   0.000  26.363
 Full mass-weighted force constant matrix:
 Low frequencies ---   -9.1462    0.0003    0.0012    0.0013    4.8420   11.4573
 Low frequencies ---  609.6406  744.1314  811.1711
 Harmonic frequencies (cm**-1), IR intensities (KM/Mole),
 Raman scattering activities (A**4/AMU), Raman depolarization ratios,
 reduced masses (AMU), force constants (mDyne/A) and normal coordinates:
                     1                      2                      3
                    A"                     A"                     A"
 Frequencies --   609.6406               744.1314               811.1711
 Red. masses --     1.5566                 2.1590                 9.8645
 Frc consts  --     0.3409                 0.7044                 3.8243
 IR Inten    --   106.8410                 4.3440                 6.7182
 Raman Activ --     0.0875                 0.1256                 0.0602
 Depolar     --     0.7500                 0.7500                 0.7500
 Atom AN      X      Y      Z        X      Y      Z        X      Y      Z
   1   7     0.00   0.00  -0.01     0.00   0.00   0.03     0.00   0.00   0.55
   2   7     0.00   0.00  -0.06     0.00   0.00   0.12     0.00   0.00  -0.46
   3   7     0.00   0.00   0.19     0.00   0.00  -0.12     0.00   0.00   0.15
   4   1     0.00   0.00  -0.96     0.00   0.00  -0.76     0.00   0.00   0.53
   5   7     0.00   0.00   0.02     0.00   0.00  -0.17     0.00   0.00  -0.37
   6   6     0.00   0.00  -0.06     0.00   0.00   0.19     0.00   0.00   0.10
   7   1     0.00   0.00  -0.21     0.00   0.00   0.57     0.00   0.00   0.20
                     4                      5                      6
                    A"                     A'                     A'
 Frequencies --  1000.6192              1083.7299              1106.8973
 Red. masses --     1.3891                 4.2976                 7.2895
 Frc consts  --     0.8195                 2.9739                 5.2622
 IR Inten    --    12.9510                 1.6418                 1.7064
 Raman Activ --     0.4022                 1.1061                 1.4089
 Depolar     --     0.7500                 0.6398                 0.6544
 Atom AN      X      Y      Z        X      Y      Z        X      Y      Z
   1   7     0.00   0.00   0.01     0.03   0.18   0.00     0.25  -0.09   0.00
   2   7     0.00   0.00   0.00    -0.16   0.13   0.00     0.24  -0.01   0.00
   3   7     0.00   0.00   0.03    -0.08  -0.03   0.00    -0.03   0.39   0.00
   4   1     0.00   0.00   0.04     0.47   0.00   0.00    -0.05   0.41   0.00
   5   7     0.00   0.00   0.03     0.30  -0.24   0.00    -0.10  -0.24   0.00
   6   6     0.00   0.00  -0.18    -0.12  -0.11   0.00    -0.40  -0.05   0.00
   7   1     0.00   0.00   0.98    -0.35   0.63   0.00    -0.30  -0.48   0.00
                     7                      8                      9
                    A'                     A'                     A'
 Frequencies --  1172.3125              1192.9195              1248.0732
 Red. masses --     3.3888                 2.5247                 2.6222
 Frc consts  --     2.7440                 2.1168                 2.4066
 IR Inten    --    24.9762                32.2959                19.3719
 Raman Activ --     6.6540                 1.2128                 4.7005
 Depolar     --     0.1524                 0.7234                 0.5854
 Atom AN      X      Y      Z        X      Y      Z        X      Y      Z
   1   7     0.17   0.02   0.00    -0.14   0.02   0.00     0.23   0.14   0.00
   2   7     0.16   0.13   0.00     0.21   0.09   0.00    -0.09   0.06   0.00
   3   7    -0.04  -0.25   0.00    -0.15   0.00   0.00    -0.14  -0.07   0.00
   4   1     0.08  -0.26   0.00    -0.93  -0.04   0.00    -0.36  -0.08   0.00
   5   7    -0.20   0.00   0.00     0.09  -0.05   0.00    -0.04   0.02   0.00
   6   6    -0.09   0.07   0.00     0.07  -0.07   0.00     0.06  -0.11   0.00
   7   1    -0.33   0.80   0.00     0.02   0.11   0.00     0.28  -0.81   0.00
                    10                     11                     12
                    A'                     A'                     A'
 Frequencies --  1413.2571              1535.7643              1613.9573
 Red. masses --     2.8648                 5.9347                 3.3600
 Frc consts  --     3.3713                 8.2470                 5.1568
 IR Inten    --     1.4899                29.8994                11.4165
 Raman Activ --    15.6128                27.8061                 8.1631
 Depolar     --     0.0520                 0.0615                 0.5467
 Atom AN      X      Y      Z        X      Y      Z        X      Y      Z
   1   7    -0.08  -0.02   0.00    -0.03   0.40   0.00     0.02   0.03   0.00
   2   7     0.13   0.04   0.00     0.07  -0.36   0.00     0.07  -0.11   0.00
   3   7    -0.06  -0.13   0.00     0.20  -0.06   0.00    -0.18   0.12   0.00
   4   1     0.60  -0.11   0.00    -0.68  -0.13   0.00     0.67   0.19   0.00
   5   7     0.15   0.19   0.00    -0.01   0.08   0.00    -0.07   0.15   0.00
   6   6    -0.21  -0.03   0.00    -0.19  -0.08   0.00     0.13  -0.29   0.00
   7   1    -0.05  -0.69   0.00    -0.31   0.19   0.00    -0.11   0.55   0.00
                    13                     14                     15
                    A'                     A'                     A'
 Frequencies --  1701.4797              3450.9822              3906.0520
 Red. masses --     3.8456                 1.1049                 1.0856
 Frc consts  --     6.5594                 7.7529                 9.7587
 IR Inten    --    22.7982                 0.7448               138.9726
 Raman Activ --     1.7680                63.9701                68.3138
 Depolar     --     0.4074                 0.2522                 0.2229
 Atom AN      X      Y      Z        X      Y      Z        X      Y      Z
   1   7     0.07  -0.17   0.00     0.00   0.00   0.00     0.00   0.00   0.00
   2   7    -0.13   0.15   0.00     0.00   0.00   0.00     0.00   0.00   0.00
   3   7     0.18   0.02   0.00     0.00   0.00   0.00     0.01  -0.08   0.00
   4   1    -0.75  -0.03   0.00     0.01   0.02   0.00    -0.06   1.00   0.00
   5   7     0.05   0.20   0.00     0.00   0.00   0.00     0.00   0.00   0.00
   6   6    -0.11  -0.26   0.00     0.09   0.03   0.00     0.00   0.00   0.00
   7   1    -0.34   0.30   0.00    -0.95  -0.29   0.00     0.01   0.00   0.00

 -------------------
 - Thermochemistry -
 -------------------
 Temperature   298.150 Kelvin.  Pressure   1.00000 Atm.
 Atom  1 has atomic number  7 and mass  14.00307
 Atom  2 has atomic number  7 and mass  14.00307
 Atom  3 has atomic number  7 and mass  14.00307
 Atom  4 has atomic number  1 and mass   1.00783
 Atom  5 has atomic number  7 and mass  14.00307
 Atom  6 has atomic number  6 and mass  12.00000
 Atom  7 has atomic number  1 and mass   1.00783
 Molecular mass:    70.02795 amu.
 Principal axes and moments of inertia in atomic units:
                           1         2         3
     EIGENVALUES --   165.83749 168.53098 334.36846
           X            0.92343   0.38378   0.00000
           Y           -0.38378   0.92343   0.00000
           Z            0.00000   0.00000   1.00000
 THIS MOLECULE IS AN ASYMMETRIC TOP.
 ROTATIONAL SYMMETRY NUMBER  1.
 ROTATIONAL TEMPERATURES (KELVIN)      0.52228     0.51393     0.25904
 ROTATIONAL CONSTANTS (GHZ)           10.88259    10.70866     5.39746
 Zero-point vibrational energy     135124.1 (Joules/Mol)
                                   32.29544 (Kcal/Mol)
 WARNING-- EXPLICIT CONSIDERATION OF   1 DEGREES OF FREEDOM AS
           VIBRATIONS MAY CAUSE SIGNIFICANT ERROR
 VIBRATIONAL TEMPERATURES:    877.13  1070.63  1167.09  1439.66  1559.24
          (KELVIN)           1592.57  1686.69  1716.34  1795.69  2033.35
                             2209.61  2322.11  2448.04  4965.17  5619.91
 
 Zero-point correction=                           0.051466 (Hartree/Particle)
 Thermal correction to Energy=                    0.054779
 Thermal correction to Enthalpy=                  0.055723
 Thermal correction to Gibbs Free Energy=         0.025467
 Sum of electronic and zero-point Energies=           -256.746524
 Sum of electronic and thermal Energies=              -256.743212
 Sum of electronic and thermal Enthalpies=            -256.742268
 Sum of electronic and thermal Free Energies=         -256.772524
 
                     E (Thermal)             CV                S
                      KCAL/MOL        CAL/MOL-KELVIN    CAL/MOL-KELVIN
 TOTAL                   34.374             10.160             63.679
 ELECTRONIC               0.000              0.000              0.000
 TRANSLATIONAL            0.889              2.981             38.656
 ROTATIONAL               0.889              2.981             23.751
 VIBRATIONAL             32.597              4.198              1.272
 VIBRATION  1             0.969              1.011              0.433
                       Q            LOG10(Q)             LN(Q)
 TOTAL BOT       0.193308D-11        -11.713749        -26.971904
 TOTAL V=0       0.909569D+12         11.958836         27.536237
 VIB (BOT)       0.242516D-23        -23.615260        -54.376146
 VIB (BOT)  1    0.242501D+00         -0.615287         -1.416750
 VIB (V=0)       0.114110D+01          0.057325          0.131995
 VIB (V=0)  1    0.105570D+01          0.023542          0.054208
 ELECTRONIC      0.100000D+01          0.000000          0.000000
 TRANSLATIONAL   0.230339D+08          7.362368         16.952478
 ROTATIONAL      0.346053D+05          4.539143         10.451764
 ***** Axes restored to original set *****
 -------------------------------------------------------------------
 Center     Atomic                   Forces (Hartrees/Bohr)
 Number     Number              X              Y              Z
 -------------------------------------------------------------------
    1          7           0.000159207   -0.000045595    0.000000000
    2          7           0.000093610    0.000094384    0.000000000
    3          7          -0.000116915    0.000063358    0.000000000
    4          1           0.000003397   -0.000003046    0.000000000
    5          7          -0.000026887   -0.000117534    0.000000000
    6          6          -0.000096079    0.000010303    0.000000000
    7          1          -0.000016334   -0.000001870    0.000000000
 -------------------------------------------------------------------
 Cartesian Forces:  Max     0.000159207 RMS     0.000064345

 GradGradGradGradGradGradGradGradGradGradGradGradGradGradGradGradGradGrad
 Berny optimization.
 Internal  Forces:  Max     0.000144153 RMS     0.000055327
 Search for a local minimum.
 Step number   1 out of a maximum of  36
 All quantities printed in internal units (Hartrees-Bohrs-Radians)
 Second derivative matrix not updated -- analytic derivatives used.
     Eigenvalues ---    0.00887   0.03208   0.08387   0.09042   0.11993
     Eigenvalues ---    0.12466   0.25788   0.31212   0.41642   0.42554
     Eigenvalues ---    0.53136   0.54209   0.58900   0.69474   0.77423
     Eigenvalues --- 1000.000001000.000001000.000001000.000001000.00000
     Eigenvalues --- 1000.000001000.000001000.000001000.000001000.00000
     Eigenvalues --- 1000.00000
 Angle between quadratic step and forces=  18.98 degrees.
 Linear search not attempted -- first point.
 Iteration  1 RMS(Cart)=  0.00009434 RMS(Int)=  0.00000001
 Iteration  2 RMS(Cart)=  0.00000001 RMS(Int)=  0.00000000
 Variable       Old X    -DE/DX   Delta X   Delta X   Delta X     New X
                                 (Linear)    (Quad)   (Total)
    R1        2.36925   0.00006   0.00000   0.00011   0.00011   2.36936
    R2        2.53830  -0.00005   0.00000  -0.00010  -0.00010   2.53820
    R3        2.50588  -0.00014   0.00000  -0.00025  -0.00025   2.50564
    R4        1.88021   0.00000   0.00000   0.00000   0.00000   1.88021
    R5        2.51764   0.00006   0.00000   0.00005   0.00005   2.51770
    R6        2.44301  -0.00003   0.00000  -0.00001  -0.00001   2.44299
    R7        2.02838  -0.00001   0.00000  -0.00003  -0.00003   2.02835
    A1        1.94377   0.00012   0.00000   0.00019   0.00019   1.94396
    A2        1.86372  -0.00006   0.00000  -0.00009  -0.00009   1.86364
    A3        2.11131   0.00001   0.00000   0.00011   0.00011   2.11142
    A4        1.88497  -0.00001   0.00000  -0.00001  -0.00001   1.88496
    A5        2.28691   0.00000   0.00000  -0.00010  -0.00010   2.28681
    A6        1.84431  -0.00014   0.00000  -0.00022  -0.00022   1.84409
    A7        1.88800   0.00008   0.00000   0.00013   0.00013   1.88814
    A8        2.18312  -0.00003   0.00000  -0.00005  -0.00005   2.18307
    A9        2.21206  -0.00005   0.00000  -0.00008  -0.00008   2.21198
    D1        0.00000   0.00000   0.00000   0.00000   0.00000   0.00000
    D2        0.00000   0.00000   0.00000   0.00000   0.00000   0.00000
    D3        3.14159   0.00000   0.00000   0.00000   0.00000   3.14159
    D4        0.00000   0.00000   0.00000   0.00000   0.00000   0.00000
    D5        0.00000   0.00000   0.00000   0.00000   0.00000   0.00000
    D6        3.14159   0.00000   0.00000   0.00000   0.00000   3.14159
    D7        3.14159   0.00000   0.00000   0.00000   0.00000   3.14159
    D8        0.00000   0.00000   0.00000   0.00000   0.00000   0.00000
    D9        0.00000   0.00000   0.00000   0.00000   0.00000   0.00000
   D10        3.14159   0.00000   0.00000   0.00000   0.00000   3.14159
         Item               Value     Threshold  Converged?
 Maximum Force            0.000144     0.000450     YES
 RMS     Force            0.000055     0.000300     YES
 Maximum Displacement     0.000260     0.001800     YES
 RMS     Displacement     0.000094     0.001200     YES
 Predicted change in Energy=-6.417489D-08
 Optimization completed.
    -- Stationary point found.
                         ----------------------------
                         !   Optimized Parameters   !
                         ! (Angstroms and Degrees)  !
 ------------------------                            -------------------------
 ! Name  Definition              Value          Derivative Info.             !
 -----------------------------------------------------------------------------
 ! R1    R(1,2)                  1.2538         -DE/DX =    0.0001           !
 ! R2    R(1,5)                  1.3432         -DE/DX =   -0.0001           !
 ! R3    R(2,3)                  1.3261         -DE/DX =   -0.0001           !
 ! R4    R(3,4)                  0.995          -DE/DX =    0.               !
 ! R5    R(3,6)                  1.3323         -DE/DX =    0.0001           !
 ! R6    R(5,6)                  1.2928         -DE/DX =    0.               !
 ! R7    R(6,7)                  1.0734         -DE/DX =    0.               !
 ! A1    A(2,1,5)              111.37           -DE/DX =    0.0001           !
 ! A2    A(1,2,3)              106.7836         -DE/DX =   -0.0001           !
 ! A3    A(2,3,4)              120.9691         -DE/DX =    0.               !
 ! A4    A(2,3,6)              108.0007         -DE/DX =    0.               !
 ! A5    A(4,3,6)              131.0302         -DE/DX =    0.               !
 ! A6    A(1,5,6)              105.6713         -DE/DX =   -0.0001           !
 ! A7    A(3,6,5)              108.1745         -DE/DX =    0.0001           !
 ! A8    A(3,6,7)              125.0835         -DE/DX =    0.               !
 ! A9    A(5,6,7)              126.742          -DE/DX =    0.               !
 ! D1    D(5,1,2,3)              0.             -DE/DX =    0.               !
 ! D2    D(2,1,5,6)              0.             -DE/DX =    0.               !
 ! D3    D(1,2,3,4)            180.             -DE/DX =    0.               !
 ! D4    D(1,2,3,6)              0.             -DE/DX =    0.               !
 ! D5    D(2,3,6,5)              0.             -DE/DX =    0.               !
 ! D6    D(2,3,6,7)            180.             -DE/DX =    0.               !
 ! D7    D(4,3,6,5)            180.             -DE/DX =    0.               !
 ! D8    D(4,3,6,7)              0.             -DE/DX =    0.               !
 ! D9    D(1,5,6,3)              0.             -DE/DX =    0.               !
 ! D10   D(1,5,6,7)            180.             -DE/DX =    0.               !
 -----------------------------------------------------------------------------
 GradGradGradGradGradGradGradGradGradGradGradGradGradGradGradGradGradGrad

 1\1\GINC-PLUMBUM\Freq\RHF\Aug-CC-pVDZ\C1H2N4\RDJ3\28-Jul-2001\0\\#N GE
 OM=ALLCHECK GUESS=TCHECK RHF/AUG-CC-PVDZ FREQ\\1H tetrazole c CH-NH-N=
 N-N= casno=288948\\0,1\N,-1.1248991151,-0.2548600174,0.\N,-0.671474534
 5,0.9140295548,0.\N,0.6506419123,0.811875136,0.\H,1.22682659,1.6230255
 674,0.\N,-0.1357179663,-1.1635592983,0.\C,0.9635206625,-0.4831446984,0
 .\H,1.9621973601,-0.8765550024,0.\\Version=IBM-RS6000-G98RevA.6\State=
 1-A'\HF=-256.7979905\RMSD=1.893e-09\RMSF=6.435e-05\Dipole=2.0121271,0.
 8524942,0.\DipoleDeriv=0.0090164,-0.217693,0.,-0.1904946,0.1030363,0.,
 0.,0.,-0.1526774,0.2522951,0.3268516,0.,0.1921421,-0.3578671,0.,0.,0.,
 -0.0970643,-0.4044158,-0.3334992,0.,-0.2405651,-0.3214586,0.,0.,0.,-0.
 1736616,0.2429395,0.0702589,0.,0.0549665,0.3084357,0.,0.,0.,0.3536826,
 -0.5169075,0.1696898,0.,-0.0307532,-0.3648795,0.,0.,0.,-0.2468058,0.35
 87713,-0.0212541,0.,0.2017555,0.515233,0.,0.,0.,0.1478457,0.0583009,0.
 005646,0.,0.0129489,0.1175002,0.,0.,0.,0.1686808\Polar=41.3272688,0.22
 5095,40.7877823,0.,0.,24.8650845\PolarDeriv=-7.5487539,-2.6849443,-3.6
 295156,0.,0.,-2.2791553,-4.2079837,3.5918014,-5.6490965,0.,0.,-1.22013
 64,0.,0.,0.,-2.6756864,-1.123267,0.,-0.9930737,0.4746864,-2.0084993,0.
 ,0.,-0.2151724,5.3097297,-4.2846529,9.5690637,0.,0.,1.9989349,0.,0.,0.
 ,-1.2560708,2.5649649,0.,-1.0275008,-0.2427048,1.0679801,0.,0.,-0.0188
 119,2.1625581,0.6674325,-1.0380553,0.,0.,1.9838929,0.,0.,0.,0.9302559,
 2.0886462,0.,2.9556074,2.3580606,2.6032672,0.,0.,0.5302155,2.3925356,2
 .6539409,5.6271576,0.,0.,0.6609624,0.,0.,0.,0.2836603,0.3416962,0.,-4.
 1131406,3.5981369,-3.3414561,0.,0.,-2.0278995,-3.1668675,-1.4428719,-7
 .9351597,0.,0.,-2.5882966,0.,0.,0.,-1.0682255,-2.3988574,0.,3.2571173,
 -1.2757396,3.6431499,0.,0.,3.0021239,-0.3513495,-3.0238986,1.0216333,0
 .,0.,-0.4108308,0.,0.,0.,3.6740051,-1.3666184,0.,7.4697443,-2.2274952,
 1.6650737,0.,0.,1.0086998,-2.1386227,1.8382486,-1.5955431,0.,0.,-0.424
 5265,0.,0.,0.,0.1120615,-0.1065646,0.\HyperPolar=16.432912,-4.8980443,
 -7.9845569,1.1559998,0.,0.,0.,8.8919844,-8.9390372,0.\PG=CS [SG(C1H2N4
 )]\NImag=0\\0.68919618,0.13786871,0.67240852,0.,0.,0.15022099,-0.19385
 647,-0.15435247,0.,0.55573286,-0.10210615,-0.47874245,0.,-0.00357375,0
 .82663982,0.,0.,-0.11828807,0.,0.,0.13978468,-0.12852119,-0.13502358,0
 .,-0.29268155,0.02531958,0.,0.82102166,-0.03506221,-0.08285433,0.,0.07
 656014,-0.14416135,0.,0.22311773,1.08246552,0.,0.,0.03435040,0.,0.,-0.
 08260808,0.,0.,0.10700651,-0.01262746,0.00115417,0.,-0.00581436,-0.038
 55330,0.,-0.23078419,-0.19882243,0.,0.22889427,0.00826175,0.00452140,0
 .,0.00131609,0.01501669,0.,-0.21103018,-0.39117950,0.,0.22201582,0.382
 70819,0.,0.,0.00836769,0.,0.,-0.01370478,0.,0.,-0.00662385,0.,0.,0.014
 87088,-0.21404233,0.07094977,0.,0.01494667,0.11387405,0.,-0.00922088,-
 0.14379601,0.,0.00246868,0.00138686,0.,0.60477044,0.04052254,-0.173664
 07,0.,-0.02467084,-0.14295122,0.,0.00833678,-0.09552706,0.,0.00927422,
 -0.00703081,0.,0.12006893,0.65859146,0.,0.,-0.10743640,0.,0.,0.0436207
 9,0.,0.,0.02526193,0.,0.,0.00880667,0.,0.,0.13086217,-0.13643102,0.081
 18642,0.,-0.07920449,0.00793301,0.,-0.16587122,0.08143070,0.,0.0184096
 0,-0.02272603,0.,-0.38354236,-0.16710929,0.,1.10183383,-0.04238282,0.0
 5908374,0.,0.10596832,-0.06822619,0.,0.05245460,-0.36507705,0.,0.00527
 933,-0.00393012,0.,-0.14321577,-0.25703216,0.,-0.09402540,0.74989922,0
 .,0.,0.02208538,0.,0.,0.02401144,0.,0.,-0.07711571,0.,0.,-0.01047374,0
 .,0.,-0.09750588,0.,0.,0.18217494,-0.00371771,-0.00178302,0.,0.0008773
 4,-0.00289343,0.,0.00605736,-0.00342793,0.,-0.00054653,0.00077568,0.,-
 0.01538023,0.01357766,0.,-0.35519434,0.11592174,0.,0.36790411,-0.00710
 183,-0.00075281,0.,-0.00124749,-0.00757530,0.,0.03682507,-0.00366623,0
 .,-0.00034781,-0.00010586,0.,-0.01926784,0.01761386,0.,0.11331059,-0.1
 1471745,0.,-0.12217070,0.10920380,0.,0.,0.01070000,0.,0.,0.00718401,0.
 ,0.,-0.00027120,0.,0.,-0.00124287,0.,0.,-0.00360927,0.,0.,-0.04317643,
 0.,0.,0.03041576\\-0.00015921,0.00004559,0.,-0.00009361,-0.00009438,0.
 ,0.00011691,-0.00006336,0.,-0.00000340,0.00000305,0.,0.00002689,0.0001
 1753,0.,0.00009608,-0.00001030,0.,0.00001633,0.00000187,0.\\\@


 You can't act like a skunk without someone's getting wind of it.
 -- Lorene Workman
 Job cpu time:  0 days  0 hours 46 minutes  7.1 seconds.
 File lengths (MBytes):  RWF=   27 Int=    0 D2E=    0 Chk=    4 Scr=    1
 Normal termination of Gaussian 98.
