 Entering Gaussian System, Link 0=g98
 Initial command:
 /usr/local/apps/g98a6/g98/l1.exe /wrk/rdj3/Gau-15552.inp -scrdir=/wrk/rdj3/
 Entering Link 1 = /usr/local/apps/g98a6/g98/l1.exe PID=     18172.
  
 Copyright (c) 1988,1990,1992,1993,1995,1998 Gaussian, Inc.
                  All Rights Reserved.
  
 This is part of the Gaussian(R) 98 program.  It is based on
 the Gaussian 94(TM) system (copyright 1995 Gaussian, Inc.),
 the Gaussian 92(TM) system (copyright 1992 Gaussian, Inc.),
 the Gaussian 90(TM) system (copyright 1990 Gaussian, Inc.),
 the Gaussian 88(TM) system (copyright 1988 Gaussian, Inc.),
 the Gaussian 86(TM) system (copyright 1986 Carnegie Mellon
 University), and the Gaussian 82(TM) system (copyright 1983
 Carnegie Mellon University). Gaussian is a federally registered
 trademark of Gaussian, Inc.
  
 This software contains proprietary and confidential information,
 including trade secrets, belonging to Gaussian, Inc.
  
 This software is provided under written license and may be
 used, copied, transmitted, or stored only in accord with that
 written license.
  
 The following legend is applicable only to US Government
 contracts under DFARS:
  
                    RESTRICTED RIGHTS LEGEND
  
 Use, duplication or disclosure by the US Government is subject
 to restrictions as set forth in subparagraph (c)(1)(ii) of the
 Rights in Technical Data and Computer Software clause at DFARS
 252.227-7013.
  
 Gaussian, Inc.
 Carnegie Office Park, Building 6, Pittsburgh, PA 15106 USA
  
 The following legend is applicable only to US Government
 contracts under FAR:
  
                    RESTRICTED RIGHTS LEGEND
  
 Use, reproduction and disclosure by the US Government is subject
 to restrictions as set forth in subparagraph (c) of the
 Commercial Computer Software - Restricted Rights clause at FAR
 52.227-19.
  
 Gaussian, Inc.
 Carnegie Office Park, Building 6, Pittsburgh, PA 15106 USA
  
  
 ---------------------------------------------------------------
 Warning -- This program may not be used in any manner that
 competes with the business of Gaussian, Inc. or will provide
 assistance to any competitor of Gaussian, Inc.  The licensee
 of this program is prohibited from giving any competitor of
 Gaussian, Inc. access to this program.  By using this program,
 the user acknowledges that Gaussian, Inc. is engaged in the
 business of creating and licensing software in the field of
 computational chemistry and represents and warrants to the
 licensee that it is not a competitor of Gaussian, Inc. and that
 it will not use this program in any manner prohibited above.
 ---------------------------------------------------------------
  

 Cite this work as:
 Gaussian 98, Revision A.6,
 M. J. Frisch, G. W. Trucks, H. B. Schlegel, G. E. Scuseria, 
 M. A. Robb, J. R. Cheeseman, V. G. Zakrzewski, J. A. Montgomery, Jr., 
 R. E. Stratmann, J. C. Burant, S. Dapprich, J. M. Millam, 
 A. D. Daniels, K. N. Kudin, M. C. Strain, O. Farkas, J. Tomasi, 
 V. Barone, M. Cossi, R. Cammi, B. Mennucci, C. Pomelli, C. Adamo, 
 S. Clifford, J. Ochterski, G. A. Petersson, P. Y. Ayala, Q. Cui, 
 K. Morokuma, D. K. Malick, A. D. Rabuck, K. Raghavachari, 
 J. B. Foresman, J. Cioslowski, J. V. Ortiz, B. B. Stefanov, G. Liu, 
 A. Liashenko, P. Piskorz, I. Komaromi, R. Gomperts, R. L. Martin, 
 D. J. Fox, T. Keith, M. A. Al-Laham, C. Y. Peng, A. Nanayakkara, 
 C. Gonzalez, M. Challacombe, P. M. W. Gill, B. Johnson, W. Chen, 
 M. W. Wong, J. L. Andres, C. Gonzalez, M. Head-Gordon, 
 E. S. Replogle, and J. A. Pople, 
 Gaussian, Inc., Pittsburgh PA, 1998.

 **********************************************
 Gaussian 98:  IBM-RS6000-G98RevA.6 19-Oct-1998
                  31-Aug-2000 
 **********************************************
 %mem=24000000
 ---------------------
 #HF/CEP-121G opt freq
 ---------------------
 1/18=20,38=1/1,3;
 2/9=110,17=6,18=5/2;
 3/5=9,6=2,11=9,16=1,25=1,30=1/1,2,3;
 4/11=1/1;
 5/5=2,38=4/2;
 6/7=2,8=2,9=2,10=2,28=1/1;
 7//1,2,3,16;
 1/18=20/3(1);
 99//99;
 2/9=110/2;
 3/5=9,6=2,11=9,16=1,25=1,30=1/1,2,3;
 4/5=5,11=1,16=2/1;
 5/5=2,38=4/2;
 7//1,2,3,16;
 1/18=20/3(-5);
 2/9=110/2;
 6/7=2,8=2,9=2,10=2,19=2,28=1/1;
 99/9=1/99;
 ----------------------------------------
 1H tetrazole c CH-NH-N=N-N= casno=288948
 ----------------------------------------
 Symbolic Z-matrix:
 Charge =  0 Multiplicity = 1
 7                    -1.12329  -0.25456   0. 
 7                    -0.67158   0.91328   0. 
 7                     0.65055   0.80984   0. 
 1                     1.224     1.62189   0. 
 7                    -0.13465  -1.16105   0. 
 6                     0.96218  -0.48332   0. 
 1                     1.95569  -0.87454   0. 

 GradGradGradGradGradGradGradGradGradGradGradGradGradGradGradGradGradGrad
 Berny optimization.
 Initialization pass.
                         ----------------------------
                         !    Initial Parameters    !
                         ! (Angstroms and Degrees)  !
 ------------------------                            -------------------------
 ! Name  Definition              Value          Derivative Info.             !
 -----------------------------------------------------------------------------
 ! R1    R(1,2)                  1.2522         estimate D2E/DX2             !
 ! R2    R(1,5)                  1.3413         estimate D2E/DX2             !
 ! R3    R(2,3)                  1.3262         estimate D2E/DX2             !
 ! R4    R(3,4)                  0.9941         estimate D2E/DX2             !
 ! R5    R(3,6)                  1.3302         estimate D2E/DX2             !
 ! R6    R(5,6)                  1.2893         estimate D2E/DX2             !
 ! R7    R(6,7)                  1.0678         estimate D2E/DX2             !
 ! A1    A(2,1,5)              111.3714         estimate D2E/DX2             !
 ! A2    A(1,2,3)              106.673          estimate D2E/DX2             !
 ! A3    A(2,3,4)              120.7559         estimate D2E/DX2             !
 ! A4    A(2,3,6)              108.0227         estimate D2E/DX2             !
 ! A5    A(4,3,6)              131.2214         estimate D2E/DX2             !
 ! A6    A(1,5,6)              105.77           estimate D2E/DX2             !
 ! A7    A(3,6,5)              108.1628         estimate D2E/DX2             !
 ! A8    A(3,6,7)              125.0426         estimate D2E/DX2             !
 ! A9    A(5,6,7)              126.7945         estimate D2E/DX2             !
 ! D1    D(5,1,2,3)              0.             estimate D2E/DX2             !
 ! D2    D(2,1,5,6)              0.             estimate D2E/DX2             !
 ! D3    D(1,2,3,4)            180.             estimate D2E/DX2             !
 ! D4    D(1,2,3,6)              0.             estimate D2E/DX2             !
 ! D5    D(2,3,6,5)              0.             estimate D2E/DX2             !
 ! D6    D(2,3,6,7)            180.             estimate D2E/DX2             !
 ! D7    D(4,3,6,5)            180.             estimate D2E/DX2             !
 ! D8    D(4,3,6,7)              0.             estimate D2E/DX2             !
 ! D9    D(1,5,6,3)              0.             estimate D2E/DX2             !
 ! D10   D(1,5,6,7)            180.             estimate D2E/DX2             !
 -----------------------------------------------------------------------------
 Trust Radius=3.00D-01 FncErr=1.00D-07 GrdErr=1.00D-07
 Number of steps in this run=  36 maximum allowed number of steps= 100.
 GradGradGradGradGradGradGradGradGradGradGradGradGradGradGradGradGradGrad

                          Input orientation:                          
 ---------------------------------------------------------------------
 Center     Atomic     Atomic              Coordinates (Angstroms)
 Number     Number      Type              X           Y           Z
 ---------------------------------------------------------------------
    1          7             0       -1.123293   -0.254560    0.000000
    2          7             0       -0.671576    0.913277    0.000000
    3          7             0        0.650545    0.809842    0.000000
    4          1             0        1.224004    1.621891    0.000000
    5          7             0       -0.134646   -1.161053    0.000000
    6          6             0        0.962183   -0.483316    0.000000
    7          1             0        1.955691   -0.874535    0.000000
 ---------------------------------------------------------------------
                    Distance matrix (angstroms):
                    1          2          3          4          5
     1  N    0.000000
     2  N    1.252155   0.000000
     3  N    2.068684   1.326161   0.000000
     4  H    3.005141   2.023699   0.994122   0.000000
     5  N    1.341325   2.142694   2.121545   3.096887   0.000000
     6  C    2.097985   2.149335   1.330179   2.121426   1.289326
     7  H    3.140782   3.177861   2.130852   2.601444   2.109882
                    6          7
     6  C    0.000000
     7  H    1.067760   0.000000
 Stoichiometry    CH2N4
 Framework group  CS[SG(CH2N4)]
 Deg. of freedom   11
 Full point group                 CS      NOp   2
 Largest Abelian subgroup         CS      NOp   2
 Largest concise Abelian subgroup C1      NOp   1
                         Standard orientation:                         
 ---------------------------------------------------------------------
 Center     Atomic     Atomic              Coordinates (Angstroms)
 Number     Number      Type              X           Y           Z
 ---------------------------------------------------------------------
    1          7             0       -0.716312   -0.901934    0.000000
    2          7             0       -1.095520    0.291420    0.000000
    3          7             0        0.000000    1.038775    0.000000
    4          1             0       -0.061479    2.030994    0.000000
    5          7             0        0.622151   -0.989495    0.000000
    6          6             0        1.052813    0.225779    0.000000
    7          1             0        2.072370    0.542976    0.000000
 ---------------------------------------------------------------------
 Rotational constants (GHZ):     10.9198679     10.7343949      5.4131685
 Isotopes: N-14,N-14,N-14,H-1,N-14,C-12,H-1
 Standard basis: CEP-121G (6D, 10F)
 There are    51 symmetry adapted basis functions of A'  symmetry.
 There are    15 symmetry adapted basis functions of A"  symmetry.
 Crude estimate of integral set expansion from redundant integrals=1.000.
 Integral buffers will be    262144 words long.
 Raffenetti 1 integral format.
 Two-electron integral symmetry is turned on.
    66 basis functions       90 primitive gaussians
    13 alpha electrons       13 beta electrons
       nuclear repulsion energy        88.4010355002 Hartrees.
 One-electron integrals computed using PRISM.
   1 Symmetry operations used in ECPInt.
 ECPInt:  NShTT=     231 NPrTT=     476 LenC2=     232 LenP2D=     457.
 LDataN:  DoStor=F MaxTD1= 2 Len=   12
 LDataN:  DoStor=T MaxTD1= 2 Len=   12
 NBasis=    66 RedAO= T  NBF=    51    15
 NBsUse=    66 1.00D-04 NBFU=    51    15
 Projected Huckel Guess.
 Initial guess orbital symmetries:
       Occupied  (A') (A') (A') (A') (A') (A') (A") (A') (A") (A')
                 (A") (A') (A')
       Virtual   (A") (A") (A') (A') (A') (A') (A') (A') (A') (A')
                 (A') (A') (A') (A') (A') (A') (A') (A') (A') (A')
                 (A') (A') (A') (A') (A') (A') (A') (A') (A') (A')
                 (A') (A') (A') (A') (A') (A') (A') (A') (A') (A')
                 (A') (A') (A') (A") (A") (A") (A") (A") (A") (A")
                 (A") (A") (A")
 Requested convergence on RMS density matrix=1.00D-08 within  64 cycles.
 Requested convergence on MAX density matrix=1.00D-06.
 Keep R1 integrals in memory in canonical form, NReq=     2864439.
 SCF Done:  E(RHF) =  -45.1454271938     A.U. after   15 cycles
             Convg  =    0.5151D-08             -V/T =  2.2908
             S**2   =   0.0000

 **********************************************************************

            Population analysis using the SCF density.

 **********************************************************************

 Orbital Symmetries:
       Occupied  (A') (A') (A') (A') (A') (A') (A") (A') (A') (A')
                 (A") (A') (A")
       Virtual   (A') (A") (A') (A") (A') (A') (A') (A') (A") (A')
                 (A') (A') (A') (A') (A") (A') (A") (A') (A') (A")
                 (A") (A') (A') (A') (A') (A') (A') (A') (A') (A')
                 (A') (A') (A') (A") (A') (A') (A') (A") (A') (A")
                 (A') (A") (A") (A') (A') (A') (A') (A') (A') (A')
                 (A') (A') (A')
  The electronic state is 1-A'.
 Alpha  occ. eigenvalues --   -1.58732  -1.30953  -1.25748  -0.93725  -0.91955
 Alpha  occ. eigenvalues --   -0.82998  -0.71151  -0.69732  -0.57728  -0.48071
 Alpha  occ. eigenvalues --   -0.47787  -0.46361  -0.44406
 Alpha virt. eigenvalues --    0.11407   0.12189   0.15870   0.17484   0.25994
 Alpha virt. eigenvalues --    0.27274   0.35250   0.42252   0.42828   0.50626
 Alpha virt. eigenvalues --    0.53483   0.58118   0.61422   0.62713   0.64544
 Alpha virt. eigenvalues --    0.66937   0.67980   0.71052   0.73606   0.78098
 Alpha virt. eigenvalues --    0.81829   0.83272   0.84788   0.86261   0.93866
 Alpha virt. eigenvalues --    0.94994   0.98284   1.05215   1.08881   1.19519
 Alpha virt. eigenvalues --    1.20631   2.56624   2.59916   5.72494   6.13274
 Alpha virt. eigenvalues --    6.27262   8.23156   8.27085   8.33598   8.37833
 Alpha virt. eigenvalues --    8.37962   8.58545   8.68359   8.68671   8.96872
 Alpha virt. eigenvalues --    9.01878   9.16212   9.44434  32.86455  48.26471
 Alpha virt. eigenvalues --   48.64417  49.14425  49.50430
          Condensed to atoms (all electrons):
              1          2          3          4          5          6
  1  N    4.766768   0.225104  -0.036907   0.013975   0.285554  -0.171687
  2  N    0.225104   4.904643   0.045387  -0.033636  -0.104593  -0.050094
  3  N   -0.036907   0.045387   4.915602   0.281135  -0.096700   0.257125
  4  H    0.013975  -0.033636   0.281135   0.376696   0.008157  -0.053588
  5  N    0.285554  -0.104593  -0.096700   0.008157   4.496817   0.440367
  6  C   -0.171687  -0.050094   0.257125  -0.053588   0.440367   3.388246
  7  H    0.003279   0.003309  -0.015443   0.000957   0.000069   0.371093
              7
  1  N    0.003279
  2  N    0.003309
  3  N   -0.015443
  4  H    0.000957
  5  N    0.000069
  6  C    0.371093
  7  H    0.405508
 Total atomic charges:
              1
  1  N   -0.086085
  2  N    0.009882
  3  N   -0.350198
  4  H    0.406303
  5  N   -0.029670
  6  C   -0.181461
  7  H    0.231230
 Sum of Mulliken charges=   0.00000
 Atomic charges with hydrogens summed into heavy atoms:
              1
  1  N   -0.086085
  2  N    0.009882
  3  N    0.056105
  4  H    0.000000
  5  N   -0.029670
  6  C    0.049769
  7  H    0.000000
 Sum of Mulliken charges=   0.00000
 Electronic spatial extent (au):  <R**2>=   202.7346
 Charge=     0.0000 electrons
 Dipole moment (Debye):
    X=     2.9602    Y=     5.5101    Z=     0.0000  Tot=     6.2549
 Quadrupole moment (Debye-Ang):
   XX=   -30.2566   YY=   -28.1039   ZZ=   -28.7278
   XY=     2.2230   XZ=     0.0000   YZ=     0.0000
 Octapole moment (Debye-Ang**2):
  XXX=    14.1634  YYY=    25.3651  ZZZ=     0.0000  XYY=    -0.6191
  XXY=     5.7834  XXZ=     0.0000  XZZ=    -0.6292  YZZ=     0.7274
  YYZ=     0.0000  XYZ=     0.0000
 Hexadecapole moment (Debye-Ang**3):
 XXXX=  -141.9338 YYYY=  -120.9222 ZZZZ=   -27.3746 XXXY=     7.7536
 XXXZ=     0.0000 YYYX=     0.1675 YYYZ=     0.0000 ZZZX=     0.0000
 ZZZY=     0.0000 XXYY=   -54.4104 XXZZ=   -30.6797 YYZZ=   -29.4317
 XXYZ=     0.0000 YYXZ=     0.0000 ZZXY=     0.1933
 N-N= 8.840103550019D+01 E-N=-2.806795363741D+02  KE= 3.497351717685D+01
 Symmetry A'   KE= 2.594224695952D+01
 Symmetry A"   KE= 9.031270217330D+00
   2 Symmetry operations used in ECPInt.
 ECPInt:  NShTT=     231 NPrTT=     476 LenC2=     232 LenP2D=     457.
 LDataN:  DoStor=F MaxTD1= 3 Len=   28
 LDataN:  DoStor=T MaxTD1= 3 Len=   28
 ***** Axes restored to original set *****
 -------------------------------------------------------------------
 Center     Atomic                   Forces (Hartrees/Bohr)
 Number     Number              X              Y              Z
 -------------------------------------------------------------------
    1          7          -0.060670304   -0.029613911    0.000000000
    2          7          -0.018463971    0.057859907    0.000000000
    3          7           0.034739617    0.028144836    0.000000000
    4          1          -0.002191092   -0.004267117    0.000000000
    5          7          -0.002546630   -0.042219365    0.000000000
    6          6           0.052185423   -0.009820770    0.000000000
    7          1          -0.003053044   -0.000083580    0.000000000
 -------------------------------------------------------------------
 Cartesian Forces:  Max     0.060670304 RMS     0.026624901

 GradGradGradGradGradGradGradGradGradGradGradGradGradGradGradGradGradGrad
 Berny optimization.
 Internal  Forces:  Max     0.057649472 RMS     0.019638526
 Search for a local minimum.
 Step number   1 out of a maximum of  36
 All quantities printed in internal units (Hartrees-Bohrs-Radians)
 Second derivative matrix not updated -- first step.
     Eigenvalues ---    0.02505   0.02639   0.02674   0.02834   0.16000
     Eigenvalues ---    0.16000   0.22605   0.24688   0.37515   0.48737
     Eigenvalues ---    0.50885   0.56605   0.58506   0.66912   0.78894
     Eigenvalues --- 1000.000001000.000001000.000001000.000001000.00000
     Eigenvalues --- 1000.000001000.000001000.000001000.000001000.00000
     Eigenvalues --- 1000.00000
 RFO step:  Lambda=-1.49394970D-02.
 Linear search not attempted -- first point.
 Iteration  1 RMS(Cart)=  0.02862964 RMS(Int)=  0.00026358
 Iteration  2 RMS(Cart)=  0.00022970 RMS(Int)=  0.00007972
 Iteration  3 RMS(Cart)=  0.00000005 RMS(Int)=  0.00007972
 Variable       Old X    -DE/DX   Delta X   Delta X   Delta X     New X
                                 (Linear)    (Quad)   (Total)
    R1        2.36623   0.05765   0.00000   0.07080   0.07091   2.43714
    R2        2.53474   0.04142   0.00000   0.07285   0.07295   2.60768
    R3        2.50608   0.04388   0.00000   0.07089   0.07087   2.57695
    R4        1.87862  -0.00475   0.00000  -0.00946  -0.00946   1.86916
    R5        2.51367   0.03139   0.00000   0.04861   0.04849   2.56216
    R6        2.43647   0.04280   0.00000   0.05811   0.05807   2.49454
    R7        2.01777  -0.00281   0.00000  -0.00720  -0.00720   2.01057
    A1        1.94380  -0.01106   0.00000  -0.02965  -0.02943   1.91437
    A2        1.86179  -0.00016   0.00000   0.00692   0.00700   1.86879
    A3        2.10759  -0.00148   0.00000  -0.00162  -0.00154   2.10605
    A4        1.88535   0.00422   0.00000   0.01044   0.01029   1.89565
    A5        2.29025  -0.00274   0.00000  -0.00883  -0.00875   2.28149
    A6        1.84604   0.00786   0.00000   0.02768   0.02770   1.87374
    A7        1.88780  -0.00086   0.00000  -0.01540  -0.01557   1.87223
    A8        2.18241   0.00163   0.00000   0.01460   0.01468   2.19709
    A9        2.21298  -0.00078   0.00000   0.00080   0.00088   2.21387
    D1        0.00000   0.00000   0.00000   0.00000   0.00000   0.00000
    D2        0.00000   0.00000   0.00000   0.00000   0.00000   0.00000
    D3        3.14159   0.00000   0.00000   0.00000   0.00000   3.14159
    D4        0.00000   0.00000   0.00000   0.00000   0.00000   0.00000
    D5        0.00000   0.00000   0.00000   0.00000   0.00000   0.00000
    D6        3.14159   0.00000   0.00000   0.00000   0.00000   3.14159
    D7        3.14159   0.00000   0.00000   0.00000   0.00000   3.14159
    D8        0.00000   0.00000   0.00000   0.00000   0.00000   0.00000
    D9        0.00000   0.00000   0.00000   0.00000   0.00000   0.00000
   D10        3.14159   0.00000   0.00000   0.00000   0.00000   3.14159
         Item               Value     Threshold  Converged?
 Maximum Force            0.057649     0.000450     NO 
 RMS     Force            0.019639     0.000300     NO 
 Maximum Displacement     0.092931     0.001800     NO 
 RMS     Displacement     0.028656     0.001200     NO 
 Predicted change in Energy=-7.296068D-03
 GradGradGradGradGradGradGradGradGradGradGradGradGradGradGradGradGradGrad

                          Input orientation:                          
 ---------------------------------------------------------------------
 Center     Atomic     Atomic              Coordinates (Angstroms)
 Number     Number      Type              X           Y           Z
 ---------------------------------------------------------------------
    1          7             0       -1.172470   -0.264062    0.000000
    2          7             0       -0.695785    0.934286    0.000000
    3          7             0        0.663450    0.824495    0.000000
    4          1             0        1.234817    1.631895    0.000000
    5          7             0       -0.137011   -1.176213    0.000000
    6          6             0        0.991332   -0.491100    0.000000
    7          1             0        1.978575   -0.887756    0.000000
 ---------------------------------------------------------------------
                    Distance matrix (angstroms):
                    1          2          3          4          5
     1  N    0.000000
     2  N    1.289676   0.000000
     3  N    2.134375   1.363662   0.000000
     4  H    3.064259   2.052775   0.989119   0.000000
     5  N    1.379926   2.183216   2.154895   3.125282   0.000000
     6  C    2.175681   2.208640   1.355838   2.136912   1.320053
     7  H    3.212177   3.236053   2.159017   2.627131   2.135161
                    6          7
     6  C    0.000000
     7  H    1.063947   0.000000
 Stoichiometry    CH2N4
 Framework group  CS[SG(CH2N4)]
 Deg. of freedom   11
 Full point group                 CS      NOp   2
 Largest Abelian subgroup         CS      NOp   2
 Largest concise Abelian subgroup C1      NOp   1
                         Standard orientation:                         
 ---------------------------------------------------------------------
 Center     Atomic     Atomic              Coordinates (Angstroms)
 Number     Number      Type              X           Y           Z
 ---------------------------------------------------------------------
    1          7             0       -0.757742   -0.959527    0.000000
    2          7             0       -1.131553    0.274787    0.000000
    3          7             0        0.000000    1.035814    0.000000
    4          1             0       -0.056166    2.023337    0.000000
    5          7             0        0.620493   -1.027813    0.000000
    6          6             0        1.076169    0.211097    0.000000
    7          1             0        2.095500    0.515971    0.000000
 ---------------------------------------------------------------------
 Rotational constants (GHZ):     10.4670220     10.1657135      5.1570839
 Isotopes: N-14,N-14,N-14,H-1,N-14,C-12,H-1
 Standard basis: CEP-121G (6D, 10F)
 There are    51 symmetry adapted basis functions of A'  symmetry.
 There are    15 symmetry adapted basis functions of A"  symmetry.
 Crude estimate of integral set expansion from redundant integrals=1.000.
 Integral buffers will be    262144 words long.
 Raffenetti 1 integral format.
 Two-electron integral symmetry is turned on.
    66 basis functions       90 primitive gaussians
    13 alpha electrons       13 beta electrons
       nuclear repulsion energy        86.3848008946 Hartrees.
 One-electron integrals computed using PRISM.
   1 Symmetry operations used in ECPInt.
 ECPInt:  NShTT=     231 NPrTT=     476 LenC2=     232 LenP2D=     456.
 LDataN:  DoStor=F MaxTD1= 2 Len=   12
 LDataN:  DoStor=T MaxTD1= 2 Len=   12
 NBasis=    66 RedAO= T  NBF=    51    15
 NBsUse=    66 1.00D-04 NBFU=    51    15
 Initial guess read from the read-write file:
 Initial guess orbital symmetries:
       Occupied  (A') (A') (A') (A') (A') (A') (A") (A') (A') (A')
                 (A") (A') (A")
       Virtual   (A') (A") (A') (A") (A') (A') (A') (A') (A") (A')
                 (A') (A') (A') (A') (A") (A') (A") (A') (A') (A")
                 (A") (A') (A') (A') (A') (A') (A') (A') (A') (A')
                 (A') (A') (A') (A") (A') (A') (A') (A") (A') (A")
                 (A') (A") (A") (A') (A') (A') (A') (A') (A') (A')
                 (A') (A') (A')
 Requested convergence on RMS density matrix=1.00D-08 within  64 cycles.
 Requested convergence on MAX density matrix=1.00D-06.
 Keep R1 integrals in memory in canonical form, NReq=     2864439.
 SCF Done:  E(RHF) =  -45.1520367447     A.U. after   13 cycles
             Convg  =    0.5169D-08             -V/T =  2.3113
             S**2   =   0.0000
   2 Symmetry operations used in ECPInt.
 ECPInt:  NShTT=     231 NPrTT=     476 LenC2=     232 LenP2D=     456.
 LDataN:  DoStor=F MaxTD1= 3 Len=   28
 LDataN:  DoStor=T MaxTD1= 3 Len=   28
 ***** Axes restored to original set *****
 -------------------------------------------------------------------
 Center     Atomic                   Forces (Hartrees/Bohr)
 Number     Number              X              Y              Z
 -------------------------------------------------------------------
    1          7           0.011018721    0.002741193    0.000000000
    2          7          -0.002453756    0.007597247    0.000000000
    3          7          -0.001108211   -0.004396087    0.000000000
    4          1          -0.000025777    0.001913681    0.000000000
    5          7           0.004100071   -0.011006917    0.000000000
    6          6          -0.011693323    0.004123318    0.000000000
    7          1           0.000162275   -0.000972435    0.000000000
 -------------------------------------------------------------------
 Cartesian Forces:  Max     0.011693323 RMS     0.004925890

 GradGradGradGradGradGradGradGradGradGradGradGradGradGradGradGradGradGrad
 Berny optimization.
 Internal  Forces:  Max     0.010279708 RMS     0.003844182
 Search for a local minimum.
 Step number   2 out of a maximum of  36
 All quantities printed in internal units (Hartrees-Bohrs-Radians)
 Update second derivatives using information from points  1  2
 Trust test= 9.06D-01 RLast= 1.53D-01 DXMaxT set to 4.24D-01
     Eigenvalues ---    0.02503   0.02633   0.02674   0.02833   0.15970
     Eigenvalues ---    0.16013   0.22756   0.25776   0.37536   0.48780
     Eigenvalues ---    0.50952   0.56685   0.59241   0.69910   0.79055
     Eigenvalues --- 1000.000001000.000001000.000001000.000001000.00000
     Eigenvalues --- 1000.000001000.000001000.000001000.000001000.00000
     Eigenvalues --- 1000.00000
 RFO step:  Lambda=-1.16742842D-03.
 Quartic linear search produced a step of -0.08006.
 Iteration  1 RMS(Cart)=  0.01274995 RMS(Int)=  0.00014966
 Iteration  2 RMS(Cart)=  0.00013269 RMS(Int)=  0.00002214
 Iteration  3 RMS(Cart)=  0.00000001 RMS(Int)=  0.00002214
 Variable       Old X    -DE/DX   Delta X   Delta X   Delta X     New X
                                 (Linear)    (Quad)   (Total)
    R1        2.43714   0.00107  -0.00568   0.01264   0.00697   2.44411
    R2        2.60768   0.00090  -0.00584   0.01296   0.00715   2.61484
    R3        2.57695  -0.00373  -0.00567   0.00524  -0.00046   2.57649
    R4        1.86916   0.00155   0.00076   0.00148   0.00224   1.87140
    R5        2.56216   0.00062  -0.00388   0.00780   0.00389   2.56605
    R6        2.49454  -0.00501  -0.00465   0.00205  -0.00258   2.49195
    R7        2.01057   0.00051   0.00058   0.00018   0.00076   2.01133
    A1        1.91437   0.01028   0.00236   0.03541   0.03780   1.95217
    A2        1.86879  -0.00783  -0.00056  -0.02655  -0.02714   1.84165
    A3        2.10605  -0.00167   0.00012  -0.00773  -0.00758   2.09846
    A4        1.89565   0.00123  -0.00082   0.00442   0.00355   1.89919
    A5        2.28149   0.00044   0.00070   0.00331   0.00404   2.28553
    A6        1.87374  -0.01018  -0.00222  -0.03478  -0.03694   1.83680
    A7        1.87223   0.00650   0.00125   0.02149   0.02273   1.89496
    A8        2.19709  -0.00241  -0.00118  -0.00499  -0.00616   2.19093
    A9        2.21387  -0.00410  -0.00007  -0.01651  -0.01657   2.19729
    D1        0.00000   0.00000   0.00000   0.00000   0.00000   0.00000
    D2        0.00000   0.00000   0.00000   0.00000   0.00000   0.00000
    D3        3.14159   0.00000   0.00000   0.00000   0.00000   3.14159
    D4        0.00000   0.00000   0.00000   0.00000   0.00000   0.00000
    D5        0.00000   0.00000   0.00000   0.00000   0.00000   0.00000
    D6        3.14159   0.00000   0.00000   0.00000   0.00000   3.14159
    D7        3.14159   0.00000   0.00000   0.00000   0.00000   3.14159
    D8        0.00000   0.00000   0.00000   0.00000   0.00000   0.00000
    D9        0.00000   0.00000   0.00000   0.00000   0.00000   0.00000
   D10        3.14159   0.00000   0.00000   0.00000   0.00000   3.14159
         Item               Value     Threshold  Converged?
 Maximum Force            0.010280     0.000450     NO 
 RMS     Force            0.003844     0.000300     NO 
 Maximum Displacement     0.038355     0.001800     NO 
 RMS     Displacement     0.012771     0.001200     NO 
 Predicted change in Energy=-6.328777D-04
 GradGradGradGradGradGradGradGradGradGradGradGradGradGradGradGradGradGrad

                          Input orientation:                          
 ---------------------------------------------------------------------
 Center     Atomic     Atomic              Coordinates (Angstroms)
 Number     Number      Type              X           Y           Z
 ---------------------------------------------------------------------
    1          7             0       -1.171227   -0.276428    0.000000
    2          7             0       -0.715640    0.934041    0.000000
    3          7             0        0.642366    0.812691    0.000000
    4          1             0        1.215175    1.620521    0.000000
    5          7             0       -0.150661   -1.210828    0.000000
    6          6             0        0.964185   -0.506520    0.000000
    7          1             0        1.952268   -0.902158    0.000000
 ---------------------------------------------------------------------
                    Distance matrix (angstroms):
                    1          2          3          4          5
     1  N    0.000000
     2  N    1.293366   0.000000
     3  N    2.115491   1.363418   0.000000
     4  H    3.048496   2.049220   0.990302   0.000000
     5  N    1.383712   2.218031   2.173366   3.143571   0.000000
     6  C    2.147773   2.212923   1.357898   2.141798   1.318685
     7  H    3.185555   3.238728   2.157904   2.628158   2.125461
                    6          7
     6  C    0.000000
     7  H    1.064348   0.000000
 Stoichiometry    CH2N4
 Framework group  CS[SG(CH2N4)]
 Deg. of freedom   11
 Full point group                 CS      NOp   2
 Largest Abelian subgroup         CS      NOp   2
 Largest concise Abelian subgroup C1      NOp   1
                         Standard orientation:                         
 ---------------------------------------------------------------------
 Center     Atomic     Atomic              Coordinates (Angstroms)
 Number     Number      Type              X           Y           Z
 ---------------------------------------------------------------------
    1          7             0       -0.750701   -0.942749    0.000000
    2          7             0       -1.141865    0.290047    0.000000
    3          7             0        0.000000    1.035066    0.000000
    4          1             0       -0.049925    2.024109    0.000000
    5          7             0        0.629210   -1.045226    0.000000
    6          6             0        1.069140    0.197912    0.000000
    7          1             0        2.090144    0.498554    0.000000
 ---------------------------------------------------------------------
 Rotational constants (GHZ):     10.4771542     10.1139177      5.1461661
 Isotopes: N-14,N-14,N-14,H-1,N-14,C-12,H-1
 Standard basis: CEP-121G (6D, 10F)
 There are    51 symmetry adapted basis functions of A'  symmetry.
 There are    15 symmetry adapted basis functions of A"  symmetry.
 Crude estimate of integral set expansion from redundant integrals=1.000.
 Integral buffers will be    262144 words long.
 Raffenetti 1 integral format.
 Two-electron integral symmetry is turned on.
    66 basis functions       90 primitive gaussians
    13 alpha electrons       13 beta electrons
       nuclear repulsion energy        86.2974872905 Hartrees.
 One-electron integrals computed using PRISM.
   1 Symmetry operations used in ECPInt.
 ECPInt:  NShTT=     231 NPrTT=     476 LenC2=     232 LenP2D=     456.
 LDataN:  DoStor=F MaxTD1= 2 Len=   12
 LDataN:  DoStor=T MaxTD1= 2 Len=   12
 NBasis=    66 RedAO= T  NBF=    51    15
 NBsUse=    66 1.00D-04 NBFU=    51    15
 Initial guess read from the read-write file:
 Initial guess orbital symmetries:
       Occupied  (A') (A') (A') (A') (A') (A') (A') (A") (A') (A')
                 (A') (A") (A")
       Virtual   (A") (A') (A') (A") (A') (A') (A') (A') (A") (A')
                 (A') (A') (A') (A') (A") (A') (A") (A') (A') (A")
                 (A') (A") (A') (A') (A') (A') (A') (A') (A') (A')
                 (A') (A') (A') (A") (A') (A') (A') (A") (A') (A')
                 (A") (A") (A") (A') (A') (A') (A') (A') (A') (A')
                 (A') (A') (A')
 Requested convergence on RMS density matrix=1.00D-08 within  64 cycles.
 Requested convergence on MAX density matrix=1.00D-06.
 Keep R1 integrals in memory in canonical form, NReq=     2864439.
 SCF Done:  E(RHF) =  -45.1519979303     A.U. after   13 cycles
             Convg  =    0.2429D-08             -V/T =  2.3125
             S**2   =   0.0000
   2 Symmetry operations used in ECPInt.
 ECPInt:  NShTT=     231 NPrTT=     476 LenC2=     232 LenP2D=     456.
 LDataN:  DoStor=F MaxTD1= 3 Len=   28
 LDataN:  DoStor=T MaxTD1= 3 Len=   28
 ***** Axes restored to original set *****
 -------------------------------------------------------------------
 Center     Atomic                   Forces (Hartrees/Bohr)
 Number     Number              X              Y              Z
 -------------------------------------------------------------------
    1          7          -0.011561915    0.001598572    0.000000000
    2          7           0.001912386   -0.013432371    0.000000000
    3          7           0.004117575   -0.003535047    0.000000000
    4          1           0.001252662   -0.000346856    0.000000000
    5          7           0.001488195    0.012237422    0.000000000
    6          6           0.001993863    0.003205743    0.000000000
    7          1           0.000797234    0.000272537    0.000000000
 -------------------------------------------------------------------
 Cartesian Forces:  Max     0.013432371 RMS     0.004968429

 GradGradGradGradGradGradGradGradGradGradGradGradGradGradGradGradGradGrad
 Berny optimization.
 Internal  Forces:  Max     0.012533226 RMS     0.004392547
 Search for a local minimum.
 Step number   3 out of a maximum of  36
 All quantities printed in internal units (Hartrees-Bohrs-Radians)
 Update second derivatives using information from points  1  3  2
 Trust test=-6.13D-02 RLast= 6.76D-02 DXMaxT set to 2.12D-01
     Eigenvalues ---    0.02505   0.02637   0.02673   0.02830   0.15986
     Eigenvalues ---    0.16053   0.22312   0.37478   0.43742   0.48674
     Eigenvalues ---    0.51459   0.58118   0.61908   0.76467   0.82335
     Eigenvalues --- 1000.000001000.000001000.000001000.000001000.00000
     Eigenvalues --- 1000.000001000.000001000.000001000.000001000.00000
     Eigenvalues --- 1000.00000
 RFO step:  Lambda=-6.17075270D-05.
 Quartic linear search produced a step of -0.51532.
 Iteration  1 RMS(Cart)=  0.00673181 RMS(Int)=  0.00004093
 Iteration  2 RMS(Cart)=  0.00003467 RMS(Int)=  0.00000878
 Iteration  3 RMS(Cart)=  0.00000000 RMS(Int)=  0.00000878
 Variable       Old X    -DE/DX   Delta X   Delta X   Delta X     New X
                                 (Linear)    (Quad)   (Total)
    R1        2.44411  -0.00565  -0.00359  -0.00229  -0.00588   2.43822
    R2        2.61484  -0.00070  -0.00369   0.00057  -0.00313   2.61171
    R3        2.57649   0.00391   0.00024  -0.00001   0.00024   2.57673
    R4        1.87140   0.00044  -0.00115   0.00210   0.00095   1.87235
    R5        2.56605  -0.00889  -0.00201  -0.00691  -0.00891   2.55714
    R6        2.49195   0.00030   0.00133  -0.00365  -0.00232   2.48963
    R7        2.01133   0.00064  -0.00039   0.00153   0.00114   2.01247
    A1        1.95217  -0.01253  -0.01948  -0.00135  -0.02083   1.93134
    A2        1.84165   0.00908   0.01399   0.00189   0.01590   1.85755
    A3        2.09846   0.00237   0.00391   0.00165   0.00556   2.10402
    A4        1.89919  -0.00245  -0.00183  -0.00329  -0.00511   1.89409
    A5        2.28553   0.00008  -0.00208   0.00164  -0.00045   2.28508
    A6        1.83680   0.00992   0.01903  -0.00259   0.01642   1.85322
    A7        1.89496  -0.00401  -0.01171   0.00534  -0.00638   1.88858
    A8        2.19093   0.00145   0.00317  -0.00154   0.00164   2.19257
    A9        2.19729   0.00256   0.00854  -0.00380   0.00474   2.20203
    D1        0.00000   0.00000   0.00000   0.00000   0.00000   0.00000
    D2        0.00000   0.00000   0.00000   0.00000   0.00000   0.00000
    D3        3.14159   0.00000   0.00000   0.00000   0.00000   3.14159
    D4        0.00000   0.00000   0.00000   0.00000   0.00000   0.00000
    D5        0.00000   0.00000   0.00000   0.00000   0.00000   0.00000
    D6        3.14159   0.00000   0.00000   0.00000   0.00000   3.14159
    D7        3.14159   0.00000   0.00000   0.00000   0.00000   3.14159
    D8        0.00000   0.00000   0.00000   0.00000   0.00000   0.00000
    D9        0.00000   0.00000   0.00000   0.00000   0.00000   0.00000
   D10        3.14159   0.00000   0.00000   0.00000   0.00000   3.14159
         Item               Value     Threshold  Converged?
 Maximum Force            0.012533     0.000450     NO 
 RMS     Force            0.004393     0.000300     NO 
 Maximum Displacement     0.019189     0.001800     NO 
 RMS     Displacement     0.006728     0.001200     NO 
 Predicted change in Energy=-3.369116D-04
 GradGradGradGradGradGradGradGradGradGradGradGradGradGradGradGradGradGrad

                          Input orientation:                          
 ---------------------------------------------------------------------
 Center     Atomic     Atomic              Coordinates (Angstroms)
 Number     Number      Type              X           Y           Z
 ---------------------------------------------------------------------
    1          7             0       -1.182787   -0.277697    0.000000
    2          7             0       -0.715786    0.925076    0.000000
    3          7             0        0.642997    0.811213    0.000000
    4          1             0        1.216125    1.619432    0.000000
    5          7             0       -0.153746   -1.200276    0.000000
    6          6             0        0.964240   -0.503285    0.000000
    7          1             0        1.952399   -0.900361    0.000000
 ---------------------------------------------------------------------
                    Distance matrix (angstroms):
                    1          2          3          4          5
     1  N    0.000000
     2  N    1.290253   0.000000
     3  N    2.125844   1.363545   0.000000
     4  H    3.058411   2.052903   0.990805   0.000000
     5  N    1.382055   2.198410   2.163536   3.134853   0.000000
     6  C    2.158846   2.205154   1.353183   2.137610   1.317455
     7  H    3.196419   3.232867   2.154999   2.625159   2.127391
                    6          7
     6  C    0.000000
     7  H    1.064954   0.000000
 Stoichiometry    CH2N4
 Framework group  CS[SG(CH2N4)]
 Deg. of freedom   11
 Full point group                 CS      NOp   2
 Largest Abelian subgroup         CS      NOp   2
 Largest concise Abelian subgroup C1      NOp   1
                         Standard orientation:                         
 ---------------------------------------------------------------------
 Center     Atomic     Atomic              Coordinates (Angstroms)
 Number     Number      Type              X           Y           Z
 ---------------------------------------------------------------------
    1          7             0       -0.753317   -0.952176    0.000000
    2          7             0       -1.135153    0.280282    0.000000
    3          7             0        0.000000    1.035718    0.000000
    4          1             0       -0.053445    2.025081    0.000000
    5          7             0        0.626242   -1.035201    0.000000
    6          6             0        1.068740    0.205720    0.000000
    7          1             0        2.089619    0.508924    0.000000
 ---------------------------------------------------------------------
 Rotational constants (GHZ):     10.4314540     10.2129203      5.1605152
 Isotopes: N-14,N-14,N-14,H-1,N-14,C-12,H-1
 Standard basis: CEP-121G (6D, 10F)
 There are    51 symmetry adapted basis functions of A'  symmetry.
 There are    15 symmetry adapted basis functions of A"  symmetry.
 Crude estimate of integral set expansion from redundant integrals=1.000.
 Integral buffers will be    262144 words long.
 Raffenetti 1 integral format.
 Two-electron integral symmetry is turned on.
    66 basis functions       90 primitive gaussians
    13 alpha electrons       13 beta electrons
       nuclear repulsion energy        86.4054490096 Hartrees.
 One-electron integrals computed using PRISM.
   1 Symmetry operations used in ECPInt.
 ECPInt:  NShTT=     231 NPrTT=     476 LenC2=     232 LenP2D=     456.
 LDataN:  DoStor=F MaxTD1= 2 Len=   12
 LDataN:  DoStor=T MaxTD1= 2 Len=   12
 NBasis=    66 RedAO= T  NBF=    51    15
 NBsUse=    66 1.00D-04 NBFU=    51    15
 Initial guess read from the read-write file:
 Initial guess orbital symmetries:
       Occupied  (A') (A') (A') (A') (A') (A') (A") (A') (A') (A')
                 (A') (A") (A")
       Virtual   (A") (A') (A') (A") (A') (A') (A') (A') (A") (A')
                 (A') (A') (A') (A') (A") (A') (A") (A') (A') (A")
                 (A') (A") (A') (A') (A') (A') (A') (A') (A') (A')
                 (A') (A') (A') (A") (A') (A') (A') (A") (A') (A')
                 (A") (A") (A") (A') (A') (A') (A') (A') (A') (A')
                 (A') (A') (A')
 Requested convergence on RMS density matrix=1.00D-08 within  64 cycles.
 Requested convergence on MAX density matrix=1.00D-06.
 Keep R1 integrals in memory in canonical form, NReq=     2864439.
 SCF Done:  E(RHF) =  -45.1523729565     A.U. after   12 cycles
             Convg  =    0.3065D-08             -V/T =  2.3113
             S**2   =   0.0000
   2 Symmetry operations used in ECPInt.
 ECPInt:  NShTT=     231 NPrTT=     476 LenC2=     232 LenP2D=     456.
 LDataN:  DoStor=F MaxTD1= 3 Len=   28
 LDataN:  DoStor=T MaxTD1= 3 Len=   28
 ***** Axes restored to original set *****
 -------------------------------------------------------------------
 Center     Atomic                   Forces (Hartrees/Bohr)
 Number     Number              X              Y              Z
 -------------------------------------------------------------------
    1          7           0.000087643    0.001450938    0.000000000
    2          7          -0.001428478   -0.000150008    0.000000000
    3          7           0.000349253   -0.001365348    0.000000000
    4          1          -0.000225901   -0.000160706    0.000000000
    5          7           0.000871140    0.000023951    0.000000000
    6          6           0.000436323    0.000323261    0.000000000
    7          1          -0.000089982   -0.000122088    0.000000000
 -------------------------------------------------------------------
 Cartesian Forces:  Max     0.001450938 RMS     0.000590250

 GradGradGradGradGradGradGradGradGradGradGradGradGradGradGradGradGradGrad
 Berny optimization.
 Internal  Forces:  Max     0.001107817 RMS     0.000435943
 Search for a local minimum.
 Step number   4 out of a maximum of  36
 All quantities printed in internal units (Hartrees-Bohrs-Radians)
 Update second derivatives using information from points  1  3  2  4
 Trust test= 9.98D-01 RLast= 3.69D-02 DXMaxT set to 2.12D-01
     Eigenvalues ---    0.02504   0.02636   0.02675   0.02831   0.15901
     Eigenvalues ---    0.16037   0.24470   0.37372   0.39597   0.48836
     Eigenvalues ---    0.51361   0.59604   0.61993   0.74808   0.85317
     Eigenvalues --- 1000.000001000.000001000.000001000.000001000.00000
     Eigenvalues --- 1000.000001000.000001000.000001000.000001000.00000
     Eigenvalues --- 1000.00000
 RFO step:  Lambda=-1.24391600D-05.
 Quartic linear search produced a step of -0.00130.
 Iteration  1 RMS(Cart)=  0.00131124 RMS(Int)=  0.00000095
 Iteration  2 RMS(Cart)=  0.00000095 RMS(Int)=  0.00000028
 Variable       Old X    -DE/DX   Delta X   Delta X   Delta X     New X
                                 (Linear)    (Quad)   (Total)
    R1        2.43822  -0.00111   0.00000  -0.00136  -0.00136   2.43687
    R2        2.61171   0.00082  -0.00001   0.00160   0.00160   2.61330
    R3        2.57673   0.00078   0.00000   0.00131   0.00131   2.57804
    R4        1.87235  -0.00026   0.00000  -0.00041  -0.00042   1.87193
    R5        2.55714  -0.00060   0.00001  -0.00133  -0.00132   2.55583
    R6        2.48963  -0.00051   0.00001  -0.00088  -0.00087   2.48876
    R7        2.01247  -0.00004   0.00000  -0.00002  -0.00002   2.01245
    A1        1.93134   0.00018  -0.00002   0.00097   0.00095   1.93229
    A2        1.85755  -0.00062   0.00001  -0.00268  -0.00266   1.85488
    A3        2.10402  -0.00045   0.00000  -0.00210  -0.00209   2.10193
    A4        1.89409   0.00073   0.00000   0.00305   0.00305   1.89714
    A5        2.28508  -0.00028   0.00000  -0.00095  -0.00096   2.28412
    A6        1.85322   0.00022   0.00003   0.00061   0.00063   1.85385
    A7        1.88858  -0.00052  -0.00002  -0.00194  -0.00196   1.88662
    A8        2.19257   0.00041   0.00001   0.00199   0.00200   2.19457
    A9        2.20203   0.00011   0.00002  -0.00005  -0.00004   2.20200
    D1        0.00000   0.00000   0.00000   0.00000   0.00000   0.00000
    D2        0.00000   0.00000   0.00000   0.00000   0.00000   0.00000
    D3        3.14159   0.00000   0.00000   0.00000   0.00000   3.14159
    D4        0.00000   0.00000   0.00000   0.00000   0.00000   0.00000
    D5        0.00000   0.00000   0.00000   0.00000   0.00000   0.00000
    D6        3.14159   0.00000   0.00000   0.00000   0.00000   3.14159
    D7        3.14159   0.00000   0.00000   0.00000   0.00000   3.14159
    D8        0.00000   0.00000   0.00000   0.00000   0.00000   0.00000
    D9        0.00000   0.00000   0.00000   0.00000   0.00000   0.00000
   D10        3.14159   0.00000   0.00000   0.00000   0.00000   3.14159
         Item               Value     Threshold  Converged?
 Maximum Force            0.001108     0.000450     NO 
 RMS     Force            0.000436     0.000300     NO 
 Maximum Displacement     0.002408     0.001800     NO 
 RMS     Displacement     0.001311     0.001200     NO 
 Predicted change in Energy=-6.219591D-06
 GradGradGradGradGradGradGradGradGradGradGradGradGradGradGradGradGradGrad

                          Input orientation:                          
 ---------------------------------------------------------------------
 Center     Atomic     Atomic              Coordinates (Angstroms)
 Number     Number      Type              X           Y           Z
 ---------------------------------------------------------------------
    1          7             0       -1.181674   -0.276328    0.000000
    2          7             0       -0.716156    0.926249    0.000000
    3          7             0        0.643127    0.810089    0.000000
    4          1             0        1.215769    1.618383    0.000000
    5          7             0       -0.151939   -1.199397    0.000000
    6          6             0        0.966047   -0.503280    0.000000
    7          1             0        1.953957   -0.900944    0.000000
 ---------------------------------------------------------------------
                    Distance matrix (angstroms):
                    1          2          3          4          5
     1  N    0.000000
     2  N    1.289534   0.000000
     3  N    2.123723   1.364238   0.000000
     4  H    3.055758   2.052165   0.990584   0.000000
     5  N    1.382899   2.199253   2.161057   3.132173   0.000000
     6  C    2.159678   2.207569   1.352485   2.136308   1.316993
     7  H    3.197237   3.235450   2.155436   2.625248   2.126940
                    6          7
     6  C    0.000000
     7  H    1.064942   0.000000
 Stoichiometry    CH2N4
 Framework group  CS[SG(CH2N4)]
 Deg. of freedom   11
 Full point group                 CS      NOp   2
 Largest Abelian subgroup         CS      NOp   2
 Largest concise Abelian subgroup C1      NOp   1
                         Standard orientation:                         
 ---------------------------------------------------------------------
 Center     Atomic     Atomic              Coordinates (Angstroms)
 Number     Number      Type              X           Y           Z
 ---------------------------------------------------------------------
    1          7             0       -0.753368   -0.951507    0.000000
    2          7             0       -1.136696    0.279735    0.000000
    3          7             0        0.000000    1.034099    0.000000
    4          1             0       -0.054237    2.023198    0.000000
    5          7             0        0.627069   -1.033979    0.000000
    6          6             0        1.069655    0.206420    0.000000
    7          1             0        2.090593    0.509384    0.000000
 ---------------------------------------------------------------------
 Rotational constants (GHZ):     10.4544500     10.1941392      5.1613269
 Isotopes: N-14,N-14,N-14,H-1,N-14,C-12,H-1
 Standard basis: CEP-121G (6D, 10F)
 There are    51 symmetry adapted basis functions of A'  symmetry.
 There are    15 symmetry adapted basis functions of A"  symmetry.
 Crude estimate of integral set expansion from redundant integrals=1.000.
 Integral buffers will be    262144 words long.
 Raffenetti 1 integral format.
 Two-electron integral symmetry is turned on.
    66 basis functions       90 primitive gaussians
    13 alpha electrons       13 beta electrons
       nuclear repulsion energy        86.4133347728 Hartrees.
 One-electron integrals computed using PRISM.
   1 Symmetry operations used in ECPInt.
 ECPInt:  NShTT=     231 NPrTT=     476 LenC2=     232 LenP2D=     456.
 LDataN:  DoStor=F MaxTD1= 2 Len=   12
 LDataN:  DoStor=T MaxTD1= 2 Len=   12
 NBasis=    66 RedAO= T  NBF=    51    15
 NBsUse=    66 1.00D-04 NBFU=    51    15
 Initial guess read from the read-write file:
 Initial guess orbital symmetries:
       Occupied  (A') (A') (A') (A') (A') (A') (A") (A') (A') (A')
                 (A') (A") (A")
       Virtual   (A") (A') (A') (A") (A') (A') (A') (A') (A") (A')
                 (A') (A') (A') (A') (A") (A') (A") (A') (A') (A")
                 (A') (A") (A') (A') (A') (A') (A') (A') (A') (A')
                 (A') (A') (A') (A") (A') (A') (A') (A") (A') (A')
                 (A") (A") (A") (A') (A') (A') (A') (A') (A') (A')
                 (A') (A') (A')
 Requested convergence on RMS density matrix=1.00D-08 within  64 cycles.
 Requested convergence on MAX density matrix=1.00D-06.
 Keep R1 integrals in memory in canonical form, NReq=     2864439.
 SCF Done:  E(RHF) =  -45.1523751863     A.U. after   10 cycles
             Convg  =    0.7035D-08             -V/T =  2.3112
             S**2   =   0.0000
   2 Symmetry operations used in ECPInt.
 ECPInt:  NShTT=     231 NPrTT=     476 LenC2=     232 LenP2D=     456.
 LDataN:  DoStor=F MaxTD1= 3 Len=   28
 LDataN:  DoStor=T MaxTD1= 3 Len=   28
 ***** Axes restored to original set *****
 -------------------------------------------------------------------
 Center     Atomic                   Forces (Hartrees/Bohr)
 Number     Number              X              Y              Z
 -------------------------------------------------------------------
    1          7          -0.000452692    0.000169264    0.000000000
    2          7           0.000089206   -0.001036232    0.000000000
    3          7           0.001102538    0.000903825    0.000000000
    4          1           0.000016884   -0.000007161    0.000000000
    5          7          -0.000250595   -0.000538962    0.000000000
    6          6          -0.000452017    0.000493290    0.000000000
    7          1          -0.000053325    0.000015976    0.000000000
 -------------------------------------------------------------------
 Cartesian Forces:  Max     0.001102538 RMS     0.000444660

 GradGradGradGradGradGradGradGradGradGradGradGradGradGradGradGradGradGrad
 Berny optimization.
 Internal  Forces:  Max     0.000832551 RMS     0.000321920
 Search for a local minimum.
 Step number   5 out of a maximum of  36
 All quantities printed in internal units (Hartrees-Bohrs-Radians)
 Update second derivatives using information from points  1  3  2  4  5

 Trust test= 3.59D-01 RLast= 6.30D-03 DXMaxT set to 2.12D-01
     Eigenvalues ---    0.02504   0.02635   0.02674   0.02831   0.15373
     Eigenvalues ---    0.16023   0.32009   0.37551   0.46747   0.49233
     Eigenvalues ---    0.51311   0.59619   0.62544   0.75795   0.84164
     Eigenvalues --- 1000.000001000.000001000.000001000.000001000.00000
     Eigenvalues --- 1000.000001000.000001000.000001000.000001000.00000
     Eigenvalues --- 1000.00000
 RFO step:  Lambda=-1.73406882D-06.
 Quartic linear search produced a step of -0.39078.
 Iteration  1 RMS(Cart)=  0.00061222 RMS(Int)=  0.00000029
 Iteration  2 RMS(Cart)=  0.00000027 RMS(Int)=  0.00000012
 Variable       Old X    -DE/DX   Delta X   Delta X   Delta X     New X
                                 (Linear)    (Quad)   (Total)
    R1        2.43687  -0.00008   0.00053  -0.00076  -0.00023   2.43664
    R2        2.61330  -0.00003  -0.00062   0.00086   0.00023   2.61353
    R3        2.57804   0.00027  -0.00051   0.00098   0.00047   2.57850
    R4        1.87193   0.00000   0.00016  -0.00024  -0.00008   1.87186
    R5        2.55583  -0.00008   0.00052  -0.00066  -0.00014   2.55568
    R6        2.48876   0.00056   0.00034   0.00003   0.00037   2.48912
    R7        2.01245  -0.00006   0.00001  -0.00012  -0.00011   2.01234
    A1        1.93229  -0.00036  -0.00037  -0.00005  -0.00042   1.93187
    A2        1.85488   0.00083   0.00104   0.00028   0.00132   1.85621
    A3        2.10193   0.00043   0.00082  -0.00008   0.00074   2.10266
    A4        1.89714  -0.00083  -0.00119  -0.00046  -0.00165   1.89548
    A5        2.28412   0.00040   0.00037   0.00054   0.00092   2.28504
    A6        1.85385  -0.00016  -0.00025  -0.00039  -0.00064   1.85322
    A7        1.88662   0.00052   0.00077   0.00062   0.00138   1.88800
    A8        2.19457  -0.00025  -0.00078   0.00031  -0.00047   2.19410
    A9        2.20200  -0.00027   0.00001  -0.00093  -0.00091   2.20108
    D1        0.00000   0.00000   0.00000   0.00000   0.00000   0.00000
    D2        0.00000   0.00000   0.00000   0.00000   0.00000   0.00000
    D3        3.14159   0.00000   0.00000   0.00000   0.00000   3.14159
    D4        0.00000   0.00000   0.00000   0.00000   0.00000   0.00000
    D5        0.00000   0.00000   0.00000   0.00000   0.00000   0.00000
    D6        3.14159   0.00000   0.00000   0.00000   0.00000   3.14159
    D7        3.14159   0.00000   0.00000   0.00000   0.00000   3.14159
    D8        0.00000   0.00000   0.00000   0.00000   0.00000   0.00000
    D9        0.00000   0.00000   0.00000   0.00000   0.00000   0.00000
   D10        3.14159   0.00000   0.00000   0.00000   0.00000   3.14159
         Item               Value     Threshold  Converged?
 Maximum Force            0.000833     0.000450     NO 
 RMS     Force            0.000322     0.000300     NO 
 Maximum Displacement     0.001274     0.001800     YES
 RMS     Displacement     0.000612     0.001200     YES
 Predicted change in Energy=-2.426468D-06
 GradGradGradGradGradGradGradGradGradGradGradGradGradGradGradGradGradGrad

                          Input orientation:                          
 ---------------------------------------------------------------------
 Center     Atomic     Atomic              Coordinates (Angstroms)
 Number     Number      Type              X           Y           Z
 ---------------------------------------------------------------------
    1          7             0       -1.181918   -0.276969    0.000000
    2          7             0       -0.715919    0.925291    0.000000
    3          7             0        0.643714    0.810316    0.000000
    4          1             0        1.216211    1.618664    0.000000
    5          7             0       -0.152108   -1.200138    0.000000
    6          6             0        0.965611   -0.503225    0.000000
    7          1             0        1.953350   -0.901155    0.000000
 ---------------------------------------------------------------------
                    Distance matrix (angstroms):
                    1          2          3          4          5
     1  N    0.000000
     2  N    1.289413   0.000000
     3  N    2.124882   1.364485   0.000000
     4  H    3.056868   2.052776   0.990544   0.000000
     5  N    1.383022   2.198939   2.162235   3.133359   0.000000
     6  C    2.159415   2.206400   1.352409   2.136636   1.317187
     7  H    3.196797   3.234331   2.155059   2.625426   2.126580
                    6          7
     6  C    0.000000
     7  H    1.064883   0.000000
 Stoichiometry    CH2N4
 Framework group  CS[SG(CH2N4)]
 Deg. of freedom   11
 Full point group                 CS      NOp   2
 Largest Abelian subgroup         CS      NOp   2
 Largest concise Abelian subgroup C1      NOp   1
                         Standard orientation:                         
 ---------------------------------------------------------------------
 Center     Atomic     Atomic              Coordinates (Angstroms)
 Number     Number      Type              X           Y           Z
 ---------------------------------------------------------------------
    1          7             0       -0.753349   -0.951905    0.000000
    2          7             0       -1.136183    0.279364    0.000000
    3          7             0        0.000000    1.034948    0.000000
    4          1             0       -0.054448    2.023995    0.000000
    5          7             0        0.627216   -1.034317    0.000000
    6          6             0        1.069016    0.206568    0.000000
    7          1             0        2.089966    0.509284    0.000000
 ---------------------------------------------------------------------
 Rotational constants (GHZ):     10.4444669     10.2010346      5.1606578
 Isotopes: N-14,N-14,N-14,H-1,N-14,C-12,H-1
 Standard basis: CEP-121G (6D, 10F)
 There are    51 symmetry adapted basis functions of A'  symmetry.
 There are    15 symmetry adapted basis functions of A"  symmetry.
 Crude estimate of integral set expansion from redundant integrals=1.000.
 Integral buffers will be    262144 words long.
 Raffenetti 1 integral format.
 Two-electron integral symmetry is turned on.
    66 basis functions       90 primitive gaussians
    13 alpha electrons       13 beta electrons
       nuclear repulsion energy        86.4080686782 Hartrees.
 One-electron integrals computed using PRISM.
   1 Symmetry operations used in ECPInt.
 ECPInt:  NShTT=     231 NPrTT=     476 LenC2=     232 LenP2D=     456.
 LDataN:  DoStor=F MaxTD1= 2 Len=   12
 LDataN:  DoStor=T MaxTD1= 2 Len=   12
 NBasis=    66 RedAO= T  NBF=    51    15
 NBsUse=    66 1.00D-04 NBFU=    51    15
 Initial guess read from the read-write file:
 Initial guess orbital symmetries:
       Occupied  (A') (A') (A') (A') (A') (A') (A") (A') (A') (A')
                 (A') (A") (A")
       Virtual   (A") (A') (A') (A") (A') (A') (A') (A') (A") (A')
                 (A') (A') (A') (A') (A") (A') (A") (A') (A') (A")
                 (A') (A") (A') (A') (A') (A') (A') (A') (A') (A')
                 (A') (A') (A') (A") (A') (A') (A') (A") (A') (A')
                 (A") (A") (A") (A') (A') (A') (A') (A') (A') (A')
                 (A') (A') (A')
 Requested convergence on RMS density matrix=1.00D-08 within  64 cycles.
 Requested convergence on MAX density matrix=1.00D-06.
 Keep R1 integrals in memory in canonical form, NReq=     2864439.
 SCF Done:  E(RHF) =  -45.1523778696     A.U. after    9 cycles
             Convg  =    0.9644D-08             -V/T =  2.3112
             S**2   =   0.0000
   2 Symmetry operations used in ECPInt.
 ECPInt:  NShTT=     231 NPrTT=     476 LenC2=     232 LenP2D=     456.
 LDataN:  DoStor=F MaxTD1= 3 Len=   28
 LDataN:  DoStor=T MaxTD1= 3 Len=   28
 ***** Axes restored to original set *****
 -------------------------------------------------------------------
 Center     Atomic                   Forces (Hartrees/Bohr)
 Number     Number              X              Y              Z
 -------------------------------------------------------------------
    1          7          -0.000062602    0.000269449    0.000000000
    2          7          -0.000225349   -0.000283881    0.000000000
    3          7           0.000231696    0.000060226    0.000000000
    4          1           0.000008108    0.000022905    0.000000000
    5          7           0.000014981   -0.000088285    0.000000000
    6          6           0.000024828    0.000031746    0.000000000
    7          1           0.000008338   -0.000012159    0.000000000
 -------------------------------------------------------------------
 Cartesian Forces:  Max     0.000283881 RMS     0.000114570

 GradGradGradGradGradGradGradGradGradGradGradGradGradGradGradGradGradGrad
 Berny optimization.
 Internal  Forces:  Max     0.000210425 RMS     0.000068260
 Search for a local minimum.
 Step number   6 out of a maximum of  36
 All quantities printed in internal units (Hartrees-Bohrs-Radians)
 Update second derivatives using information from points  1  3  2  4  5
                                                        6
 Trust test= 1.11D+00 RLast= 3.15D-03 DXMaxT set to 2.12D-01
     Eigenvalues ---    0.02504   0.02635   0.02674   0.02831   0.14918
     Eigenvalues ---    0.16020   0.28687   0.37634   0.46291   0.49090
     Eigenvalues ---    0.51322   0.59539   0.62386   0.71085   0.81473
     Eigenvalues --- 1000.000001000.000001000.000001000.000001000.00000
     Eigenvalues --- 1000.000001000.000001000.000001000.000001000.00000
     Eigenvalues --- 1000.00000
 RFO step:  Lambda=-2.13701183D-07.
 Quartic linear search produced a step of  0.11841.
 Iteration  1 RMS(Cart)=  0.00013127 RMS(Int)=  0.00000002
 Iteration  2 RMS(Cart)=  0.00000001 RMS(Int)=  0.00000001
 Variable       Old X    -DE/DX   Delta X   Delta X   Delta X     New X
                                 (Linear)    (Quad)   (Total)
    R1        2.43664  -0.00021  -0.00003  -0.00039  -0.00042   2.43622
    R2        2.61353   0.00010   0.00003   0.00032   0.00034   2.61388
    R3        2.57850   0.00019   0.00006   0.00043   0.00049   2.57899
    R4        1.87186   0.00002  -0.00001   0.00005   0.00004   1.87190
    R5        2.55568   0.00000  -0.00002  -0.00004  -0.00005   2.55563
    R6        2.48912   0.00008   0.00004   0.00004   0.00008   2.48921
    R7        2.01234   0.00001  -0.00001   0.00005   0.00004   2.01238
    A1        1.93187  -0.00003  -0.00005   0.00004  -0.00001   1.93186
    A2        1.85621   0.00010   0.00016   0.00002   0.00018   1.85639
    A3        2.10266   0.00004   0.00009  -0.00009  -0.00001   2.10266
    A4        1.89548  -0.00008  -0.00020  -0.00004  -0.00024   1.89524
    A5        2.28504   0.00005   0.00011   0.00014   0.00024   2.28528
    A6        1.85322   0.00002  -0.00008  -0.00001  -0.00009   1.85313
    A7        1.88800  -0.00001   0.00016  -0.00001   0.00016   1.88816
    A8        2.19410   0.00001  -0.00006   0.00015   0.00009   2.19419
    A9        2.20108   0.00000  -0.00011  -0.00015  -0.00025   2.20083
    D1        0.00000   0.00000   0.00000   0.00000   0.00000   0.00000
    D2        0.00000   0.00000   0.00000   0.00000   0.00000   0.00000
    D3        3.14159   0.00000   0.00000   0.00000   0.00000   3.14159
    D4        0.00000   0.00000   0.00000   0.00000   0.00000   0.00000
    D5        0.00000   0.00000   0.00000   0.00000   0.00000   0.00000
    D6        3.14159   0.00000   0.00000   0.00000   0.00000   3.14159
    D7        3.14159   0.00000   0.00000   0.00000   0.00000   3.14159
    D8        0.00000   0.00000   0.00000   0.00000   0.00000   0.00000
    D9        0.00000   0.00000   0.00000   0.00000   0.00000   0.00000
   D10        3.14159   0.00000   0.00000   0.00000   0.00000   3.14159
         Item               Value     Threshold  Converged?
 Maximum Force            0.000210     0.000450     YES
 RMS     Force            0.000068     0.000300     YES
 Maximum Displacement     0.000297     0.001800     YES
 RMS     Displacement     0.000131     0.001200     YES
 Predicted change in Energy=-1.372802D-07
 Optimization completed.
    -- Stationary point found.
                         ----------------------------
                         !   Optimized Parameters   !
                         ! (Angstroms and Degrees)  !
 ------------------------                            -------------------------
 ! Name  Definition              Value          Derivative Info.             !
 -----------------------------------------------------------------------------
 ! R1    R(1,2)                  1.2894         -DE/DX =   -0.0002           !
 ! R2    R(1,5)                  1.383          -DE/DX =    0.0001           !
 ! R3    R(2,3)                  1.3645         -DE/DX =    0.0002           !
 ! R4    R(3,4)                  0.9905         -DE/DX =    0.               !
 ! R5    R(3,6)                  1.3524         -DE/DX =    0.               !
 ! R6    R(5,6)                  1.3172         -DE/DX =    0.0001           !
 ! R7    R(6,7)                  1.0649         -DE/DX =    0.               !
 ! A1    A(2,1,5)              110.688          -DE/DX =    0.               !
 ! A2    A(1,2,3)              106.3528         -DE/DX =    0.0001           !
 ! A3    A(2,3,4)              120.4737         -DE/DX =    0.               !
 ! A4    A(2,3,6)              108.6032         -DE/DX =   -0.0001           !
 ! A5    A(4,3,6)              130.9231         -DE/DX =    0.               !
 ! A6    A(1,5,6)              106.1814         -DE/DX =    0.               !
 ! A7    A(3,6,5)              108.1745         -DE/DX =    0.               !
 ! A8    A(3,6,7)              125.7126         -DE/DX =    0.               !
 ! A9    A(5,6,7)              126.1129         -DE/DX =    0.               !
 ! D1    D(5,1,2,3)              0.             -DE/DX =    0.               !
 ! D2    D(2,1,5,6)              0.             -DE/DX =    0.               !
 ! D3    D(1,2,3,4)            180.             -DE/DX =    0.               !
 ! D4    D(1,2,3,6)              0.             -DE/DX =    0.               !
 ! D5    D(2,3,6,5)              0.             -DE/DX =    0.               !
 ! D6    D(2,3,6,7)            180.             -DE/DX =    0.               !
 ! D7    D(4,3,6,5)            180.             -DE/DX =    0.               !
 ! D8    D(4,3,6,7)              0.             -DE/DX =    0.               !
 ! D9    D(1,5,6,3)              0.             -DE/DX =    0.               !
 ! D10   D(1,5,6,7)            180.             -DE/DX =    0.               !
 -----------------------------------------------------------------------------
 GradGradGradGradGradGradGradGradGradGradGradGradGradGradGradGradGradGrad

                          Input orientation:                          
 ---------------------------------------------------------------------
 Center     Atomic     Atomic              Coordinates (Angstroms)
 Number     Number      Type              X           Y           Z
 ---------------------------------------------------------------------
    1          7             0       -1.181951   -0.276858    0.000000
    2          7             0       -0.715951    0.925402    0.000000
    3          7             0        0.643681    0.810428    0.000000
    4          1             0        1.216178    1.618775    0.000000
    5          7             0       -0.152141   -1.200027    0.000000
    6          6             0        0.965578   -0.503114    0.000000
    7          1             0        1.953317   -0.901044    0.000000
 ---------------------------------------------------------------------
                    Distance matrix (angstroms):
                    1          2          3          4          5
     1  N    0.000000
     2  N    1.289413   0.000000
     3  N    2.124882   1.364485   0.000000
     4  H    3.056868   2.052776   0.990544   0.000000
     5  N    1.383022   2.198939   2.162235   3.133359   0.000000
     6  C    2.159415   2.206400   1.352409   2.136636   1.317187
     7  H    3.196797   3.234331   2.155059   2.625426   2.126580
                    6          7
     6  C    0.000000
     7  H    1.064883   0.000000
 Stoichiometry    CH2N4
 Framework group  CS[SG(CH2N4)]
 Deg. of freedom   11
 Full point group                 CS      NOp   2
 Largest Abelian subgroup         CS      NOp   2
 Largest concise Abelian subgroup C1      NOp   1
                         Standard orientation:                         
 ---------------------------------------------------------------------
 Center     Atomic     Atomic              Coordinates (Angstroms)
 Number     Number      Type              X           Y           Z
 ---------------------------------------------------------------------
    1          7             0       -0.753349   -0.951905    0.000000
    2          7             0       -1.136183    0.279364    0.000000
    3          7             0        0.000000    1.034948    0.000000
    4          1             0       -0.054448    2.023995    0.000000
    5          7             0        0.627216   -1.034317    0.000000
    6          6             0        1.069016    0.206568    0.000000
    7          1             0        2.089966    0.509284    0.000000
 ---------------------------------------------------------------------
 Rotational constants (GHZ):     10.4444669     10.2010346      5.1606578
 Isotopes: N-14,N-14,N-14,H-1,N-14,C-12,H-1

 **********************************************************************

            Population analysis using the SCF density.

 **********************************************************************

 Orbital Symmetries:
       Occupied  (A') (A') (A') (A') (A') (A') (A") (A') (A') (A')
                 (A') (A") (A")
       Virtual   (A") (A') (A') (A") (A') (A') (A') (A') (A") (A')
                 (A') (A') (A') (A') (A") (A') (A") (A') (A') (A")
                 (A') (A") (A') (A') (A') (A') (A') (A') (A') (A')
                 (A') (A') (A') (A") (A') (A') (A') (A") (A') (A')
                 (A") (A") (A") (A') (A') (A') (A') (A') (A') (A')
                 (A') (A') (A')
  The electronic state is 1-A'.
 Alpha  occ. eigenvalues --   -1.54680  -1.28952  -1.24234  -0.93004  -0.90723
 Alpha  occ. eigenvalues --   -0.82058  -0.69071  -0.69024  -0.57313  -0.47943
 Alpha  occ. eigenvalues --   -0.47621  -0.46991  -0.43811
 Alpha virt. eigenvalues --    0.10839   0.11526   0.15645   0.15807   0.25782
 Alpha virt. eigenvalues --    0.27359   0.32584   0.40235   0.43041   0.49253
 Alpha virt. eigenvalues --    0.52653   0.55642   0.61452   0.62869   0.64995
 Alpha virt. eigenvalues --    0.67139   0.68434   0.70950   0.72241   0.77718
 Alpha virt. eigenvalues --    0.79267   0.81299   0.83541   0.84404   0.92270
 Alpha virt. eigenvalues --    0.93639   0.97489   1.02301   1.08041   1.19237
 Alpha virt. eigenvalues --    1.20291   2.56136   2.59786   5.71766   6.09617
 Alpha virt. eigenvalues --    6.24964   8.20343   8.27876   8.32778   8.36726
 Alpha virt. eigenvalues --    8.38370   8.57009   8.65025   8.67170   8.93132
 Alpha virt. eigenvalues --    8.96884   9.09212   9.35625  32.79406  48.23496
 Alpha virt. eigenvalues --   48.63120  49.08637  49.38005
          Condensed to atoms (all electrons):
              1          2          3          4          5          6
  1  N    4.754774   0.227672  -0.039167   0.012670   0.289562  -0.167487
  2  N    0.227672   4.868350   0.063190  -0.028475  -0.105180  -0.051963
  3  N   -0.039167   0.063190   4.952515   0.280046  -0.088498   0.251571
  4  H    0.012670  -0.028475   0.280046   0.372657   0.008025  -0.046986
  5  N    0.289562  -0.105180  -0.088498   0.008025   4.537972   0.436021
  6  C   -0.167487  -0.051963   0.251571  -0.046986   0.436021   3.301753
  7  H    0.002663   0.002699  -0.015537   0.001077  -0.001348   0.374131
              7
  1  N    0.002663
  2  N    0.002699
  3  N   -0.015537
  4  H    0.001077
  5  N   -0.001348
  6  C    0.374131
  7  H    0.402607
 Total atomic charges:
              1
  1  N   -0.080688
  2  N    0.023708
  3  N   -0.404120
  4  H    0.400985
  5  N   -0.076554
  6  C   -0.097041
  7  H    0.233709
 Sum of Mulliken charges=   0.00000
 Atomic charges with hydrogens summed into heavy atoms:
              1
  1  N   -0.080688
  2  N    0.023708
  3  N   -0.003135
  4  H    0.000000
  5  N   -0.076554
  6  C    0.136669
  7  H    0.000000
 Sum of Mulliken charges=   0.00000
 Electronic spatial extent (au):  <R**2>=   209.4832
 Charge=     0.0000 electrons
 Dipole moment (Debye):
    X=     3.0196    Y=     5.4513    Z=     0.0000  Tot=     6.2317
 Quadrupole moment (Debye-Ang):
   XX=   -30.1837   YY=   -28.6239   ZZ=   -29.1296
   XY=     2.2946   XZ=     0.0000   YZ=     0.0000
 Octapole moment (Debye-Ang**2):
  XXX=    15.9417  YYY=    28.0253  ZZZ=     0.0000  XYY=    -0.3669
  XXY=     6.6791  XXZ=     0.0000  XZZ=    -0.2743  YZZ=     1.5014
  YYZ=     0.0000  XYZ=     0.0000
 Hexadecapole moment (Debye-Ang**3):
 XXXX=  -148.1479 YYYY=  -129.0207 ZZZZ=   -28.1604 XXXY=     7.4866
 XXXZ=     0.0000 YYYX=     0.1779 YYYZ=     0.0000 ZZZX=     0.0000
 ZZZY=     0.0000 XXYY=   -57.1915 XXZZ=   -32.0297 YYZZ=   -30.7096
 XXYZ=     0.0000 YYXZ=     0.0000 ZZXY=     0.1820
 N-N= 8.640806867817D+01 E-N=-2.764471502545D+02  KE= 3.443474930205D+01
 Symmetry A'   KE= 2.549802452341D+01
 Symmetry A"   KE= 8.936724778640D+00
 1\1\GINC-FERRUM\FOpt\RHF\CEP-121G\C1H2N4\RDJ3\31-Aug-2000\0\\#HF/CEP-1
 21G OPT FREQ\\1H tetrazole c CH-NH-N=N-N= casno=288948\\0,1\N,-1.18195
 06368,-0.2768580332,0.\N,-0.7159514641,0.9254024458,0.\N,0.643681218,0
 .81042756,0.\H,1.2161778818,1.6187747867,0.\N,-0.1521405685,-1.2000268
 472,0.\C,0.965578161,-0.5031140445,0.\H,1.9533167309,-0.9010442356,0.\
 \Version=IBM-RS6000-G98RevA.6\State=1-A'\HF=-45.1523779\RMSD=9.644e-09
 \RMSF=1.146e-04\Dipole=2.2641385,0.9405665,0.\PG=CS [SG(C1H2N4)]\\@


 MY DESCRIPTION OF EXPERIENCE IS NOT WHAT HAPPENS
 TO A MAN.  EXPERIENCE IS WHAT A MAN DOES WITH WHAT
 HAPPENS TO HIM.
                         - CHUCK KNOX, SEATTLE SEAHAWKS, 1985
 Job cpu time:  0 days  0 hours  1 minutes 48.9 seconds.
 File lengths (MBytes):  RWF=   12 Int=    0 D2E=    0 Chk=    8 Scr=    1
 Normal termination of Gaussian 98.
 Link1:  Proceeding to internal job step number  2.
 -----------------------------------------------
 #N Geom=AllCheck Guess=TCheck RHF/CEP-121G Freq
 -----------------------------------------------
 1/10=4,29=7,30=1,38=1/1,3;
 2//2;
 3/5=9,6=2,11=1,16=1,25=1,30=1/1,2,3;
 4/5=101,7=1,11=1/1;
 5/5=2/2;
 8/6=4,11=11/1;
 10/13=10/2;
 11/6=2,8=1,9=11,15=111,16=11/1,2,10;
 10/6=1/2;
 6/7=2,8=2,9=2,10=2,18=1,28=1/1;
 7/8=1,10=1,25=1/1,2,3,16;
 1/10=4,30=1/3;
 99//99;
 ----------------------------------------
 1H tetrazole c CH-NH-N=N-N= casno=288948
 ----------------------------------------
 Redundant internal coordinates taken from checkpointfile:
 /wrk/rdj3/Gau-18172.chk
 Charge =  0 Multiplicity = 1
 N,0,-1.1819506368,-0.2768580332,0.
 N,0,-0.7159514641,0.9254024458,0.
 N,0,0.643681218,0.81042756,0.
 H,0,1.2161778818,1.6187747867,0.
 N,0,-0.1521405685,-1.2000268472,0.
 C,0,0.965578161,-0.5031140445,0.
 H,0,1.9533167309,-0.9010442356,0.
 Recover connectivity data from disk.

 GradGradGradGradGradGradGradGradGradGradGradGradGradGradGradGradGradGrad
 Berny optimization.
 Initialization pass.
                         ----------------------------
                         !    Initial Parameters    !
                         ! (Angstroms and Degrees)  !
 ------------------------                            -------------------------
 ! Name  Definition              Value          Derivative Info.             !
 -----------------------------------------------------------------------------
 ! R1    R(1,2)                  1.2894         calculate D2E/DX2 analyticall!
 ! R2    R(1,5)                  1.383          calculate D2E/DX2 analyticall!
 ! R3    R(2,3)                  1.3645         calculate D2E/DX2 analyticall!
 ! R4    R(3,4)                  0.9905         calculate D2E/DX2 analyticall!
 ! R5    R(3,6)                  1.3524         calculate D2E/DX2 analyticall!
 ! R6    R(5,6)                  1.3172         calculate D2E/DX2 analyticall!
 ! R7    R(6,7)                  1.0649         calculate D2E/DX2 analyticall!
 ! A1    A(2,1,5)              110.688          calculate D2E/DX2 analyticall!
 ! A2    A(1,2,3)              106.3528         calculate D2E/DX2 analyticall!
 ! A3    A(2,3,4)              120.4737         calculate D2E/DX2 analyticall!
 ! A4    A(2,3,6)              108.6032         calculate D2E/DX2 analyticall!
 ! A5    A(4,3,6)              130.9231         calculate D2E/DX2 analyticall!
 ! A6    A(1,5,6)              106.1814         calculate D2E/DX2 analyticall!
 ! A7    A(3,6,5)              108.1745         calculate D2E/DX2 analyticall!
 ! A8    A(3,6,7)              125.7126         calculate D2E/DX2 analyticall!
 ! A9    A(5,6,7)              126.1129         calculate D2E/DX2 analyticall!
 ! D1    D(5,1,2,3)              0.             calculate D2E/DX2 analyticall!
 ! D2    D(2,1,5,6)              0.             calculate D2E/DX2 analyticall!
 ! D3    D(1,2,3,4)            180.             calculate D2E/DX2 analyticall!
 ! D4    D(1,2,3,6)              0.             calculate D2E/DX2 analyticall!
 ! D5    D(2,3,6,5)              0.             calculate D2E/DX2 analyticall!
 ! D6    D(2,3,6,7)            180.             calculate D2E/DX2 analyticall!
 ! D7    D(4,3,6,5)            180.             calculate D2E/DX2 analyticall!
 ! D8    D(4,3,6,7)              0.             calculate D2E/DX2 analyticall!
 ! D9    D(1,5,6,3)              0.             calculate D2E/DX2 analyticall!
 ! D10   D(1,5,6,7)            180.             calculate D2E/DX2 analyticall!
 -----------------------------------------------------------------------------
 Trust Radius=3.00D-01 FncErr=1.00D-07 GrdErr=1.00D-07
 Number of steps in this run=  36 maximum allowed number of steps= 100.
 GradGradGradGradGradGradGradGradGradGradGradGradGradGradGradGradGradGrad

                          Input orientation:                          
 ---------------------------------------------------------------------
 Center     Atomic     Atomic              Coordinates (Angstroms)
[...]
 Frc consts  --     1.2722                 3.8131                 0.4230
 IR Inten    --    18.7712                 0.5517               171.1907
 Raman Activ --     0.5253                 0.2595                 0.0682
 Depolar     --     0.7500                 0.7500                 0.7500
 Atom AN      X      Y      Z        X      Y      Z        X      Y      Z
   1   7     0.00   0.00  -0.03     0.00   0.00   0.56     0.00   0.00  -0.04
   2   7     0.00   0.00   0.25     0.00   0.00  -0.40     0.00   0.00   0.03
   3   7     0.00   0.00  -0.32     0.00   0.00   0.12     0.00   0.00   0.07
   4   1     0.00   0.00  -0.09     0.00   0.00  -0.17     0.00   0.00  -1.00
   5   7     0.00   0.00  -0.17     0.00   0.00  -0.48     0.00   0.00  -0.02
   6   6     0.00   0.00   0.25     0.00   0.00   0.21     0.00   0.00   0.03
   7   1     0.00   0.00   0.86     0.00   0.00   0.46     0.00   0.00  -0.02
                     4                      5                      6
                    A"                     A'                     A'
 Frequencies --   987.5981              1041.1269              1097.6785
 Red. masses --     1.4022                 6.3623                 7.6055
 Frc consts  --     0.8058                 4.0632                 5.3992
 IR Inten    --    11.8772                 1.7540                 8.0812
 Raman Activ --     0.2289                 3.5530                 4.2343
 Depolar     --     0.7500                 0.1826                 0.5762
 Atom AN      X      Y      Z        X      Y      Z        X      Y      Z
   1   7     0.00   0.00   0.01    -0.20   0.21   0.00     0.32   0.07   0.00
   2   7     0.00   0.00   0.00    -0.22   0.12   0.00     0.17   0.15   0.00
   3   7     0.00   0.00   0.05    -0.09  -0.11   0.00    -0.13   0.19   0.00
   4   1     0.00   0.00  -0.05     0.25  -0.10   0.00     0.17   0.21   0.00
   5   7     0.00   0.00   0.03     0.45  -0.17   0.00     0.03  -0.36   0.00
   6   6     0.00   0.00  -0.18     0.07  -0.10   0.00    -0.43  -0.09   0.00
   7   1     0.00   0.00   0.98    -0.15   0.70   0.00    -0.57   0.25   0.00
                     7                      8                      9
                    A'                     A'                     A'
 Frequencies --  1122.9458              1153.5039              1232.9321
 Red. masses --     3.6770                 5.1379                 2.0344
 Frc consts  --     2.7319                 4.0279                 1.8221
 IR Inten    --    33.9919                22.3788                17.1565
 Raman Activ --     4.5008                 9.5622                 4.1633
 Depolar     --     0.2405                 0.4614                 0.6953
 Atom AN      X      Y      Z        X      Y      Z        X      Y      Z
   1   7    -0.10  -0.01   0.00     0.31   0.15   0.00    -0.10  -0.12   0.00
   2   7     0.32   0.14   0.00    -0.20   0.08   0.00     0.02  -0.03   0.00
   3   7    -0.15  -0.22   0.00     0.03  -0.34   0.00     0.17   0.01   0.00
   4   1    -0.55  -0.26   0.00     0.59  -0.34   0.00     0.52   0.03   0.00
   5   7    -0.04   0.04   0.00    -0.18   0.07   0.00    -0.02  -0.02   0.00
   6   6     0.03   0.02   0.00     0.00   0.03   0.00    -0.10   0.13   0.00
   7   1    -0.15   0.63   0.00    -0.13   0.45   0.00    -0.29   0.75   0.00
                    10                     11                     12
                    A'                     A'                     A'
 Frequencies --  1368.5049              1450.9010              1536.0368
 Red. masses --     2.7116                 7.3728                 2.9869
 Frc consts  --     2.9921                 9.1445                 4.1522
 IR Inten    --     2.0938                21.3791                 7.4533
 Raman Activ --    15.8380                21.3014                12.9194
 Depolar     --     0.0849                 0.1265                 0.5658
 Atom AN      X      Y      Z        X      Y      Z        X      Y      Z
   1   7    -0.05  -0.01   0.00    -0.06   0.48   0.00     0.02   0.00   0.00
   2   7     0.08   0.02   0.00     0.13  -0.44   0.00     0.04  -0.09   0.00
   3   7     0.00  -0.11   0.00     0.16  -0.04   0.00    -0.12   0.13   0.00
   4   1     0.59  -0.10   0.00    -0.60  -0.10   0.00     0.60   0.19   0.00
   5   7     0.14   0.20   0.00    -0.03   0.01   0.00    -0.05   0.16   0.00
   6   6    -0.24  -0.05   0.00    -0.16  -0.02   0.00     0.09  -0.30   0.00
   7   1    -0.09  -0.70   0.00    -0.27   0.24   0.00    -0.19   0.64   0.00
                    13                     14                     15
                    A'                     A'                     A'
 Frequencies --  1660.5421              3478.6362              3943.8737
 Red. masses --     2.2873                 1.1074                 1.0868
 Frc consts  --     3.7160                 7.8951                 9.9601
 IR Inten    --    43.7181                 2.6272               138.5728
 Raman Activ --     3.5804                60.5989                62.0951
 Depolar     --     0.5708                 0.2788                 0.2818
 Atom AN      X      Y      Z        X      Y      Z        X      Y      Z
   1   7     0.04  -0.07   0.00     0.00   0.00   0.00     0.00   0.00   0.00
   2   7    -0.09   0.09   0.00     0.00   0.00   0.00     0.00   0.00   0.00
   3   7     0.17   0.01   0.00     0.00   0.00   0.00     0.00  -0.08   0.00
   4   1    -0.88  -0.05   0.00     0.01   0.02   0.00    -0.05   1.00   0.00
   5   7     0.04   0.11   0.00     0.00   0.00   0.00     0.00   0.00   0.00
   6   6    -0.10  -0.17   0.00     0.09   0.03   0.00     0.00   0.00   0.00
   7   1    -0.26   0.23   0.00    -0.95  -0.28   0.00     0.02   0.00   0.00

 -------------------
 - Thermochemistry -
 -------------------
 Temperature   298.150 Kelvin.  Pressure   1.00000 Atm.
 Atom  1 has atomic number  7 and mass  14.00307
 Atom  2 has atomic number  7 and mass  14.00307
 Atom  3 has atomic number  7 and mass  14.00307
 Atom  4 has atomic number  1 and mass   1.00783
 Atom  5 has atomic number  7 and mass  14.00307
 Atom  6 has atomic number  6 and mass  12.00000
 Atom  7 has atomic number  1 and mass   1.00783
 Molecular mass:    70.02795 amu.
 Principal axes and moments of inertia in atomic units:
                           1         2         3
     EIGENVALUES --   172.79400 176.91746 349.71146
           X            0.99904   0.04375   0.00000
           Y           -0.04375   0.99904   0.00000
           Z            0.00000   0.00000   1.00000
 THIS MOLECULE IS AN ASYMMETRIC TOP.
 ROTATIONAL SYMMETRY NUMBER  1.
 ROTATIONAL TEMPERATURES (KELVIN)      0.50125     0.48957     0.24767
 ROTATIONAL CONSTANTS (GHZ)           10.44447    10.20103     5.16066
 Zero-point vibrational energy     133754.2 (Joules/Mol)
                                   31.96803 (Kcal/Mol)
 VIBRATIONAL TEMPERATURES:   1027.65  1113.60  1150.19  1420.93  1497.94
          (KELVIN)           1579.31  1615.66  1659.63  1773.90  1968.96
                             2087.51  2210.00  2389.14  5004.95  5674.32
 
 Zero-point correction=                           0.050944 (Hartree/Particle)
 Thermal correction to Energy=                    0.054223
 Thermal correction to Enthalpy=                  0.055167
 Thermal correction to Gibbs Free Energy=         0.024900
 Sum of electronic and zero-point Energies=            -45.101434
 Sum of electronic and thermal Energies=               -45.098155
 Sum of electronic and thermal Enthalpies=             -45.097211
 Sum of electronic and thermal Free Energies=          -45.127478
 
                     E (Thermal)             CV                S
                      KCAL/MOL        CAL/MOL-KELVIN    CAL/MOL-KELVIN
 TOTAL                   34.025             10.115             63.702
 ELECTRONIC               0.000              0.000              0.000
 TRANSLATIONAL            0.889              2.981             38.656
 ROTATIONAL               0.889              2.981             23.884
 VIBRATIONAL             32.248              4.153              1.161
                       Q            LOG10(Q)             LN(Q)
 TOTAL BOT       0.352230D-11        -11.453173        -26.371906
 TOTAL V=0       0.953712D+12         11.979417         27.583628
 VIB (BOT)       0.413148D-23        -23.383895        -53.843407
 VIB (V=0)       0.111865D+01          0.048696          0.112126
 ELECTRONIC      0.100000D+01          0.000000          0.000000
 TRANSLATIONAL   0.230339D+08          7.362368         16.952478
 ROTATIONAL      0.370130D+05          4.568354         10.519024
 ***** Axes restored to original set *****
 -------------------------------------------------------------------
 Center     Atomic                   Forces (Hartrees/Bohr)
 Number     Number              X              Y              Z
 -------------------------------------------------------------------
    1          7          -0.000062599    0.000269460    0.000000000
    2          7          -0.000225352   -0.000283871    0.000000000
    3          7           0.000231701    0.000060203    0.000000000
    4          1           0.000008103    0.000022901    0.000000000
    5          7           0.000014997   -0.000088294    0.000000000
    6          6           0.000024822    0.000031758    0.000000000
    7          1           0.000008329   -0.000012158    0.000000000
 -------------------------------------------------------------------
 Cartesian Forces:  Max     0.000283871 RMS     0.000114571

 GradGradGradGradGradGradGradGradGradGradGradGradGradGradGradGradGradGrad
 Berny optimization.
 Internal  Forces:  Max     0.000210428 RMS     0.000068259
 Search for a local minimum.
 Step number   1 out of a maximum of  36
 All quantities printed in internal units (Hartrees-Bohrs-Radians)
 Second derivative matrix not updated -- analytic derivatives used.
     Eigenvalues ---    0.01371   0.03233   0.08311   0.08884   0.11671
     Eigenvalues ---    0.13054   0.24449   0.27809   0.38807   0.42196
     Eigenvalues ---    0.50110   0.53443   0.55352   0.67457   0.71518
     Eigenvalues --- 1000.000001000.000001000.000001000.000001000.00000
     Eigenvalues --- 1000.000001000.000001000.000001000.000001000.00000
     Eigenvalues --- 1000.00000
 Angle between quadratic step and forces=  25.19 degrees.
 Linear search not attempted -- first point.
 Iteration  1 RMS(Cart)=  0.00014895 RMS(Int)=  0.00000002
 Iteration  2 RMS(Cart)=  0.00000001 RMS(Int)=  0.00000001
 Variable       Old X    -DE/DX   Delta X   Delta X   Delta X     New X
                                 (Linear)    (Quad)   (Total)
    R1        2.43664  -0.00021   0.00000  -0.00054  -0.00054   2.43609
    R2        2.61353   0.00010   0.00000   0.00043   0.00043   2.61396
    R3        2.57850   0.00019   0.00000   0.00058   0.00058   2.57909
    R4        1.87186   0.00002   0.00000   0.00004   0.00004   1.87189
    R5        2.55568   0.00000   0.00000   0.00003   0.00003   2.55572
    R6        2.48912   0.00008   0.00000   0.00006   0.00006   2.48918
    R7        2.01234   0.00001   0.00000   0.00004   0.00004   2.01238
    A1        1.93187  -0.00003   0.00000   0.00003   0.00003   1.93190
    A2        1.85621   0.00010   0.00000   0.00019   0.00019   1.85640
    A3        2.10266   0.00004   0.00000   0.00000   0.00000   2.10267
    A4        1.89548  -0.00008   0.00000  -0.00028  -0.00028   1.89521
    A5        2.28504   0.00005   0.00000   0.00027   0.00027   2.28531
    A6        1.85322   0.00002   0.00000  -0.00010  -0.00010   1.85312
    A7        1.88800  -0.00001   0.00000   0.00016   0.00016   1.88816
    A8        2.19410   0.00001   0.00000   0.00004   0.00004   2.19414
    A9        2.20108   0.00000   0.00000  -0.00020  -0.00020   2.20088
    D1        0.00000   0.00000   0.00000   0.00000   0.00000   0.00000
    D2        0.00000   0.00000   0.00000   0.00000   0.00000   0.00000
    D3        3.14159   0.00000   0.00000   0.00000   0.00000   3.14159
    D4        0.00000   0.00000   0.00000   0.00000   0.00000   0.00000
    D5        0.00000   0.00000   0.00000   0.00000   0.00000   0.00000
    D6        3.14159   0.00000   0.00000   0.00000   0.00000   3.14159
    D7        3.14159   0.00000   0.00000   0.00000   0.00000   3.14159
    D8        0.00000   0.00000   0.00000   0.00000   0.00000   0.00000
    D9        0.00000   0.00000   0.00000   0.00000   0.00000   0.00000
   D10        3.14159   0.00000   0.00000   0.00000   0.00000   3.14159
         Item               Value     Threshold  Converged?
 Maximum Force            0.000210     0.000450     YES
 RMS     Force            0.000068     0.000300     YES
 Maximum Displacement     0.000330     0.001800     YES
 RMS     Displacement     0.000149     0.001200     YES
 Predicted change in Energy=-1.644538D-07
 Optimization completed.
    -- Stationary point found.
                         ----------------------------
                         !   Optimized Parameters   !
                         ! (Angstroms and Degrees)  !
 ------------------------                            -------------------------
 ! Name  Definition              Value          Derivative Info.             !
 -----------------------------------------------------------------------------
 ! R1    R(1,2)                  1.2894         -DE/DX =   -0.0002           !
 ! R2    R(1,5)                  1.383          -DE/DX =    0.0001           !
 ! R3    R(2,3)                  1.3645         -DE/DX =    0.0002           !
 ! R4    R(3,4)                  0.9905         -DE/DX =    0.               !
 ! R5    R(3,6)                  1.3524         -DE/DX =    0.               !
 ! R6    R(5,6)                  1.3172         -DE/DX =    0.0001           !
 ! R7    R(6,7)                  1.0649         -DE/DX =    0.               !
 ! A1    A(2,1,5)              110.688          -DE/DX =    0.               !
 ! A2    A(1,2,3)              106.3528         -DE/DX =    0.0001           !
 ! A3    A(2,3,4)              120.4737         -DE/DX =    0.               !
 ! A4    A(2,3,6)              108.6032         -DE/DX =   -0.0001           !
 ! A5    A(4,3,6)              130.9231         -DE/DX =    0.               !
 ! A6    A(1,5,6)              106.1814         -DE/DX =    0.               !
 ! A7    A(3,6,5)              108.1745         -DE/DX =    0.               !
 ! A8    A(3,6,7)              125.7126         -DE/DX =    0.               !
 ! A9    A(5,6,7)              126.1129         -DE/DX =    0.               !
 ! D1    D(5,1,2,3)              0.             -DE/DX =    0.               !
 ! D2    D(2,1,5,6)              0.             -DE/DX =    0.               !
 ! D3    D(1,2,3,4)            180.             -DE/DX =    0.               !
 ! D4    D(1,2,3,6)              0.             -DE/DX =    0.               !
 ! D5    D(2,3,6,5)              0.             -DE/DX =    0.               !
 ! D6    D(2,3,6,7)            180.             -DE/DX =    0.               !
 ! D7    D(4,3,6,5)            180.             -DE/DX =    0.               !
 ! D8    D(4,3,6,7)              0.             -DE/DX =    0.               !
 ! D9    D(1,5,6,3)              0.             -DE/DX =    0.               !
 ! D10   D(1,5,6,7)            180.             -DE/DX =    0.               !
 -----------------------------------------------------------------------------
 GradGradGradGradGradGradGradGradGradGradGradGradGradGradGradGradGradGrad

 1\1\GINC-FERRUM\Freq\RHF\CEP-121G\C1H2N4\RDJ3\31-Aug-2000\0\\#N GEOM=A
 LLCHECK GUESS=TCHECK RHF/CEP-121G FREQ\\1H tetrazole c CH-NH-N=N-N= ca
 sno=288948\\0,1\N,-1.1819506368,-0.2768580332,0.\N,-0.7159514641,0.925
 4024458,0.\N,0.643681218,0.81042756,0.\H,1.2161778818,1.6187747867,0.\
 N,-0.1521405685,-1.2000268472,0.\C,0.965578161,-0.5031140445,0.\H,1.95
 33167309,-0.9010442356,0.\\Version=IBM-RS6000-G98RevA.6\State=1-A'\HF=
 -45.1523779\RMSD=1.921e-09\RMSF=1.146e-04\Dipole=2.2641386,0.9405665,0
 .\DipoleDeriv=0.0957885,-0.2009085,0.,-0.1722704,0.0360884,0.,0.,0.,-0
 .1706483,0.3085021,0.2961047,0.,0.2102455,-0.3181896,0.,0.,0.,-0.08831
 54,-0.4884053,-0.3648408,0.,-0.2256692,-0.372091,0.,0.,0.,-0.2706854,0
 .2647206,0.059095,0.,0.0437932,0.3037645,0.,0.,0.,0.4338258,-0.5521708
 ,0.1793133,0.,-0.1132843,-0.2600423,0.,0.,0.,-0.2561377,0.2915342,0.01
 67127,0.,0.2459237,0.4616637,0.,0.,0.,0.1484516,0.0800308,0.0145236,0.
 ,0.0112614,0.1488063,0.,0.,0.,0.2035094\Polar=37.9927195,0.2679937,36.
 6432732,0.,0.,18.082735\PolarDeriv=-9.9122037,-3.4587449,-2.295926,0.,
 0.,-0.5640586,-2.9877024,3.0962716,-5.5938329,0.,0.,0.0852482,0.,0.,0.
 ,-3.0861377,-1.6621164,0.,-2.299704,1.1989542,-2.4046665,0.,0.,0.47821
 79,4.3472023,-5.732091,12.7711389,0.,0.,0.1344021,0.,0.,0.,-1.3021079,
 3.5646683,0.,0.5664503,0.6872542,0.6240265,0.,0.,-0.8083687,1.6815374,
 1.9946774,-1.4478089,0.,0.,1.6951341,0.,0.,0.,0.9307212,1.3877544,0.,2
 .9130551,2.5002505,2.2714372,0.,0.,-0.0826419,1.9757058,2.7368132,5.64
 08532,0.,0.,0.0953216,0.,0.,0.,0.3556293,0.5301697,0.,-3.0784141,3.474
 8186,-2.2532103,0.,0.,-1.1744844,-2.7975758,-1.1616843,-10.9475757,0.,
 0.,-0.9975854,0.,0.,0.,-1.307746,-2.8924578,0.,4.3616356,-2.1097273,2.
 548052,0.,0.,1.637098,-0.3035975,-2.9703898,1.3145656,0.,0.,-0.7574409
 ,0.,0.,0.,3.9362457,-0.5710081,0.,7.4491807,-2.2928053,1.5102873,0.,0.
 ,0.5142377,-1.9155697,2.0364029,-1.7373402,0.,0.,-0.2550796,0.,0.,0.,0
 .4733953,-0.3570101,0.\HyperPolar=54.9535697,3.9510702,8.4023707,21.57
 1305,0.,0.,0.,21.3961648,-1.2309164,0.\PG=CS [SG(C1H2N4)]\NImag=0\\0.6
 1528744,0.12193951,0.58138591,0.,0.,0.13606449,-0.15947882,-0.14245179
 ,0.,0.48259162,-0.06941357,-0.41533376,0.,-0.00175197,0.74331343,0.,0.
 ,-0.10517114,0.,0.,0.12640781,-0.12738430,-0.11349744,0.,-0.25047737,0
 .00197339,0.,0.78691752,-0.03129199,-0.07469881,0.,0.06213068,-0.13870
 236,0.,0.25353772,1.05012135,0.,0.,0.02774069,0.,0.,-0.08123785,0.,0.,
 0.13268891,-0.01202022,0.00129456,0.,-0.00457221,-0.04000832,0.,-0.238
 49688,-0.20896063,0.,0.23556568,0.00954028,0.00411119,0.,0.00753586,0.
 01556016,0.,-0.22031415,-0.39904482,0.,0.22420094,0.39074215,0.,0.,0.0
 0822654,0.,0.,-0.00973626,0.,0.,-0.02174674,0.,0.,0.02181776,-0.180853
 79,0.06721813,0.,0.00229646,0.10085375,0.,-0.00268484,-0.13268500,0.,0
 .00071611,0.00220952,0.,0.54696723,0.01434561,-0.14104346,0.,-0.022416
 19,-0.13093544,0.,0.00107479,-0.10479960,0.,0.00944320,-0.00545552,0.,
 0.11054331,0.59060552,0.,0.,-0.09995510,0.,0.,0.03846152,0.,0.,0.02622
 586,0.,0.,0.00888901,0.,0.,0.12509836,-0.13377366,0.06727823,0.,-0.071
 75738,0.01215452,0.,-0.17594015,0.06491809,0.,0.01905019,-0.02412596,0
 .,-0.35483507,-0.12808245,0.,1.08431229,-0.03921900,0.04651103,0.,0.10
 052022,-0.06773165,0.,0.03951323,-0.32675235,0.,0.01449756,-0.00577405
 ,0.,-0.12583678,-0.22286648,0.,-0.11223038,0.68860949,0.,0.,0.02243025
 ,0.,0.,0.02510173,0.,0.,-0.08399734,0.,0.,-0.00619319,0.,0.,-0.0947196
 5,0.,0.,0.17887771,-0.00177664,-0.00178121,0.,0.00139771,-0.00380781,0
 .,0.00806602,-0.00764887,0.,-0.00024266,0.00095351,0.,-0.01160610,0.01
 509173,0.,-0.36705622,0.12275514,0.,0.37121790,-0.00590085,-0.00093209
 ,0.,-0.00356681,-0.00617036,0.,0.03771246,-0.00612339,0.,-0.00046732,-
 0.00013911,0.,-0.02230294,0.01449499,0.,0.12008794,-0.11199599,0.,-0.1
 2556249,0.11086595,0.,0.,0.01066428,0.,0.,0.00617421,0.,0.,0.00032647,
 0.,0.,-0.00125711,0.,0.,-0.00399999,0.,0.,-0.04149951,0.,0.,0.02959165
 \\0.00006260,-0.00026946,0.,0.00022535,0.00028387,0.,-0.00023170,-0.00
 006020,0.,-0.00000810,-0.00002290,0.,-0.00001500,0.00008829,0.,-0.0000
 2482,-0.00003176,0.,-0.00000833,0.00001216,0.\\\@


 IN NATURE THERE ARE NEITHER REWARDS OR
 PUNISHMENTS -- THERE ARE CONSEQUENCES.

                            -- ROBERT GREEN INGERSOLL
 Job cpu time:  0 days  0 hours  1 minutes 17.3 seconds.
 File lengths (MBytes):  RWF=   16 Int=    0 D2E=    0 Chk=    8 Scr=    1
 Normal termination of Gaussian 98.
