 Entering Link 1 = C:\G03W\l1.exe PID=      3676.
  
 Copyright (c) 1988,1990,1992,1993,1995,1998,2003, Gaussian, Inc.
                  All Rights Reserved.
  
 This is the Gaussian(R) 03 program.  It is based on the
 the Gaussian(R) 98 system (copyright 1998, Gaussian, Inc.),
 the Gaussian(R) 94 system (copyright 1995, Gaussian, Inc.),
 the Gaussian 92(TM) system (copyright 1992, Gaussian, Inc.),
 the Gaussian 90(TM) system (copyright 1990, Gaussian, Inc.),
 the Gaussian 88(TM) system (copyright 1988, Gaussian, Inc.),
 the Gaussian 86(TM) system (copyright 1986, Carnegie Mellon
 University), and the Gaussian 82(TM) system (copyright 1983,
 Carnegie Mellon University). Gaussian is a federally registered
 trademark of Gaussian, Inc.
  
 This software contains proprietary and confidential information,
 including trade secrets, belonging to Gaussian, Inc.
  
 This software is provided under written license and may be
 used, copied, transmitted, or stored only in accord with that
 written license.
  
 The following legend is applicable only to US Government
 contracts under DFARS:
  
                    RESTRICTED RIGHTS LEGEND
  
 Use, duplication or disclosure by the US Government is subject
 to restrictions as set forth in subparagraph (c)(1)(ii) of the
 Rights in Technical Data and Computer Software clause at DFARS
 252.227-7013.
  
 Gaussian, Inc.
 Carnegie Office Park, Building 6, Pittsburgh, PA 15106 USA
  
 The following legend is applicable only to US Government
 contracts under FAR:
  
                    RESTRICTED RIGHTS LEGEND
  
 Use, reproduction and disclosure by the US Government is subject
 to restrictions as set forth in subparagraph (c) of the
 Commercial Computer Software - Restricted Rights clause at FAR
 52.227-19.
  
 Gaussian, Inc.
 Carnegie Office Park, Building 6, Pittsburgh, PA 15106 USA
  
  
 ---------------------------------------------------------------
 Warning -- This program may not be used in any manner that
 competes with the business of Gaussian, Inc. or will provide
 assistance to any competitor of Gaussian, Inc.  The licensee
 of this program is prohibited from giving any competitor of
 Gaussian, Inc. access to this program.  By using this program,
 the user acknowledges that Gaussian, Inc. is engaged in the
 business of creating and licensing software in the field of
 computational chemistry and represents and warrants to the
 licensee that it is not a competitor of Gaussian, Inc. and that
 it will not use this program in any manner prohibited above.
 ---------------------------------------------------------------
  

 Cite this work as:
 Gaussian 03, Revision B.05,
 M. J. Frisch, G. W. Trucks, H. B. Schlegel, G. E. Scuseria, 
 M. A. Robb, J. R. Cheeseman, J. A. Montgomery, Jr., T. Vreven, 
 K. N. Kudin, J. C. Burant, J. M. Millam, S. S. Iyengar, J. Tomasi, 
 V. Barone, B. Mennucci, M. Cossi, G. Scalmani, N. Rega, 
 G. A. Petersson, H. Nakatsuji, M. Hada, M. Ehara, K. Toyota, 
 R. Fukuda, J. Hasegawa, M. Ishida, T. Nakajima, Y. Honda, O. Kitao, 
 H. Nakai, M. Klene, X. Li, J. E. Knox, H. P. Hratchian, J. B. Cross, 
 C. Adamo, J. Jaramillo, R. Gomperts, R. E. Stratmann, O. Yazyev, 
 A. J. Austin, R. Cammi, C. Pomelli, J. W. Ochterski, P. Y. Ayala, 
 K. Morokuma, G. A. Voth, P. Salvador, J. J. Dannenberg, 
 V. G. Zakrzewski, S. Dapprich, A. D. Daniels, M. C. Strain, 
 O. Farkas, D. K. Malick, A. D. Rabuck, K. Raghavachari, 
 J. B. Foresman, J. V. Ortiz, Q. Cui, A. G. Baboul, S. Clifford, 
 J. Cioslowski, B. B. Stefanov, G. Liu, A. Liashenko, P. Piskorz, 
 I. Komaromi, R. L. Martin, D. J. Fox, T. Keith, M. A. Al-Laham, 
 C. Y. Peng, A. Nanayakkara, M. Challacombe, P. M. W. Gill, 
 B. Johnson, W. Chen, M. W. Wong, C. Gonzalez, and J. A. Pople, 
 Gaussian, Inc., Pittsburgh PA, 2003.
 
 **********************************************
 Gaussian 03:  x86-Win32-G03RevB.05  8-Nov-2003
                  04-Jan-2005 
 **********************************************
 %mem=24000000
 ------------------------
 #HF/6-311G(d,p) opt freq
 ------------------------
 1/18=20,38=1/1,3;
 2/9=110,17=6,18=5,40=1/2;
 3/5=4,6=6,7=101,11=9,16=1,25=1,30=1/1,2,3;
 4//1;
 5/5=2,38=5/2;
 6/7=2,8=2,9=2,10=2,28=1/1;
 7//1,2,3,16;
 1/18=20/3(1);
 99//99;
 2/9=110/2;
 3/5=4,6=6,7=101,11=9,16=1,25=1,30=1/1,2,3;
 4/5=5,16=3/1;
 5/5=2,38=5/2;
 7//1,2,3,16;
 1/18=20/3(-5);
 2/9=110/2;
 6/7=2,8=2,9=2,10=2,19=2,28=1/1;
 99/9=1/99;
 ----------------------------------------------------------
 1H tetrazole c CH-NH-N=N-N= casno=288948 method=1 basis=21
 ----------------------------------------------------------
 Symbolic Z-matrix:
 Charge =  0 Multiplicity = 1
 7                    -1.12329  -0.25456   0. 
 7                    -0.67158   0.91328   0. 
 7                     0.65055   0.80984   0. 
 1                     1.224     1.62189   0. 
 7                    -0.13465  -1.16105   0. 
 6                     0.96218  -0.48332   0. 
 1                     1.95569  -0.87454   0. 
 

 GradGradGradGradGradGradGradGradGradGradGradGradGradGradGradGradGradGrad
 Berny optimization.
 Initialization pass.
                           ----------------------------
                           !    Initial Parameters    !
                           ! (Angstroms and Degrees)  !
 --------------------------                            --------------------------
 ! Name  Definition              Value          Derivative Info.                !
 --------------------------------------------------------------------------------
 ! R1    R(1,2)                  1.2522         estimate D2E/DX2                !
 ! R2    R(1,5)                  1.3413         estimate D2E/DX2                !
 ! R3    R(2,3)                  1.3262         estimate D2E/DX2                !
 ! R4    R(3,4)                  0.9941         estimate D2E/DX2                !
 ! R5    R(3,6)                  1.3302         estimate D2E/DX2                !
 ! R6    R(5,6)                  1.2893         estimate D2E/DX2                !
 ! R7    R(6,7)                  1.0678         estimate D2E/DX2                !
 ! A1    A(2,1,5)              111.3714         estimate D2E/DX2                !
 ! A2    A(1,2,3)              106.673          estimate D2E/DX2                !
 ! A3    A(2,3,4)              120.7559         estimate D2E/DX2                !
 ! A4    A(2,3,6)              108.0227         estimate D2E/DX2                !
 ! A5    A(4,3,6)              131.2214         estimate D2E/DX2                !
 ! A6    A(1,5,6)              105.77           estimate D2E/DX2                !
 ! A7    A(3,6,5)              108.1628         estimate D2E/DX2                !
 ! A8    A(3,6,7)              125.0426         estimate D2E/DX2                !
 ! A9    A(5,6,7)              126.7945         estimate D2E/DX2                !
 ! D1    D(5,1,2,3)              0.0            estimate D2E/DX2                !
 ! D2    D(2,1,5,6)              0.0            estimate D2E/DX2                !
 ! D3    D(1,2,3,4)            180.0            estimate D2E/DX2                !
 ! D4    D(1,2,3,6)              0.0            estimate D2E/DX2                !
 ! D5    D(2,3,6,5)              0.0            estimate D2E/DX2                !
 ! D6    D(2,3,6,7)            180.0            estimate D2E/DX2                !
 ! D7    D(4,3,6,5)            180.0            estimate D2E/DX2                !
 ! D8    D(4,3,6,7)              0.0            estimate D2E/DX2                !
 ! D9    D(1,5,6,3)              0.0            estimate D2E/DX2                !
 ! D10   D(1,5,6,7)            180.0            estimate D2E/DX2                !
 --------------------------------------------------------------------------------
 Trust Radius=3.00D-01 FncErr=1.00D-07 GrdErr=1.00D-07
 Number of steps in this run=  36 maximum allowed number of steps= 100.
 GradGradGradGradGradGradGradGradGradGradGradGradGradGradGradGradGradGrad

                          Input orientation:                          
 ---------------------------------------------------------------------
 Center     Atomic     Atomic              Coordinates (Angstroms)
 Number     Number      Type              X           Y           Z
 ---------------------------------------------------------------------
    1          7             0       -1.123293   -0.254560    0.000000
    2          7             0       -0.671576    0.913277    0.000000
    3          7             0        0.650545    0.809842    0.000000
    4          1             0        1.224004    1.621891    0.000000
    5          7             0       -0.134646   -1.161053    0.000000
    6          6             0        0.962183   -0.483316    0.000000
    7          1             0        1.955691   -0.874535    0.000000
 ---------------------------------------------------------------------
                    Distance matrix (angstroms):
                    1          2          3          4          5
     1  N    0.000000
     2  N    1.252155   0.000000
     3  N    2.068684   1.326161   0.000000
     4  H    3.005141   2.023699   0.994122   0.000000
     5  N    1.341325   2.142694   2.121545   3.096887   0.000000
     6  C    2.097985   2.149335   1.330179   2.121426   1.289326
     7  H    3.140782   3.177861   2.130852   2.601444   2.109882
                    6          7
     6  C    0.000000
     7  H    1.067760   0.000000
 Stoichiometry    CH2N4
 Framework group  CS[SG(CH2N4)]
 Deg. of freedom    11
 Full point group                 CS      NOp   2
 Largest Abelian subgroup         CS      NOp   2
 Largest concise Abelian subgroup C1      NOp   1
                         Standard orientation:                         
 ---------------------------------------------------------------------
 Center     Atomic     Atomic              Coordinates (Angstroms)
 Number     Number      Type              X           Y           Z
 ---------------------------------------------------------------------
    1          7             0       -0.716312   -0.901934    0.000000
    2          7             0       -1.095520    0.291420    0.000000
    3          7             0        0.000000    1.038775    0.000000
    4          1             0       -0.061479    2.030994    0.000000
    5          7             0        0.622151   -0.989495    0.000000
    6          6             0        1.052813    0.225779    0.000000
    7          1             0        2.072370    0.542976    0.000000
 ---------------------------------------------------------------------
 Rotational constants (GHZ):     10.9198664     10.7343935      5.4131678
 Standard basis: 6-311G(d,p) (5D, 7F)
 There are    75 symmetry adapted basis functions of A'  symmetry.
 There are    27 symmetry adapted basis functions of A"  symmetry.
 Integral buffers will be    262144 words long.
 Raffenetti 1 integral format.
 Two-electron integral symmetry is turned on.
   102 basis functions,   176 primitive gaussians,   107 cartesian basis functions
    18 alpha electrons       18 beta electrons
       nuclear repulsion energy       169.8288291610 Hartrees.
 NAtoms=    7 NActive=    7 NUniq=    7 SFac= 1.00D+00 NAtFMM=   60 Big=F
 One-electron integrals computed using PRISM.
 NBasis=   102 RedAO= T  NBF=    75    27
 NBsUse=   102 1.00D-06 NBFU=    75    27
 Harris functional with IExCor=  205 diagonalized for initial guess.
 ExpMin= 1.03D-01 ExpMax= 6.29D+03 ExpMxC= 9.49D+02 IAcc=1 IRadAn=         1 AccDes= 1.00D-06
 HarFok:  IExCor= 205 AccDes= 1.00D-06 IRadAn=         1 IDoV=1
 ScaDFX=  1.000000  1.000000  1.000000  1.000000
 Initial guess orbital symmetries:
       Occupied  (A') (A') (A') (A') (A') (A') (A') (A') (A') (A')
                 (A') (A') (A") (A') (A") (A') (A") (A')
       Virtual   (A") (A") (A') (A') (A') (A') (A') (A') (A') (A')
                 (A") (A') (A') (A') (A') (A") (A') (A") (A') (A')
                 (A') (A") (A") (A') (A') (A') (A') (A') (A') (A")
                 (A') (A") (A') (A') (A") (A') (A") (A") (A') (A')
                 (A") (A') (A") (A') (A') (A') (A') (A') (A") (A")
                 (A') (A') (A") (A') (A') (A") (A') (A') (A") (A")
                 (A') (A') (A') (A') (A') (A') (A") (A') (A") (A')
                 (A") (A") (A') (A') (A') (A') (A') (A') (A') (A')
                 (A') (A') (A') (A')
 The electronic state of the initial guess is 1-A'.
 Requested convergence on RMS density matrix=1.00D-08 within 128 cycles.
 Requested convergence on MAX density matrix=1.00D-06.
 Requested convergence on             energy=1.00D-06.
 No special actions if energy rises.
 Keep R1 integrals in memory in canonical form, NReq=    17805065.
 SCF Done:  E(RHF) =  -256.816032943     A.U. after   15 cycles
             Convg  =    0.4420D-08             -V/T =  1.9997
             S**2   =   0.0000

 **********************************************************************

            Population analysis using the SCF density.

 **********************************************************************

 Orbital symmetries:
       Occupied  (A') (A') (A') (A') (A') (A') (A') (A') (A') (A')
                 (A') (A") (A') (A') (A') (A') (A") (A")
       Virtual   (A') (A") (A') (A") (A') (A') (A') (A') (A') (A")
                 (A') (A') (A') (A') (A") (A') (A') (A") (A') (A')
                 (A") (A') (A') (A") (A') (A') (A') (A') (A') (A")
                 (A') (A') (A") (A') (A") (A') (A") (A') (A") (A')
                 (A') (A") (A") (A') (A') (A') (A') (A') (A") (A")
                 (A') (A') (A') (A") (A') (A") (A') (A') (A") (A")
                 (A') (A') (A') (A') (A') (A') (A') (A") (A") (A')
                 (A") (A") (A') (A') (A') (A') (A') (A') (A') (A')
                 (A') (A') (A') (A')
 The electronic state is 1-A'.
 Alpha  occ. eigenvalues --  -15.67682 -15.65375 -15.63435 -15.59297 -11.33138
 Alpha  occ. eigenvalues --   -1.52234  -1.26732  -1.21100  -0.91491  -0.89752
 Alpha  occ. eigenvalues --   -0.81071  -0.69001  -0.68463  -0.57394  -0.47684
 Alpha  occ. eigenvalues --   -0.46490  -0.45951  -0.42562
 Alpha virt. eigenvalues --    0.12900   0.14484   0.16920   0.19582   0.33536
 Alpha virt. eigenvalues --    0.36642   0.38177   0.48085   0.53626   0.56153
 Alpha virt. eigenvalues --    0.61956   0.64870   0.68985   0.74534   0.77366
 Alpha virt. eigenvalues --    0.78033   0.79450   0.81030   0.82999   0.88664
 Alpha virt. eigenvalues --    0.91610   0.94393   0.95530   0.96422   1.04603
 Alpha virt. eigenvalues --    1.07678   1.15221   1.21018   1.24156   1.28385
 Alpha virt. eigenvalues --    1.41383   1.45422   1.46223   1.59989   1.61227
 Alpha virt. eigenvalues --    1.76006   1.87213   1.89911   1.91262   2.04777
 Alpha virt. eigenvalues --    2.09304   2.09455   2.18089   2.18824   2.39800
 Alpha virt. eigenvalues --    2.45172   2.57668   2.60893   2.67952   2.68745
 Alpha virt. eigenvalues --    2.73688   2.79371   2.83531   2.88234   2.91036
 Alpha virt. eigenvalues --    2.99062   3.02204   3.15633   3.16312   3.17891
 Alpha virt. eigenvalues --    3.19761   3.27449   3.53409   3.57000   3.77835
 Alpha virt. eigenvalues --    3.90977   3.99601   3.99794   4.12234   4.27431
 Alpha virt. eigenvalues --    4.32594   4.41904   4.45310   4.48092   4.92426
 Alpha virt. eigenvalues --    5.08087   5.34229   5.50207   6.30229  25.07076
 Alpha virt. eigenvalues --   36.65533  36.93183  37.00917  37.06934
          Condensed to atoms (all electrons):
              1          2          3          4          5          6
     1  N    6.639301   0.350251  -0.092839   0.005991   0.317129  -0.149564
     2  N    0.350251   6.697222   0.222986  -0.026150  -0.107918  -0.111059
     3  N   -0.092839   0.222986   6.541786   0.376992  -0.066505   0.367183
     4  H    0.005991  -0.026150   0.376992   0.400561   0.005833  -0.027706
     5  N    0.317129  -0.107918  -0.066505   0.005833   6.650106   0.519002
     6  C   -0.149564  -0.111059   0.367183  -0.027706   0.519002   4.671429
     7  H    0.001527   0.002387  -0.029739  -0.000658  -0.017984   0.425297
              7
     1  N    0.001527
     2  N    0.002387
     3  N   -0.029739
     4  H   -0.000658
     5  N   -0.017984
     6  C    0.425297
     7  H    0.470682
 Mulliken atomic charges:
              1
     1  N   -0.071796
     2  N   -0.027719
     3  N   -0.319864
     4  H    0.265137
     5  N   -0.299665
     6  C    0.305419
     7  H    0.148488
 Sum of Mulliken charges=   0.00000
 Atomic charges with hydrogens summed into heavy atoms:
              1
     1  N   -0.071796
     2  N   -0.027719
     3  N   -0.054726
     4  H    0.000000
     5  N   -0.299665
     6  C    0.453907
     7  H    0.000000
 Sum of Mulliken charges=   0.00000
 Electronic spatial extent (au):  <R**2>=   244.8045
 Charge=     0.0000 electrons
 Dipole moment (field-independent basis, Debye):
    X=     2.6532    Y=     4.9643    Z=     0.0000  Tot=     5.6288
 Quadrupole moment (field-independent basis, Debye-Ang):
   XX=   -28.7835   YY=   -26.7077   ZZ=   -28.4655
   XY=     1.9988   XZ=     0.0000   YZ=     0.0000
 Traceless Quadrupole moment (field-independent basis, Debye-Ang):
   XX=    -0.7980   YY=     1.2779   ZZ=    -0.4800
   XY=     1.9988   XZ=     0.0000   YZ=     0.0000
 Octapole moment (field-independent basis, Debye-Ang**2):
  XXX=    12.5783  YYY=    22.9067  ZZZ=     0.0000  XYY=    -0.6962
  XXY=     5.0270  XXZ=     0.0000  XZZ=    -0.6551  YZZ=     0.6367
  YYZ=     0.0000  XYZ=     0.0000
 Hexadecapole moment (field-independent basis, Debye-Ang**3):
 XXXX=  -137.8074 YYYY=  -117.2139 ZZZZ=   -25.5952 XXXY=     6.9402
 XXXZ=     0.0000 YYYX=    -0.0718 YYYZ=     0.0000 ZZZX=     0.0000
 ZZZY=     0.0000 XXYY=   -52.3739 XXZZ=   -29.7750 YYZZ=   -28.3248
 XXYZ=     0.0000 YYXZ=     0.0000 ZZXY=     0.0585
 N-N= 1.698288291610D+02 E-N=-9.415946162174D+02  KE= 2.568818964064D+02
 Symmetry A'   KE= 2.478501753824D+02
 Symmetry A"   KE= 9.031721024005D+00
 ***** Axes restored to original set *****
 -------------------------------------------------------------------
 Center     Atomic                   Forces (Hartrees/Bohr)
 Number     Number              X              Y              Z
 -------------------------------------------------------------------
    1          7           0.003083865    0.004318823    0.000000000
    2          7           0.000224717   -0.005928260    0.000000000
    3          7          -0.000973066    0.002063117    0.000000000
    4          1          -0.000699905   -0.001458476    0.000000000
    5          7           0.001560897    0.002120637    0.000000000
    6          6          -0.003509564   -0.000893798    0.000000000
    7          1           0.000313056   -0.000222043    0.000000000
 -------------------------------------------------------------------
 Cartesian Forces:  Max     0.005928260 RMS     0.002085942

 GradGradGradGradGradGradGradGradGradGradGradGradGradGradGradGradGradGrad
 Berny optimization.
 Internal  Forces:  Max     0.005225392 RMS     0.001372748
 Search for a local minimum.
 Step number   1 out of a maximum of  36
 All quantities printed in internal units (Hartrees-Bohrs-Radians)
 Second derivative matrix not updated -- first step.
     Eigenvalues ---    0.02505   0.02639   0.02674   0.02834   0.16000
     Eigenvalues ---    0.16000   0.22605   0.24688   0.37515   0.48737
     Eigenvalues ---    0.50885   0.56605   0.58506   0.66912   0.78894
     Eigenvalues --- 1000.000001000.000001000.000001000.000001000.00000
     Eigenvalues --- 1000.000001000.000001000.000001000.000001000.00000
     Eigenvalues --- 1000.00000
 RFO step:  Lambda=-7.16195524D-05.
 Linear search not attempted -- first point.
 Iteration  1 RMS(Cart)=  0.00177294 RMS(Int)=  0.00000162
 Iteration  2 RMS(Cart)=  0.00000166 RMS(Int)=  0.00000047
 Iteration  3 RMS(Cart)=  0.00000000 RMS(Int)=  0.00000047
 Variable       Old X    -DE/DX   Delta X   Delta X   Delta X     New X
                                 (Linear)    (Quad)   (Total)
    R1        2.36623  -0.00523   0.00000  -0.00662  -0.00662   2.35961
    R2        2.53474  -0.00127   0.00000  -0.00253  -0.00253   2.53221
    R3        2.50608  -0.00217   0.00000  -0.00357  -0.00357   2.50251
    R4        1.87862  -0.00160   0.00000  -0.00327  -0.00327   1.87535
    R5        2.51367  -0.00053   0.00000  -0.00048  -0.00048   2.51319
    R6        2.43647  -0.00318   0.00000  -0.00433  -0.00433   2.43214
    R7        2.01777   0.00037   0.00000   0.00099   0.00099   2.01877
    A1        1.94380   0.00065   0.00000   0.00088   0.00088   1.94468
    A2        1.86179   0.00069   0.00000   0.00184   0.00184   1.86364
    A3        2.10759   0.00068   0.00000   0.00290   0.00290   2.11049
    A4        1.88535  -0.00085   0.00000  -0.00263  -0.00263   1.88272
    A5        2.29025   0.00017   0.00000  -0.00027  -0.00027   2.28998
    A6        1.84604  -0.00039   0.00000  -0.00133  -0.00133   1.84471
    A7        1.88780  -0.00010   0.00000   0.00124   0.00124   1.88903
    A8        2.18241   0.00014   0.00000  -0.00004  -0.00004   2.18237
    A9        2.21298  -0.00004   0.00000  -0.00120  -0.00120   2.21179
    D1        0.00000   0.00000   0.00000   0.00000   0.00000   0.00000
    D2        0.00000   0.00000   0.00000   0.00000   0.00000   0.00000
    D3        3.14159   0.00000   0.00000   0.00000   0.00000   3.14159
    D4        0.00000   0.00000   0.00000   0.00000   0.00000   0.00000
    D5        0.00000   0.00000   0.00000   0.00000   0.00000   0.00000
    D6        3.14159   0.00000   0.00000   0.00000   0.00000   3.14159
    D7        3.14159   0.00000   0.00000   0.00000   0.00000   3.14159
    D8        0.00000   0.00000   0.00000   0.00000   0.00000   0.00000
    D9        0.00000   0.00000   0.00000   0.00000   0.00000   0.00000
   D10        3.14159   0.00000   0.00000   0.00000   0.00000   3.14159
         Item               Value     Threshold  Converged?
 Maximum Force            0.005225     0.000450     NO 
 RMS     Force            0.001373     0.000300     NO 
 Maximum Displacement     0.004678     0.001800     NO 
 RMS     Displacement     0.001773     0.001200     NO 
 Predicted change in Energy=-3.581130D-05
 GradGradGradGradGradGradGradGradGradGradGradGradGradGradGradGradGradGrad

                          Input orientation:                          
 ---------------------------------------------------------------------
 Center     Atomic     Atomic              Coordinates (Angstroms)
 Number     Number      Type              X           Y           Z
 ---------------------------------------------------------------------
    1          7             0       -1.120818   -0.253499    0.000000
    2          7             0       -0.670530    0.911132    0.000000
    3          7             0        0.649911    0.810465    0.000000
    4          1             0        1.223111    1.620576    0.000000
    5          7             0       -0.133829   -1.159821    0.000000
    6          6             0        0.960652   -0.482645    0.000000
    7          1             0        1.954410   -0.874662    0.000000
 ---------------------------------------------------------------------
                    Distance matrix (angstroms):
                    1          2          3          4          5
     1  N    0.000000
     2  N    1.248650   0.000000
     3  N    2.065793   1.324273   0.000000
     4  H    3.001027   2.022174   0.992390   0.000000
     5  N    1.339987   2.139368   2.120442   3.093848   0.000000
     6  C    2.094044   2.145547   1.329922   2.119534   1.287033
     7  H    3.137335   3.174803   2.131049   2.600195   2.107619
                    6          7
     6  C    0.000000
     7  H    1.068285   0.000000
 Stoichiometry    CH2N4
 Framework group  CS[SG(CH2N4)]
 Deg. of freedom    11
 Full point group                 CS      NOp   2
 Largest Abelian subgroup         CS      NOp   2
 Largest concise Abelian subgroup C1      NOp   1
                         Standard orientation:                         
 ---------------------------------------------------------------------
 Center     Atomic     Atomic              Coordinates (Angstroms)
 Number     Number      Type              X           Y           Z
 ---------------------------------------------------------------------
    1          7             0       -0.716143   -0.899252    0.000000
    2          7             0       -1.093241    0.291094    0.000000
    3          7             0        0.000000    1.038437    0.000000
    4          1             0       -0.059455    2.029045    0.000000
    5          7             0        0.620830   -0.989084    0.000000
    6          6             0        1.051251    0.223843    0.000000
    7          1             0        2.071826    0.539532    0.000000
 ---------------------------------------------------------------------
 Rotational constants (GHZ):     10.9513160     10.7615166      5.4277934
 Standard basis: 6-311G(d,p) (5D, 7F)
 There are    75 symmetry adapted basis functions of A'  symmetry.
 There are    27 symmetry adapted basis functions of A"  symmetry.
 Integral buffers will be    262144 words long.
 Raffenetti 1 integral format.
 Two-electron integral symmetry is turned on.
   102 basis functions,   176 primitive gaussians,   107 cartesian basis functions
    18 alpha electrons       18 beta electrons
       nuclear repulsion energy       170.0638323114 Hartrees.
 NAtoms=    7 NActive=    7 NUniq=    7 SFac= 1.00D+00 NAtFMM=   60 Big=F
 One-electron integrals computed using PRISM.
 NBasis=   102 RedAO= T  NBF=    75    27
 NBsUse=   102 1.00D-06 NBFU=    75    27
 Initial guess read from the read-write file:
 Initial guess orbital symmetries:
       Occupied  (A') (A') (A') (A') (A') (A') (A') (A') (A') (A')
                 (A') (A") (A') (A') (A') (A') (A") (A")
       Virtual   (A') (A") (A') (A") (A') (A') (A') (A') (A') (A")
                 (A') (A') (A') (A') (A") (A') (A') (A") (A') (A')
                 (A") (A') (A') (A") (A') (A') (A') (A') (A') (A")
                 (A') (A') (A") (A') (A") (A') (A") (A') (A") (A')
                 (A') (A") (A") (A') (A') (A') (A') (A') (A") (A")
                 (A') (A') (A') (A") (A') (A") (A') (A') (A") (A")
                 (A') (A') (A') (A') (A') (A') (A') (A") (A") (A')
                 (A") (A") (A') (A') (A') (A') (A') (A') (A') (A')
                 (A') (A') (A') (A')
 Requested convergence on RMS density matrix=1.00D-08 within 128 cycles.
 Requested convergence on MAX density matrix=1.00D-06.
 Requested convergence on             energy=1.00D-06.
 No special actions if energy rises.
 Keep R1 integrals in memory in canonical form, NReq=    17805065.
 SCF Done:  E(RHF) =  -256.816069183     A.U. after   10 cycles
             Convg  =    0.4940D-08             -V/T =  1.9996
             S**2   =   0.0000
 ***** Axes restored to original set *****
 -------------------------------------------------------------------
 Center     Atomic                   Forces (Hartrees/Bohr)
 Number     Number              X              Y              Z
 -------------------------------------------------------------------
    1          7          -0.000681242    0.001105645    0.000000000
    2          7          -0.000444654   -0.000703290    0.000000000
    3          7          -0.000146582    0.000458880    0.000000000
    4          1           0.000123509    0.000044917    0.000000000
    5          7           0.000845169    0.000022278    0.000000000
    6          6           0.000286687   -0.000953253    0.000000000
    7          1           0.000017113    0.000024823    0.000000000
 -------------------------------------------------------------------
 Cartesian Forces:  Max     0.001105645 RMS     0.000454334

 GradGradGradGradGradGradGradGradGradGradGradGradGradGradGradGradGradGrad
 Berny optimization.
 Internal  Forces:  Max     0.000862266 RMS     0.000281472
 Search for a local minimum.
 Step number   2 out of a maximum of  36
 All quantities printed in internal units (Hartrees-Bohrs-Radians)
 Update second derivatives using D2CorX and points  1  2
 Trust test= 1.01D+00 RLast= 1.09D-02 DXMaxT set to 3.00D-01
     Eigenvalues ---    0.02505   0.02640   0.02674   0.02833   0.15879
     Eigenvalues ---    0.16012   0.23249   0.24667   0.37495   0.48576
     Eigenvalues ---    0.51040   0.54833   0.60899   0.68700   0.73998
     Eigenvalues --- 1000.000001000.000001000.000001000.000001000.00000
     Eigenvalues --- 1000.000001000.000001000.000001000.000001000.00000
     Eigenvalues --- 1000.00000
 RFO step:  Lambda=-4.25771282D-06.
 Quartic linear search produced a step of  0.00931.
 Iteration  1 RMS(Cart)=  0.00057934 RMS(Int)=  0.00000018
 Iteration  2 RMS(Cart)=  0.00000018 RMS(Int)=  0.00000003
 Variable       Old X    -DE/DX   Delta X   Delta X   Delta X     New X
                                 (Linear)    (Quad)   (Total)
    R1        2.35961  -0.00066  -0.00006  -0.00118  -0.00125   2.35836
    R2        2.53221   0.00086  -0.00002   0.00137   0.00135   2.53355
    R3        2.50251   0.00035  -0.00003   0.00040   0.00037   2.50288
    R4        1.87535   0.00011  -0.00003   0.00006   0.00003   1.87538
    R5        2.51319   0.00055   0.00000   0.00096   0.00096   2.51415
    R6        2.43214  -0.00031  -0.00004  -0.00061  -0.00065   2.43149
    R7        2.01877   0.00001   0.00001   0.00007   0.00008   2.01884
    A1        1.94468  -0.00020   0.00001  -0.00100  -0.00099   1.94369
    A2        1.86364   0.00017   0.00002   0.00061   0.00063   1.86427
    A3        2.11049   0.00004   0.00003   0.00037   0.00039   2.11088
    A4        1.88272   0.00006  -0.00002   0.00031   0.00029   1.88301
    A5        2.28998  -0.00010   0.00000  -0.00068  -0.00068   2.28930
    A6        1.84471   0.00031  -0.00001   0.00129   0.00128   1.84598
    A7        1.88903  -0.00034   0.00001  -0.00122  -0.00121   1.88783
    A8        2.18237   0.00014   0.00000   0.00045   0.00045   2.18282
    A9        2.21179   0.00020  -0.00001   0.00077   0.00076   2.21254
    D1        0.00000   0.00000   0.00000   0.00000   0.00000   0.00000
    D2        0.00000   0.00000   0.00000   0.00000   0.00000   0.00000
    D3        3.14159   0.00000   0.00000   0.00000   0.00000   3.14159
    D4        0.00000   0.00000   0.00000   0.00000   0.00000   0.00000
    D5        0.00000   0.00000   0.00000   0.00000   0.00000   0.00000
    D6        3.14159   0.00000   0.00000   0.00000   0.00000   3.14159
    D7        3.14159   0.00000   0.00000   0.00000   0.00000   3.14159
    D8        0.00000   0.00000   0.00000   0.00000   0.00000   0.00000
    D9        0.00000   0.00000   0.00000   0.00000   0.00000   0.00000
   D10        3.14159   0.00000   0.00000   0.00000   0.00000   3.14159
         Item               Value     Threshold  Converged?
 Maximum Force            0.000862     0.000450     NO 
 RMS     Force            0.000281     0.000300     YES
 Maximum Displacement     0.001322     0.001800     YES
 RMS     Displacement     0.000579     0.001200     YES
 Predicted change in Energy=-2.132076D-06
 GradGradGradGradGradGradGradGradGradGradGradGradGradGradGradGradGradGrad

                          Input orientation:                          
 ---------------------------------------------------------------------
 Center     Atomic     Atomic              Coordinates (Angstroms)
 Number     Number      Type              X           Y           Z
 ---------------------------------------------------------------------
    1          7             0       -1.121517   -0.252972    0.000000
    2          7             0       -0.670972    0.910854    0.000000
    3          7             0        0.649682    0.810440    0.000000
    4          1             0        1.223045    1.620455    0.000000
    5          7             0       -0.133494   -1.159219    0.000000
    6          6             0        0.961176   -0.483010    0.000000
    7          1             0        1.954988   -0.875002    0.000000
 ---------------------------------------------------------------------
                    Distance matrix (angstroms):
                    1          2          3          4          5
     1  N    0.000000
     2  N    1.247991   0.000000
     3  N    2.065912   1.324466   0.000000
     4  H    3.001117   2.022581   0.992406   0.000000
     5  N    1.340699   2.138711   2.119652   3.093023   0.000000
     6  C    2.095359   2.146337   1.330429   2.119703   1.286686
     7  H    3.138759   3.175681   2.131792   2.600586   2.107733
                    6          7
     6  C    0.000000
     7  H    1.068326   0.000000
 Stoichiometry    CH2N4
 Framework group  CS[SG(CH2N4)]
 Deg. of freedom    11
 Full point group                 CS      NOp   2
 Largest Abelian subgroup         CS      NOp   2
 Largest concise Abelian subgroup C1      NOp   1
                         Standard orientation:                         
 ---------------------------------------------------------------------
 Center     Atomic     Atomic              Coordinates (Angstroms)
 Number     Number      Type              X           Y           Z
 ---------------------------------------------------------------------
    1          7             0       -0.716913   -0.899262    0.000000
    2          7             0       -1.093271    0.290627    0.000000
    3          7             0        0.000000    1.038270    0.000000
    4          1             0       -0.059239    2.028906    0.000000
    5          7             0        0.620818   -0.988429    0.000000
    6          6             0        1.052027    0.223850    0.000000
    7          1             0        2.072638    0.539561    0.000000
 ---------------------------------------------------------------------
 Rotational constants (GHZ):     10.9518319     10.7582711      5.4270943
 Standard basis: 6-311G(d,p) (5D, 7F)
 There are    75 symmetry adapted basis functions of A'  symmetry.
 There are    27 symmetry adapted basis functions of A"  symmetry.
 Integral buffers will be    262144 words long.
 Raffenetti 1 integral format.
 Two-electron integral symmetry is turned on.
   102 basis functions,   176 primitive gaussians,   107 cartesian basis functions
    18 alpha electrons       18 beta electrons
       nuclear repulsion energy       170.0550689048 Hartrees.
 NAtoms=    7 NActive=    7 NUniq=    7 SFac= 1.00D+00 NAtFMM=   60 Big=F
 One-electron integrals computed using PRISM.
 NBasis=   102 RedAO= T  NBF=    75    27
 NBsUse=   102 1.00D-06 NBFU=    75    27
 Initial guess read from the read-write file:
 Initial guess orbital symmetries:
       Occupied  (A') (A') (A') (A') (A') (A') (A') (A') (A') (A')
                 (A') (A") (A') (A') (A') (A') (A") (A")
       Virtual   (A') (A") (A') (A") (A') (A') (A') (A') (A') (A")
                 (A') (A') (A') (A') (A") (A') (A') (A") (A') (A')
                 (A") (A') (A') (A") (A') (A') (A') (A') (A') (A")
                 (A') (A') (A") (A') (A") (A') (A") (A') (A") (A')
                 (A') (A") (A") (A') (A') (A') (A') (A') (A") (A")
                 (A') (A') (A') (A") (A') (A") (A') (A') (A") (A")
                 (A') (A') (A') (A') (A') (A') (A') (A") (A") (A')
                 (A") (A") (A') (A') (A') (A') (A') (A') (A') (A')
                 (A') (A') (A') (A')
 Requested convergence on RMS density matrix=1.00D-08 within 128 cycles.
 Requested convergence on MAX density matrix=1.00D-06.
 Requested convergence on             energy=1.00D-06.
 No special actions if energy rises.
 Keep R1 integrals in memory in canonical form, NReq=    17805065.
 SCF Done:  E(RHF) =  -256.816070943     A.U. after    9 cycles
             Convg  =    0.8780D-08             -V/T =  1.9996
             S**2   =   0.0000
 ***** Axes restored to original set *****
 -------------------------------------------------------------------
 Center     Atomic                   Forces (Hartrees/Bohr)
 Number     Number              X              Y              Z
 -------------------------------------------------------------------
    1          7           0.000019104    0.000277384    0.000000000
    2          7          -0.000040738    0.000124982    0.000000000
    3          7           0.000096046    0.000394356    0.000000000
    4          1           0.000022833    0.000091340    0.000000000
    5          7           0.000322282   -0.000698971    0.000000000
    6          6          -0.000381476   -0.000221604    0.000000000
    7          1          -0.000038051    0.000032513    0.000000000
 -------------------------------------------------------------------
 Cartesian Forces:  Max     0.000698971 RMS     0.000224431

 GradGradGradGradGradGradGradGradGradGradGradGradGradGradGradGradGradGrad
 Berny optimization.
 Internal  Forces:  Max     0.000396655 RMS     0.000167377
 Search for a local minimum.
 Step number   3 out of a maximum of  36
 All quantities printed in internal units (Hartrees-Bohrs-Radians)
 Update second derivatives using D2CorX and points  1  2  3
 Trust test= 8.26D-01 RLast= 3.28D-03 DXMaxT set to 3.00D-01
     Eigenvalues ---    0.02505   0.02640   0.02674   0.02833   0.15682
     Eigenvalues ---    0.16027   0.22779   0.32770   0.37550   0.42886
     Eigenvalues ---    0.49259   0.51157   0.60581   0.68937   0.83975
     Eigenvalues --- 1000.000001000.000001000.000001000.000001000.00000
     Eigenvalues --- 1000.000001000.000001000.000001000.000001000.00000
     Eigenvalues --- 1000.00000
 RFO step:  Lambda=-1.56666236D-06.
 Quartic linear search produced a step of -0.14841.
 Iteration  1 RMS(Cart)=  0.00035464 RMS(Int)=  0.00000009
 Iteration  2 RMS(Cart)=  0.00000008 RMS(Int)=  0.00000003
 Variable       Old X    -DE/DX   Delta X   Delta X   Delta X     New X
                                 (Linear)    (Quad)   (Total)
    R1        2.35836   0.00011   0.00018  -0.00061  -0.00043   2.35793
    R2        2.53355   0.00036  -0.00020   0.00119   0.00099   2.53455
    R3        2.50288  -0.00006  -0.00005   0.00004  -0.00001   2.50287
    R4        1.87538   0.00009   0.00000   0.00012   0.00011   1.87549
    R5        2.51415   0.00039  -0.00014   0.00104   0.00090   2.51504
    R6        2.43149  -0.00007   0.00010  -0.00049  -0.00039   2.43110
    R7        2.01884  -0.00005  -0.00001  -0.00005  -0.00006   2.01878
    A1        1.94369   0.00028   0.00015   0.00050   0.00065   1.94434
    A2        1.86427  -0.00007  -0.00009   0.00010   0.00001   1.86427
    A3        2.11088   0.00003  -0.00006   0.00034   0.00028   2.11116
    A4        1.88301  -0.00012  -0.00004  -0.00042  -0.00046   1.88255
    A5        2.28930   0.00009   0.00010   0.00008   0.00018   2.28948
    A6        1.84598  -0.00040  -0.00019  -0.00074  -0.00092   1.84506
    A7        1.88783   0.00031   0.00018   0.00055   0.00073   1.88856
    A8        2.18282  -0.00017  -0.00007  -0.00043  -0.00050   2.18232
    A9        2.21254  -0.00014  -0.00011  -0.00012  -0.00023   2.21231
    D1        0.00000   0.00000   0.00000   0.00000   0.00000   0.00000
    D2        0.00000   0.00000   0.00000   0.00000   0.00000   0.00000
    D3        3.14159   0.00000   0.00000   0.00000   0.00000   3.14159
    D4        0.00000   0.00000   0.00000   0.00000   0.00000   0.00000
    D5        0.00000   0.00000   0.00000   0.00000   0.00000   0.00000
    D6        3.14159   0.00000   0.00000   0.00000   0.00000   3.14159
    D7        3.14159   0.00000   0.00000   0.00000   0.00000   3.14159
    D8        0.00000   0.00000   0.00000   0.00000   0.00000   0.00000
    D9        0.00000   0.00000   0.00000   0.00000   0.00000   0.00000
   D10        3.14159   0.00000   0.00000   0.00000   0.00000   3.14159
         Item               Value     Threshold  Converged?
 Maximum Force            0.000397     0.000450     YES
 RMS     Force            0.000167     0.000300     YES
 Maximum Displacement     0.001180     0.001800     YES
 RMS     Displacement     0.000355     0.001200     YES
 Predicted change in Energy=-8.384661D-07
 Optimization completed.
    -- Stationary point found.
                           ----------------------------
                           !   Optimized Parameters   !
                           ! (Angstroms and Degrees)  !
 --------------------------                            --------------------------
 ! Name  Definition              Value          Derivative Info.                !
 --------------------------------------------------------------------------------
 ! R1    R(1,2)                  1.248          -DE/DX =    0.0001              !
 ! R2    R(1,5)                  1.3407         -DE/DX =    0.0004              !
 ! R3    R(2,3)                  1.3245         -DE/DX =   -0.0001              !
 ! R4    R(3,4)                  0.9924         -DE/DX =    0.0001              !
 ! R5    R(3,6)                  1.3304         -DE/DX =    0.0004              !
 ! R6    R(5,6)                  1.2867         -DE/DX =   -0.0001              !
 ! R7    R(6,7)                  1.0683         -DE/DX =    0.0                 !
 ! A1    A(2,1,5)              111.3655         -DE/DX =    0.0003              !
 ! A2    A(1,2,3)              106.8146         -DE/DX =   -0.0001              !
 ! A3    A(2,3,4)              120.9444         -DE/DX =    0.0                 !
 ! A4    A(2,3,6)              107.8884         -DE/DX =   -0.0001              !
 ! A5    A(4,3,6)              131.1672         -DE/DX =    0.0001              !
 ! A6    A(1,5,6)              105.7671         -DE/DX =   -0.0004              !
 ! A7    A(3,6,5)              108.1645         -DE/DX =    0.0003              !
 ! A8    A(3,6,7)              125.0663         -DE/DX =   -0.0002              !
 ! A9    A(5,6,7)              126.7693         -DE/DX =   -0.0001              !
 ! D1    D(5,1,2,3)              0.0            -DE/DX =    0.0                 !
 ! D2    D(2,1,5,6)              0.0            -DE/DX =    0.0                 !
 ! D3    D(1,2,3,4)            180.0            -DE/DX =    0.0                 !
 ! D4    D(1,2,3,6)              0.0            -DE/DX =    0.0                 !
 ! D5    D(2,3,6,5)              0.0            -DE/DX =    0.0                 !
 ! D6    D(2,3,6,7)            180.0            -DE/DX =    0.0                 !
 ! D7    D(4,3,6,5)            180.0            -DE/DX =    0.0                 !
 ! D8    D(4,3,6,7)              0.0            -DE/DX =    0.0                 !
 ! D9    D(1,5,6,3)              0.0            -DE/DX =    0.0                 !
 ! D10   D(1,5,6,7)            180.0            -DE/DX =    0.0                 !
 --------------------------------------------------------------------------------
 GradGradGradGradGradGradGradGradGradGradGradGradGradGradGradGradGradGrad

                          Input orientation:                          
 ---------------------------------------------------------------------
 Center     Atomic     Atomic              Coordinates (Angstroms)
 Number     Number      Type              X           Y           Z
 ---------------------------------------------------------------------
    1          7             0       -1.121517   -0.252972    0.000000
    2          7             0       -0.670972    0.910854    0.000000
    3          7             0        0.649682    0.810440    0.000000
    4          1             0        1.223045    1.620455    0.000000
    5          7             0       -0.133494   -1.159219    0.000000
    6          6             0        0.961176   -0.483010    0.000000
    7          1             0        1.954988   -0.875002    0.000000
 ---------------------------------------------------------------------
                    Distance matrix (angstroms):
                    1          2          3          4          5
     1  N    0.000000
     2  N    1.247991   0.000000
     3  N    2.065912   1.324466   0.000000
     4  H    3.001117   2.022581   0.992406   0.000000
     5  N    1.340699   2.138711   2.119652   3.093023   0.000000
     6  C    2.095359   2.146337   1.330429   2.119703   1.286686
     7  H    3.138759   3.175681   2.131792   2.600586   2.107733
                    6          7
     6  C    0.000000
     7  H    1.068326   0.000000
 Stoichiometry    CH2N4
 Framework group  CS[SG(CH2N4)]
 Deg. of freedom    11
 Full point group                 CS      NOp   2
 Largest Abelian subgroup         CS      NOp   2
 Largest concise Abelian subgroup C1      NOp   1
                         Standard orientation:                         
 ---------------------------------------------------------------------
 Center     Atomic     Atomic              Coordinates (Angstroms)
 Number     Number      Type              X           Y           Z
 ---------------------------------------------------------------------
    1          7             0       -0.716913   -0.899262    0.000000
    2          7             0       -1.093271    0.290627    0.000000
    3          7             0        0.000000    1.038270    0.000000
    4          1             0       -0.059239    2.028906    0.000000
    5          7             0        0.620818   -0.988429    0.000000
    6          6             0        1.052027    0.223850    0.000000
    7          1             0        2.072638    0.539561    0.000000
 ---------------------------------------------------------------------
 Rotational constants (GHZ):     10.9518319     10.7582711      5.4270943

 **********************************************************************

            Population analysis using the SCF density.

 **********************************************************************

 Orbital symmetries:
       Occupied  (A') (A') (A') (A') (A') (A') (A') (A') (A') (A')
                 (A') (A") (A') (A') (A') (A') (A") (A")
       Virtual   (A') (A") (A') (A") (A') (A') (A') (A') (A') (A")
                 (A') (A') (A') (A') (A") (A') (A') (A") (A') (A')
                 (A") (A') (A') (A") (A') (A') (A') (A') (A') (A")
                 (A') (A') (A") (A') (A") (A') (A") (A') (A") (A')
                 (A') (A") (A") (A') (A') (A') (A') (A') (A") (A")
                 (A') (A') (A') (A") (A') (A") (A') (A') (A") (A")
                 (A') (A') (A') (A') (A') (A') (A') (A") (A") (A')
                 (A") (A") (A') (A') (A') (A') (A') (A') (A') (A')
                 (A') (A') (A') (A')
 The electronic state is 1-A'.
 Alpha  occ. eigenvalues --  -15.67616 -15.65325 -15.63356 -15.59226 -11.33089
 Alpha  occ. eigenvalues --   -1.52453  -1.26787  -1.21250  -0.91529  -0.89794
 Alpha  occ. eigenvalues --   -0.81142  -0.69110  -0.68521  -0.57424  -0.47661
 Alpha  occ. eigenvalues --   -0.46427  -0.45969  -0.42657
 Alpha virt. eigenvalues --    0.12923   0.14584   0.16935   0.19695   0.33591
 Alpha virt. eigenvalues --    0.36642   0.38224   0.48266   0.53786   0.56144
 Alpha virt. eigenvalues --    0.61959   0.65036   0.68982   0.74494   0.77315
 Alpha virt. eigenvalues --    0.77996   0.79527   0.81001   0.83042   0.88967
 Alpha virt. eigenvalues --    0.91633   0.94491   0.95663   0.96456   1.04668
 Alpha virt. eigenvalues --    1.07728   1.15230   1.21195   1.24240   1.28385
 Alpha virt. eigenvalues --    1.41450   1.45410   1.46321   1.59960   1.61261
 Alpha virt. eigenvalues --    1.76060   1.87226   1.90072   1.91285   2.04837
 Alpha virt. eigenvalues --    2.09481   2.09543   2.18255   2.18973   2.39951
 Alpha virt. eigenvalues --    2.45279   2.58034   2.61180   2.67908   2.68994
 Alpha virt. eigenvalues --    2.73827   2.79489   2.83583   2.88363   2.91099
 Alpha virt. eigenvalues --    2.99383   3.02354   3.15959   3.16415   3.18352
 Alpha virt. eigenvalues --    3.20006   3.27739   3.53846   3.57464   3.78229
 Alpha virt. eigenvalues --    3.91177   3.99701   3.99858   4.12351   4.27690
 Alpha virt. eigenvalues --    4.32727   4.42142   4.45870   4.48590   4.92542
 Alpha virt. eigenvalues --    5.08091   5.34573   5.50830   6.30833  25.07425
 Alpha virt. eigenvalues --   36.65613  36.93525  37.01633  37.08000
          Condensed to atoms (all electrons):
              1          2          3          4          5          6
     1  N    6.639450   0.351240  -0.093440   0.006018   0.316962  -0.149713
     2  N    0.351240   6.694999   0.223140  -0.026225  -0.108441  -0.110930
     3  N   -0.093440   0.223140   6.542358   0.377520  -0.067150   0.367141
     4  H    0.006018  -0.026225   0.377520   0.400608   0.005875  -0.027829
     5  N    0.316962  -0.108441  -0.067150   0.005875   6.649278   0.521225
     6  C   -0.149713  -0.110930   0.367141  -0.027829   0.521225   4.669976
     7  H    0.001547   0.002381  -0.029817  -0.000646  -0.018006   0.425359
              7
     1  N    0.001547
     2  N    0.002381
     3  N   -0.029817
     4  H   -0.000646
     5  N   -0.018006
     6  C    0.425359
     7  H    0.470907
 Mulliken atomic charges:
              1
     1  N   -0.072065
     2  N   -0.026164
     3  N   -0.319751
     4  H    0.264679
     5  N   -0.299744
     6  C    0.304770
     7  H    0.148275
 Sum of Mulliken charges=   0.00000
 Atomic charges with hydrogens summed into heavy atoms:
              1
     1  N   -0.072065
     2  N   -0.026164
     3  N   -0.055072
     4  H    0.000000
     5  N   -0.299744
     6  C    0.453045
     7  H    0.000000
 Sum of Mulliken charges=   0.00000
 Electronic spatial extent (au):  <R**2>=   244.3350
 Charge=     0.0000 electrons
 Dipole moment (field-independent basis, Debye):
    X=     2.6512    Y=     4.9556    Z=     0.0000  Tot=     5.6202
 Quadrupole moment (field-independent basis, Debye-Ang):
   XX=   -28.7715   YY=   -26.7153   ZZ=   -28.4412
   XY=     1.9938   XZ=     0.0000   YZ=     0.0000
 Traceless Quadrupole moment (field-independent basis, Debye-Ang):
   XX=    -0.7955   YY=     1.2607   ZZ=    -0.4652
   XY=     1.9938   XZ=     0.0000   YZ=     0.0000
 Octapole moment (field-independent basis, Debye-Ang**2):
  XXX=    12.5532  YYY=    22.8387  ZZZ=     0.0000  XYY=    -0.6879
  XXY=     5.0092  XXZ=     0.0000  XZZ=    -0.6646  YZZ=     0.6337
  YYZ=     0.0000  XYZ=     0.0000
 Hexadecapole moment (field-independent basis, Debye-Ang**3):
 XXXX=  -137.5191 YYYY=  -116.9426 ZZZZ=   -25.5535 XXXY=     6.8779
 XXXZ=     0.0000 YYYX=    -0.0283 YYYZ=     0.0000 ZZZX=     0.0000
 ZZZY=     0.0000 XXYY=   -52.2674 XXZZ=   -29.7108 YYZZ=   -28.2501
 XXYZ=     0.0000 YYXZ=     0.0000 ZZXY=     0.0578
 N-N= 1.700550689048D+02 E-N=-9.420708258586D+02  KE= 2.569152472413D+02
 Symmetry A'   KE= 2.478769164269D+02
 Symmetry A"   KE= 9.038330814388D+00
 1|1|UNPC-UNK|FOpt|RHF|6-311G(d,p)|C1H2N4|PCUSER|04-Jan-2005|0||#HF/6-3
 11G(D,P) OPT FREQ||1H tetrazole c CH-NH-N=N-N= casno=288948 method=1 b
 asis=21||0,1|N,-1.1218221212,-0.2532804312,0.|N,-0.6712770502,0.910545
 2162,0.|N,0.6493773215,0.8101312773,0.|H,1.2227403106,1.6201464609,0.|
 N,-0.1337994244,-1.1595279384,0.|C,0.9608709257,-0.4833187445,0.|H,1.9
 546830555,-0.8753108604,0.||Version=x86-Win32-G03RevB.05|State=1-A'|HF
 =-256.8160709|RMSD=8.780e-009|RMSF=2.244e-004|Dipole=2.0332674,0.86889
 61,0.|PG=CS [SG(C1H2N4)]||@


 THESE ARE THE TIMES THAT TRY MENS SOULS.
 THE SUMMER SOLDIER AND THE SUNSHINE PATRIOT WILL IN THIS CRISIS,
 SHRINK FROM THE SERVICE OF HIS COUNTRY.  BUT HE THAT STANDS NOW,
 DESERVES THE LOVE AND THANKS OF MAN AND WOMAN.
 TYRANNY, LIKE HELL, IS NOT EASILY CONQUERED,
 YET WE HAVE THIS CONSOLATION WITH US,
 THAT THE HARDER THE CONFLICT, THE MORE GLORIOUS THE TRIUMPH.
 WHAT WE OBTAIN TOO CHEAP, WE ESTEEM TOO LIGHTLY, 
 'TIS DEARNESS ONLY THAT GIVES EVERYTHING ITS VALUE.

                                              -- TOM PAINE
 Job cpu time:  0 days  0 hours  0 minutes 56.0 seconds.
 File lengths (MBytes):  RWF=     15 Int=      0 D2E=      0 Chk=      5 Scr=      1
 Normal termination of Gaussian 03 at Tue Jan 04 17:57:28 2005.
 Link1:  Proceeding to internal job step number  2.
 ------------------------------------------------------------------
 #N Geom=AllCheck Guess=Read SCRF=Check GenChk RHF/6-311G(d,p) Freq
 ------------------------------------------------------------------
 1/10=4,29=7,30=1,38=1,40=1,46=1/1,3;
 2/40=1/2;
 3/5=4,6=6,7=101,11=1,16=1,25=1,30=1,70=2,71=2/1,2,3;
 4/5=1,7=1/1;
 5/5=2,38=6/2;
 8/6=4,10=90,11=11/1;
 10/13=10/2;
 11/6=2,8=1,9=11,15=111,16=1/1,2,10;
 10/6=1/2;
 6/7=2,8=2,9=2,10=2,18=1,28=1/1;
 7/8=1,10=1,25=1/1,2,3,16;
 1/10=4,30=1,46=1/3;
 99//99;
 ----------------------------------------------------------
 1H tetrazole c CH-NH-N=N-N= casno=288948 method=1 basis=21
 ----------------------------------------------------------
 Redundant internal coordinates taken from checkpoint file:
 gxx.chk
 Charge =  0 Multiplicity = 1
 N,0,-1.1218221212,-0.2532804312,0.
 N,0,-0.6712770502,0.9105452162,0.
 N,0,0.6493773215,0.8101312773,0.
 H,0,1.2227403106,1.6201464609,0.
 N,0,-0.1337994244,-1.1595279384,0.
 C,0,0.9608709257,-0.4833187445,0.
 H,0,1.9546830555,-0.8753108604,0.
 Recover connectivity data from disk.

 GradGradGradGradGradGradGradGradGradGradGradGradGradGradGradGradGradGrad
 Berny optimization.
 Initialization pass.
                           ----------------------------
                           !    Initial Parameters    !
                           ! (Angstroms and Degrees)  !
 --------------------------                            --------------------------
 ! Name  Definition              Value          Derivative Info.                !
 --------------------------------------------------------------------------------
 ! R1    R(1,2)                  1.248          calculate D2E/DX2 analytically  !
 ! R2    R(1,5)                  1.3407         calculate D2E/DX2 analytically  !
 ! R3    R(2,3)                  1.3245         calculate D2E/DX2 analytically  !
 ! R4    R(3,4)                  0.9924         calculate D2E/DX2 analytically  !
 ! R5    R(3,6)                  1.3304         calculate D2E/DX2 analytically  !
 ! R6    R(5,6)                  1.2867         calculate D2E/DX2 analytically  !
 ! R7    R(6,7)                  1.0683         calculate D2E/DX2 analytically  !
 ! A1    A(2,1,5)              111.3655         calculate D2E/DX2 analytically  !
 ! A2    A(1,2,3)              106.8146         calculate D2E/DX2 analytically  !
 ! A3    A(2,3,4)              120.9444         calculate D2E/DX2 analytically  !
 ! A4    A(2,3,6)              107.8884         calculate D2E/DX2 analytically  !
 ! A5    A(4,3,6)              131.1672         calculate D2E/DX2 analytically  !
 ! A6    A(1,5,6)              105.7671         calculate D2E/DX2 analytically  !
 ! A7    A(3,6,5)              108.1645         calculate D2E/DX2 analytically  !
 ! A8    A(3,6,7)              125.0663         calculate D2E/DX2 analytically  !
 ! A9    A(5,6,7)              126.7693         calculate D2E/DX2 analytically  !
 ! D1    D(5,1,2,3)              0.0            calculate D2E/DX2 analytically  !
 ! D2    D(2,1,5,6)              0.0            calculate D2E/DX2 analytically  !
 ! D3    D(1,2,3,4)            180.0            calculate D2E/DX2 analytically  !
 ! D4    D(1,2,3,6)              0.0            calculate D2E/DX2 analytically  !
 ! D5    D(2,3,6,5)              0.0            calculate D2E/DX2 analytically  !
 ! D6    D(2,3,6,7)            180.0            calculate D2E/DX2 analytically  !
 ! D7    D(4,3,6,5)            180.0            calculate D2E/DX2 analytically  !
 ! D8    D(4,3,6,7)              0.0            calculate D2E/DX2 analytically  !
 ! D9    D(1,5,6,3)              0.0            calculate D2E/DX2 analytically  !
 ! D10   D(1,5,6,7)            180.0            calculate D2E/DX2 analytically  !
 --------------------------------------------------------------------------------
 Trust Radius=3.00D-01 FncErr=1.00D-07 GrdErr=1.00D-07
 Number of steps in this run=   2 maximum allowed number of steps=   2.
 GradGradGradGradGradGradGradGradGradGradGradGradGradGradGradGradGradGrad

                          Input orientation:                          
 ---------------------------------------------------------------------
 Center     Atomic     Atomic              Coordinates (Angstroms)
 Number     Number      Type              X           Y           Z
 ---------------------------------------------------------------------
    1          7             0       -1.121822   -0.253280    0.000000
    2          7             0       -0.671277    0.910545    0.000000
    3          7             0        0.649377    0.810131    0.000000
    4          1             0        1.222740    1.620146    0.000000
    5          7             0       -0.133799   -1.159528    0.000000
    6          6             0        0.960871   -0.483319    0.000000
    7          1             0        1.954683   -0.875311    0.000000
 ---------------------------------------------------------------------
                    Distance matrix (angstroms):
                    1          2          3          4          5
     1  N    0.000000
     2  N    1.247991   0.000000
     3  N    2.065912   1.324466   0.000000
     4  H    3.001117   2.022581   0.992406   0.000000
     5  N    1.340699   2.138711   2.119652   3.093023   0.000000
     6  C    2.095359   2.146337   1.330429   2.119703   1.286686
     7  H    3.138759   3.175681   2.131792   2.600586   2.107733
                    6          7
     6  C    0.000000
     7  H    1.068326   0.000000
 Stoichiometry    CH2N4
 Framework group  CS[SG(CH2N4)]
 Deg. of freedom    11
 Full point group                 CS      NOp   2
 Largest Abelian subgroup         CS      NOp   2
 Largest concise Abelian subgroup C1      NOp   1
                         Standard orientation:                         
 ---------------------------------------------------------------------
 Center     Atomic     Atomic              Coordinates (Angstroms)
 Number     Number      Type              X           Y           Z
 ---------------------------------------------------------------------
    1          7             0       -0.716913   -0.899262    0.000000
    2          7             0       -1.093271    0.290627    0.000000
    3          7             0        0.000000    1.038270    0.000000
    4          1             0       -0.059239    2.028906    0.000000
    5          7             0        0.620818   -0.988429    0.000000
    6          6             0        1.052027    0.223850    0.000000
    7          1             0        2.072638    0.539561    0.000000
 ---------------------------------------------------------------------
 Rotational constants (GHZ):     10.9518319     10.7582711      5.4270943
 Standard basis: 6-311G(d,p) (5D, 7F)
 There are    75 symmetry adapted basis functions of A'  symmetry.
 There are    27 symmetry adapted basis functions of A"  symmetry.
 Integral buffers will be    262144 words long.
 Raffenetti 1 integral format.
 Two-electron integral symmetry is turned on.
   102 basis functions,   176 primitive gaussians,   107 cartesian basis functions
    18 alpha electrons       18 beta electrons
       nuclear repulsion energy       170.0550689048 Hartrees.
 NAtoms=    7 NActive=    7 NUniq=    7 SFac= 1.00D+00 NAtFMM=   60 Big=F
 One-electron integrals computed using PRISM.
 NBasis=   102 RedAO= T  NBF=    75    27
 NBsUse=   102 1.00D-06 NBFU=    75    27
 Initial guess read from the checkpoint file:
 gxx.chk
 Initial guess orbital symmetries:
       Occupied  (A') (A') (A') (A') (A') (A') (A') (A') (A') (A')
                 (A') (A") (A') (A') (A') (A') (A") (A")
       Virtual   (A') (A") (A') (A") (A') (A') (A') (A') (A') (A")
                 (A') (A') (A') (A') (A") (A') (A') (A") (A') (A')
                 (A") (A') (A') (A") (A') (A') (A') (A') (A') (A")
                 (A') (A') (A") (A') (A") (A') (A") (A') (A") (A')
                 (A') (A") (A") (A') (A') (A') (A') (A') (A") (A")
                 (A') (A') (A') (A") (A') (A") (A') (A') (A") (A")
                 (A') (A') (A') (A') (A') (A') (A') (A") (A") (A')
                 (A") (A") (A') (A') (A') (A') (A') (A') (A') (A')
                 (A') (A') (A') (A')
 Requested convergence on RMS density matrix=1.00D-08 within 128 cycles.
 Requested convergence on MAX density matrix=1.00D-06.
 Requested convergence on             energy=1.00D-06.
 No special actions if energy rises.
 Keep R1 integrals in memory in canonical form, NReq=    17805065.
 SCF Done:  E(RHF) =  -256.816070943     A.U. after    1 cycles
             Convg  =    0.2484D-08             -V/T =  1.9996
             S**2   =   0.0000
 Range of M.O.s used for correlation:     1   102
 NBasis=   102 NAE=    18 NBE=    18 NFC=     0 NFV=     0
 NROrb=    102 NOA=    18 NOB=    18 NVA=    84 NVB=    84
          Differentiating once with respect to electric field.
                with respect to dipole field.
          Electric field/nuclear overlap derivatives assumed to be zero.
          Store integrals in memory, NReq=    17126112.
          There are   3 degrees of freedom in the 1st order CPHF.
     3 vectors were produced by pass  0.
 AX will form   3 AO Fock derivatives at one time.
     3 vectors were produced by pass  1.
     3 vectors were produced by pass  2.
     3 vectors were produced by pass  3.
     3 vectors were produced by pass  4.
     3 vectors were produced by pass  5.
     3 vectors were produced by pass  6.
     3 vectors were produced by pass  7.
     3 vectors were produced by pass  8.
     3 vectors were produced by pass  9.
     2 vectors were produced by pass 10.
     1 vectors were produced by pass 11.
 Inv2:  IOpt= 1 Iter= 1 AM= 5.88D-16 Conv= 1.00D-12.
 Inverted reduced A of dimension   33 with in-core refinement.
 End of Minotr Frequency-dependent properties file   721 does not exist.
 Symmetrizing basis deriv contribution to polar:
 IMax=3 JMax=2 DiffMx= 0.00D+00
 G2DrvN: will do    8 centers at a time, making    1 passes doing MaxLOS=2.
 FoFDir/FoFCou used for L=0 through L=2.
          Differentiating once with respect to electric field.
                with respect to dipole field.
          Differentiating once with respect to nuclear coordinates.
          Store integrals in memory, NReq=    17126762.
          There are  24 degrees of freedom in the 1st order CPHF.
    21 vectors were produced by pass  0.
 AX will form  21 AO Fock derivatives at one time.
    21 vectors were produced by pass  1.
    21 vectors were produced by pass  2.
    21 vectors were produced by pass  3.
    21 vectors were produced by pass  4.
    21 vectors were produced by pass  5.
    21 vectors were produced by pass  6.
    13 vectors were produced by pass  7.
     3 vectors were produced by pass  8.
 Inv2:  IOpt= 1 Iter= 1 AM= 1.97D-15 Conv= 1.00D-12.
 Inverted reduced A of dimension  163 with in-core refinement.
 Isotropic polarizability for W=    0.000000       29.33 Bohr**3.
 End of Minotr Frequency-dependent properties file   721 does not exist.

 **********************************************************************

            Population analysis using the SCF density.

 **********************************************************************

 Orbital symmetries:
       Occupied  (A') (A') (A') (A') (A') (A') (A') (A') (A') (A')
                 (A') (A") (A') (A') (A') (A') (A") (A")
       Virtual   (A') (A") (A') (A") (A') (A') (A') (A') (A') (A")
                 (A') (A') (A') (A') (A") (A') (A') (A") (A') (A')
                 (A") (A') (A') (A") (A') (A') (A') (A') (A') (A")
                 (A') (A') (A") (A') (A") (A') (A") (A') (A") (A')
                 (A') (A") (A") (A') (A') (A') (A') (A') (A") (A")
                 (A') (A') (A') (A") (A') (A") (A') (A') (A") (A")
                 (A') (A') (A') (A') (A') (A') (A') (A") (A") (A')
                 (A") (A") (A') (A') (A') (A') (A') (A') (A') (A')
                 (A') (A') (A') (A')
 The electronic state is 1-A'.
 Alpha  occ. eigenvalues --  -15.67616 -15.65325 -15.63356 -15.59226 -11.33089
 Alpha  occ. eigenvalues --   -1.52453  -1.26787  -1.21250  -0.91529  -0.89794
 Alpha  occ. eigenvalues --   -0.81142  -0.69110  -0.68521  -0.57424  -0.47661
 Alpha  occ. eigenvalues --   -0.46427  -0.45969  -0.42657
 Alpha virt. eigenvalues --    0.12923   0.14584   0.16935   0.19695   0.33591
 Alpha virt. eigenvalues --    0.36642   0.38224   0.48266   0.53786   0.56144
 Alpha virt. eigenvalues --    0.61959   0.65036   0.68982   0.74494   0.77315
 Alpha virt. eigenvalues --    0.77996   0.79527   0.81001   0.83042   0.88967
 Alpha virt. eigenvalues --    0.91633   0.94491   0.95663   0.96456   1.04668
 Alpha virt. eigenvalues --    1.07728   1.15230   1.21195   1.24240   1.28385
 Alpha virt. eigenvalues --    1.41450   1.45410   1.46321   1.59960   1.61261
 Alpha virt. eigenvalues --    1.76060   1.87226   1.90072   1.91285   2.04837
 Alpha virt. eigenvalues --    2.09481   2.09543   2.18255   2.18973   2.39951
 Alpha virt. eigenvalues --    2.45279   2.58034   2.61180   2.67908   2.68994
 Alpha virt. eigenvalues --    2.73827   2.79489   2.83583   2.88363   2.91099
 Alpha virt. eigenvalues --    2.99383   3.02354   3.15959   3.16415   3.18352
 Alpha virt. eigenvalues --    3.20006   3.27739   3.53846   3.57464   3.78229
 Alpha virt. eigenvalues --    3.91177   3.99701   3.99858   4.12351   4.27690
 Alpha virt. eigenvalues --    4.32727   4.42142   4.45870   4.48590   4.92542
 Alpha virt. eigenvalues --    5.08091   5.34573   5.50830   6.30833  25.07425
 Alpha virt. eigenvalues --   36.65613  36.93525  37.01633  37.08000
          Condensed to atoms (all electrons):
              1          2          3          4          5          6
     1  N    6.639450   0.351240  -0.093440   0.006018   0.316963  -0.149713
     2  N    0.351240   6.694999   0.223140  -0.026225  -0.108441  -0.110930
     3  N   -0.093440   0.223140   6.542358   0.377520  -0.067150   0.367141
     4  H    0.006018  -0.026225   0.377520   0.400608   0.005875  -0.027829
     5  N    0.316963  -0.108441  -0.067150   0.005875   6.649278   0.521226
     6  C   -0.149713  -0.110930   0.367141  -0.027829   0.521226   4.669976
     7  H    0.001547   0.002381  -0.029817  -0.000646  -0.018006   0.425359
              7
     1  N    0.001547
     2  N    0.002381
     3  N   -0.029817
     4  H   -0.000646
     5  N   -0.018006
     6  C    0.425359
     7  H    0.470907
 Mulliken atomic charges:
              1
     1  N   -0.072065
     2  N   -0.026164
     3  N   -0.319751
     4  H    0.264679
     5  N   -0.299744
     6  C    0.304770
     7  H    0.148275
 Sum of Mulliken charges=   0.00000
 Atomic charges with hydrogens summed into heavy atoms:
              1
     1  N   -0.072065
     2  N   -0.026164
     3  N   -0.055072
     4  H    0.000000
     5  N   -0.299744
     6  C    0.453045
     7  H    0.000000
 Sum of Mulliken charges=   0.00000
 APT atomic charges:
              1
     1  N   -0.021162
     2  N   -0.056415
     3  N   -0.319936
     4  H    0.311492
     5  N   -0.387002
     6  C    0.358133
     7  H    0.114889
 Sum of APT charges=   0.00000
 APT Atomic charges with hydrogens summed into heavy atoms:
              1
     1  N   -0.021162
     2  N   -0.056415
     3  N   -0.008444
     4  H    0.000000
     5  N   -0.387002
     6  C    0.473022
     7  H    0.000000
 Sum of APT charges=   0.00000
 Electronic spatial extent (au):  <R**2>=   244.3350
 Charge=     0.0000 electrons
 Dipole moment (field-independent basis, Debye):
    X=     2.6512    Y=     4.9556    Z=     0.0000  Tot=     5.6202
 Quadrupole moment (field-independent basis, Debye-Ang):
   XX=   -28.7715   YY=   -26.7153   ZZ=   -28.4412
   XY=     1.9938   XZ=     0.0000   YZ=     0.0000
 Traceless Quadrupole moment (field-independent basis, Debye-Ang):
   XX=    -0.7955   YY=     1.2607   ZZ=    -0.4652
   XY=     1.9938   XZ=     0.0000   YZ=     0.0000
 Octapole moment (field-independent basis, Debye-Ang**2):
  XXX=    12.5532  YYY=    22.8387  ZZZ=     0.0000  XYY=    -0.6879
  XXY=     5.0092  XXZ=     0.0000  XZZ=    -0.6646  YZZ=     0.6337
  YYZ=     0.0000  XYZ=     0.0000
 Hexadecapole moment (field-independent basis, Debye-Ang**3):
 XXXX=  -137.5191 YYYY=  -116.9426 ZZZZ=   -25.5535 XXXY=     6.8779
 XXXZ=     0.0000 YYYX=    -0.0283 YYYZ=     0.0000 ZZZX=     0.0000
 ZZZY=     0.0000 XXYY=   -52.2674 XXZZ=   -29.7108 YYZZ=   -28.2501
 XXYZ=     0.0000 YYXZ=     0.0000 ZZXY=     0.0578
 N-N= 1.700550689048D+02 E-N=-9.420708261564D+02  KE= 2.569152473669D+02
 Symmetry A'   KE= 2.478769166990D+02
 Symmetry A"   KE= 9.038330667944D+00
  Exact polarizability:  35.212   0.699  35.630   0.000   0.000  17.134
 Approx polarizability:  35.728   0.347  38.277   0.000   0.000  18.476
 Full mass-weighted force constant matrix:
 Low frequencies ---  -20.4929  -12.3335   -0.0011   -0.0009   -0.0005   10.8644
 Low frequencies ---  634.7006  750.9170  815.5727
 Diagonal vibrational polarizability:
        1.2050283       1.3962991       8.6516516
 Diagonal vibrational hyperpolarizability:
       12.8516314       5.4108861       0.0000000
 Harmonic frequencies (cm**-1), IR intensities (KM/Mole), Raman scattering
 activities (A**4/AMU), depolarization ratios for plane and unpolarized
 incident light, reduced masses (AMU), force constants (mDyne/A),
 and normal coordinates:
                     1                      2                      3
                    A"                     A"                     A"
 Frequencies --   634.7006               750.9169               815.5727
 Red. masses --     1.6468                 2.0365                 9.2428
 Frc consts  --     0.3909                 0.6766                 3.6223
 IR Inten    --   115.0266                 7.2127                 8.7716
 Raman Activ --     0.4334                 0.2087                 0.1012
 Depolar (P) --     0.7500                 0.7500                 0.7500
 Depolar (U) --     0.8571                 0.8571                 0.8571
 Atom AN      X      Y      Z        X      Y      Z        X      Y      Z
   1   7     0.00   0.00   0.00     0.00   0.00   0.03     0.00   0.00   0.53
   2   7     0.00   0.00  -0.07     0.00   0.00   0.11     0.00   0.00  -0.45
   3   7     0.00   0.00   0.20     0.00   0.00  -0.11     0.00   0.00   0.14
   4   1     0.00   0.00  -0.94     0.00   0.00  -0.80     0.00   0.00   0.58
   5   7     0.00   0.00   0.03     0.00   0.00  -0.17     0.00   0.00  -0.36
   6   6     0.00   0.00  -0.07     0.00   0.00   0.18     0.00   0.00   0.09
   7   1     0.00   0.00  -0.25     0.00   0.00   0.53     0.00   0.00   0.18
                     4                      5                      6
                    A"                     A'                     A'
 Frequencies --  1016.7695              1090.4944              1113.2751
 Red. masses --     1.3880                 4.5289                 7.7965
 Frc consts  --     0.8454                 3.1731                 5.6932
 IR Inten    --    10.3119                 2.0812                 1.7285
 Raman Activ --     0.1070                 1.7939                 2.6481
 Depolar (P) --     0.7500                 0.5554                 0.6463
 Depolar (U) --     0.8571                 0.7141                 0.7852
 Atom AN      X      Y      Z        X      Y      Z        X      Y      Z
   1   7     0.00   0.00   0.01     0.00   0.19   0.00     0.28  -0.07   0.00
   2   7     0.00   0.00   0.00    -0.17   0.13   0.00     0.24   0.01   0.00
   3   7     0.00   0.00   0.04    -0.08  -0.04   0.00    -0.04   0.38   0.00
   4   1     0.00   0.00   0.02     0.44  -0.01   0.00     0.01   0.41   0.00
   5   7     0.00   0.00   0.03     0.33  -0.23   0.00    -0.08  -0.27   0.00
   6   6     0.00   0.00  -0.18    -0.09  -0.11   0.00    -0.43  -0.06   0.00
   7   1     0.00   0.00   0.98    -0.33   0.65   0.00    -0.37  -0.38   0.00
                     7                      8                      9
                    A'                     A'                     A'
 Frequencies --  1172.5185              1196.9930              1254.6251
 Red. masses --     3.3808                 2.6029                 2.6036
 Frc consts  --     2.7385                 2.1973                 2.4146
 IR Inten    --    27.0918                31.8447                21.7174
 Raman Activ --     5.2275                 1.9165                 7.4731
 Depolar (P) --     0.2238                 0.6469                 0.7296
 Depolar (U) --     0.3657                 0.7856                 0.8437
 Atom AN      X      Y      Z        X      Y      Z        X      Y      Z
   1   7     0.14   0.03   0.00     0.16  -0.01   0.00     0.22   0.14   0.00
   2   7     0.18   0.15   0.00    -0.20  -0.07   0.00    -0.10   0.05   0.00
   3   7    -0.07  -0.26   0.00     0.15  -0.04   0.00    -0.14  -0.06   0.00
   4   1    -0.07  -0.28   0.00     0.93   0.00   0.00    -0.34  -0.08   0.00
   5   7    -0.17   0.00   0.00    -0.11   0.05   0.00    -0.04   0.02   0.00
   6   6    -0.06   0.05   0.00    -0.08   0.08   0.00     0.07  -0.11   0.00
   7   1    -0.31   0.80   0.00    -0.07   0.02   0.00     0.29  -0.82   0.00
                    10                     11                     12
                    A'                     A'                     A'
 Frequencies --  1420.5630              1543.5528              1619.3267
 Red. masses --     2.8194                 5.3129                 3.3405
 Frc consts  --     3.3522                 7.4580                 5.1609
 IR Inten    --     1.6459                36.5331                11.6380
 Raman Activ --    12.0885                17.7291                 8.4011
 Depolar (P) --     0.1045                 0.1242                 0.5508
 Depolar (U) --     0.1892                 0.2210                 0.7103
 Atom AN      X      Y      Z        X      Y      Z        X      Y      Z
   1   7    -0.08  -0.01   0.00    -0.03   0.38   0.00     0.02   0.04   0.00
   2   7     0.13   0.04   0.00     0.06  -0.33   0.00     0.07  -0.12   0.00
   3   7    -0.05  -0.13   0.00     0.19  -0.06   0.00    -0.16   0.12   0.00
   4   1     0.59  -0.11   0.00    -0.73  -0.14   0.00     0.66   0.19   0.00
   5   7     0.14   0.19   0.00    -0.01   0.06   0.00    -0.07   0.16   0.00
   6   6    -0.22  -0.03   0.00    -0.18  -0.06   0.00     0.12  -0.30   0.00
   7   1    -0.05  -0.70   0.00    -0.29   0.16   0.00    -0.13   0.56   0.00
                    13                     14                     15
                    A'                     A'                     A'
 Frequencies --  1715.6018              3441.9633              3909.8618
 Red. masses --     3.8166                 1.1048                 1.0854
 Frc consts  --     6.6185                 7.7119                 9.7758
 IR Inten    --    22.8564                 0.4623               143.6676
 Raman Activ --     2.0197                60.2116                60.0755
 Depolar (P) --     0.6905                 0.2811                 0.2928
 Depolar (U) --     0.8169                 0.4388                 0.4529
 Atom AN      X      Y      Z        X      Y      Z        X      Y      Z
   1   7     0.07  -0.17   0.00     0.00   0.00   0.00     0.00   0.00   0.00
   2   7    -0.13   0.16   0.00     0.00   0.00   0.00     0.00   0.00   0.00
   3   7     0.18   0.02   0.00     0.00   0.00   0.00     0.01  -0.08   0.00
   4   1    -0.76  -0.03   0.00     0.01   0.02   0.00    -0.06   1.00   0.00
   5   7     0.06   0.19   0.00     0.00   0.00   0.00     0.00   0.00   0.00
   6   6    -0.11  -0.26   0.00     0.09   0.03   0.00     0.00   0.00   0.00
   7   1    -0.33   0.29   0.00    -0.95  -0.29   0.00     0.01   0.00   0.00

 -------------------
 - Thermochemistry -
 -------------------
 Temperature   298.150 Kelvin.  Pressure   1.00000 Atm.
 Atom  1 has atomic number  7 and mass  14.00307
 Atom  2 has atomic number  7 and mass  14.00307
 Atom  3 has atomic number  7 and mass  14.00307
 Atom  4 has atomic number  1 and mass   1.00783
 Atom  5 has atomic number  7 and mass  14.00307
 Atom  6 has atomic number  6 and mass  12.00000
 Atom  7 has atomic number  1 and mass   1.00783
 Molecular mass:    70.02795 amu.
 Principal axes and moments of inertia in atomic units:
                           1         2         3
     EIGENVALUES --   164.78898 167.75383 332.54281
           X            0.94564   0.32523   0.00000
           Y           -0.32523   0.94564   0.00000
           Z            0.00000   0.00000   1.00000
 This molecule is an asymmetric top.
 Rotational symmetry number  1.
 Rotational temperatures (Kelvin)      0.52560     0.51631     0.26046
 Rotational constants (GHZ):          10.95183    10.75827     5.42709
 Zero-point vibrational energy     135756.6 (Joules/Mol)
                                   32.44661 (Kcal/Mol)
 Vibrational temperatures:    913.19  1080.40  1173.43  1462.90  1568.98
          (Kelvin)           1601.75  1686.99  1722.20  1805.12  2043.87
                             2220.83  2329.85  2468.37  4952.21  5625.41
 
 Zero-point correction=                           0.051707 (Hartree/Particle)
 Thermal correction to Energy=                    0.054998
 Thermal correction to Enthalpy=                  0.055942
 Thermal correction to Gibbs Free Energy=         0.025724
 Sum of electronic and zero-point Energies=           -256.764364
 Sum of electronic and thermal Energies=              -256.761073
 Sum of electronic and thermal Enthalpies=            -256.760128
 Sum of electronic and thermal Free Energies=         -256.790347
 
                     E (Thermal)             CV                S
                      KCal/Mol        Cal/Mol-Kelvin    Cal/Mol-Kelvin
 Total                   34.512             10.046             63.601
 Electronic               0.000              0.000              0.000
 Translational            0.889              2.981             38.656
 Rotational               0.889              2.981             23.734
 Vibrational             32.734              4.085              1.210
                       Q            Log10(Q)             Ln(Q)
 Total Bot       0.147205D-11        -11.832077        -27.244364
 Total V=0       0.894184D+12         11.951427         27.519178
 Vib (Bot)       0.186205D-23        -23.730010        -54.640367
 Vib (V=0)       0.113108D+01          0.053494          0.123175
 Electronic      0.100000D+01          0.000000          0.000000
 Translational   0.230336D+08          7.362362         16.952466
 Rotational      0.343218D+05          4.535570         10.443537
 ***** Axes restored to original set *****
 -------------------------------------------------------------------
 Center     Atomic                   Forces (Hartrees/Bohr)
 Number     Number              X              Y              Z
 -------------------------------------------------------------------
    1          7           0.000019113    0.000277279    0.000000000
    2          7          -0.000040694    0.000125034    0.000000000
    3          7           0.000096010    0.000394383    0.000000000
    4          1           0.000022846    0.000091366    0.000000000
    5          7           0.000322282   -0.000698897    0.000000000
    6          6          -0.000381503   -0.000221685    0.000000000
    7          1          -0.000038054    0.000032519    0.000000000
 -------------------------------------------------------------------
 Cartesian Forces:  Max     0.000698897 RMS     0.000224423

 GradGradGradGradGradGradGradGradGradGradGradGradGradGradGradGradGradGrad
 Berny optimization.
 Internal  Forces:  Max     0.000396630 RMS     0.000167379
 Search for a local minimum.
 Step number   1 out of a maximum of   2
 All quantities printed in internal units (Hartrees-Bohrs-Radians)
 Second derivative matrix not updated -- analytic derivatives used.
     Eigenvalues ---    0.00964   0.03273   0.08471   0.09069   0.12115
     Eigenvalues ---    0.12628   0.25820   0.31067   0.41434   0.42726
     Eigenvalues ---    0.53318   0.54320   0.59571   0.70103   0.78249
     Eigenvalues --- 1000.000001000.000001000.000001000.000001000.00000
     Eigenvalues --- 1000.000001000.000001000.000001000.000001000.00000
     Eigenvalues --- 1000.00000
 Angle between quadratic step and forces=  27.54 degrees.
 Linear search not attempted -- first point.
 Iteration  1 RMS(Cart)=  0.00035721 RMS(Int)=  0.00000010
 Iteration  2 RMS(Cart)=  0.00000010 RMS(Int)=  0.00000004
 Variable       Old X    -DE/DX   Delta X   Delta X   Delta X     New X
                                 (Linear)    (Quad)   (Total)
    R1        2.35836   0.00011   0.00000  -0.00021  -0.00021   2.35815
    R2        2.53355   0.00036   0.00000   0.00129   0.00129   2.53485
    R3        2.50288  -0.00006   0.00000   0.00015   0.00015   2.50303
    R4        1.87538   0.00009   0.00000   0.00014   0.00014   1.87552
    R5        2.51415   0.00039   0.00000   0.00069   0.00069   2.51483
    R6        2.43149  -0.00007   0.00000  -0.00040  -0.00040   2.43109
    R7        2.01884  -0.00005   0.00000  -0.00006  -0.00006   2.01878
    A1        1.94369   0.00028   0.00000   0.00038   0.00038   1.94407
    A2        1.86427  -0.00007   0.00000   0.00015   0.00015   1.86441
    A3        2.11088   0.00003   0.00000   0.00013   0.00013   2.11100
    A4        1.88301  -0.00012   0.00000  -0.00053  -0.00053   1.88248
    A5        2.28930   0.00009   0.00000   0.00041   0.00041   2.28971
    A6        1.84598  -0.00040   0.00000  -0.00089  -0.00089   1.84510
    A7        1.88783   0.00031   0.00000   0.00089   0.00089   1.88872
    A8        2.18282  -0.00017   0.00000  -0.00075  -0.00075   2.18207
    A9        2.21254  -0.00014   0.00000  -0.00014  -0.00014   2.21240
    D1        0.00000   0.00000   0.00000   0.00000   0.00000   0.00000
    D2        0.00000   0.00000   0.00000   0.00000   0.00000   0.00000
    D3        3.14159   0.00000   0.00000   0.00000   0.00000   3.14159
    D4        0.00000   0.00000   0.00000   0.00000   0.00000   0.00000
    D5        0.00000   0.00000   0.00000   0.00000   0.00000   0.00000
    D6        3.14159   0.00000   0.00000   0.00000   0.00000   3.14159
    D7        3.14159   0.00000   0.00000   0.00000   0.00000   3.14159
    D8        0.00000   0.00000   0.00000   0.00000   0.00000   0.00000
    D9        0.00000   0.00000   0.00000   0.00000   0.00000   0.00000
   D10        3.14159   0.00000   0.00000   0.00000   0.00000   3.14159
         Item               Value     Threshold  Converged?
 Maximum Force            0.000397     0.000450     YES
 RMS     Force            0.000167     0.000300     YES
 Maximum Displacement     0.001274     0.001800     YES
 RMS     Displacement     0.000357     0.001200     YES
 Predicted change in Energy=-8.621243D-07
 Optimization completed.
    -- Stationary point found.
                           ----------------------------
                           !   Optimized Parameters   !
                           ! (Angstroms and Degrees)  !
 --------------------------                            --------------------------
 ! Name  Definition              Value          Derivative Info.                !
 --------------------------------------------------------------------------------
 ! R1    R(1,2)                  1.248          -DE/DX =    0.0001              !
 ! R2    R(1,5)                  1.3407         -DE/DX =    0.0004              !
 ! R3    R(2,3)                  1.3245         -DE/DX =   -0.0001              !
 ! R4    R(3,4)                  0.9924         -DE/DX =    0.0001              !
 ! R5    R(3,6)                  1.3304         -DE/DX =    0.0004              !
 ! R6    R(5,6)                  1.2867         -DE/DX =   -0.0001              !
 ! R7    R(6,7)                  1.0683         -DE/DX =    0.0                 !
 ! A1    A(2,1,5)              111.3655         -DE/DX =    0.0003              !
 ! A2    A(1,2,3)              106.8146         -DE/DX =   -0.0001              !
 ! A3    A(2,3,4)              120.9444         -DE/DX =    0.0                 !
 ! A4    A(2,3,6)              107.8884         -DE/DX =   -0.0001              !
 ! A5    A(4,3,6)              131.1672         -DE/DX =    0.0001              !
 ! A6    A(1,5,6)              105.7671         -DE/DX =   -0.0004              !
 ! A7    A(3,6,5)              108.1645         -DE/DX =    0.0003              !
 ! A8    A(3,6,7)              125.0663         -DE/DX =   -0.0002              !
 ! A9    A(5,6,7)              126.7693         -DE/DX =   -0.0001              !
 ! D1    D(5,1,2,3)              0.0            -DE/DX =    0.0                 !
 ! D2    D(2,1,5,6)              0.0            -DE/DX =    0.0                 !
 ! D3    D(1,2,3,4)            180.0            -DE/DX =    0.0                 !
 ! D4    D(1,2,3,6)              0.0            -DE/DX =    0.0                 !
 ! D5    D(2,3,6,5)              0.0            -DE/DX =    0.0                 !
 ! D6    D(2,3,6,7)            180.0            -DE/DX =    0.0                 !
 ! D7    D(4,3,6,5)            180.0            -DE/DX =    0.0                 !
 ! D8    D(4,3,6,7)              0.0            -DE/DX =    0.0                 !
 ! D9    D(1,5,6,3)              0.0            -DE/DX =    0.0                 !
 ! D10   D(1,5,6,7)            180.0            -DE/DX =    0.0                 !
 --------------------------------------------------------------------------------
 GradGradGradGradGradGradGradGradGradGradGradGradGradGradGradGradGradGrad

 1|1|UNPC-UNK|Freq|RHF|6-311G(d,p)|C1H2N4|PCUSER|04-Jan-2005|0||#N GEOM
 =ALLCHECK GUESS=READ SCRF=CHECK GENCHK RHF/6-311G(D,P) FREQ||1H tetraz
 ole c CH-NH-N=N-N= casno=288948 method=1 basis=21||0,1|N,-1.1218221212
 ,-0.2532804312,0.|N,-0.6712770502,0.9105452162,0.|N,0.6493773215,0.810
 1312773,0.|H,1.2227403106,1.6201464609,0.|N,-0.1337994244,-1.159527938
 4,0.|C,0.9608709257,-0.4833187445,0.|H,1.9546830555,-0.8753108604,0.||
 Version=x86-Win32-G03RevB.05|State=1-A'|HF=-256.8160709|RMSD=2.484e-00
 9|RMSF=2.244e-004|Dipole=2.0332673,0.8688957,0.|DipoleDeriv=-0.0023787
 ,-0.2273138,0.,-0.2141828,0.0873318,0.,0.,0.,-0.1484382,0.2627543,0.35
 05967,0.,0.2410749,-0.3375401,0.,0.,0.,-0.0944604,-0.421276,-0.3575711
 ,0.,-0.2270108,-0.3354894,0.,0.,0.,-0.2030416,0.2539217,0.0712787,0.,0
 .0525405,0.3120659,0.,0.,0.,0.3684882,-0.5257251,0.1620104,0.,-0.06682
 44,-0.3719466,0.,0.,0.,-0.2633333,0.3777992,-0.0104231,0.,0.1954236,0.
 521469,0.,0.,0.,0.1751315,0.0549045,0.0114222,0.,0.018979,0.1241093,0.
 ,0.,0.,0.1656539|Polar=36.0581708,0.3566204,34.7839342,0.,0.,17.133637
 8|PolarDeriv=-8.0336013,-3.5388708,-1.0670393,0.,0.,-0.4755804,-2.9223
 694,3.1004166,-5.2122676,0.,0.,-0.045956,0.,0.,0.,-2.9572808,-1.379927
 1,0.,-1.4824933,0.9829352,-2.2515505,0.,0.,0.2059842,3.606552,-4.92431
 61,10.6033648,0.,0.,0.3375709,0.,0.,0.,-1.3345321,3.1626964,0.,-0.2648
 842,0.5127889,0.3332783,0.,0.,-0.2955122,1.4164016,1.0607797,-1.124097
 8,0.,0.,1.0247091,0.,0.,0.,1.0067445,1.4820814,0.,2.742817,2.4048192,2
 .2811137,0.,0.,-0.1943146,1.8877757,2.7139371,5.5146799,0.,0.,0.089025
 3,0.,0.,0.,0.39478,0.599047,0.,-3.521437,3.4240379,-2.5015854,0.,0.,-0
 .5895238,-2.1621516,-1.5223999,-8.7060709,0.,0.,-0.5030842,0.,0.,0.,-1
 .2103301,-2.8603823,0.,3.309618,-1.495661,1.6492737,0.,0.,0.9944566,0.
 1316342,-2.347837,0.5036136,0.,0.,-0.748164,0.,0.,0.,3.534646,-0.65169
 19,0.,7.2499808,-2.2900494,1.5565094,0.,0.,0.3544903,-1.9578426,1.9194
 198,-1.579222,0.,0.,-0.1541011,0.,0.,0.,0.5659726,-0.3518234,0.|HyperP
 olar=53.2173439,-0.3042027,13.2940112,17.6678734,0.,0.,0.,15.159112,-0
 .4251156,0.|PG=CS [SG(C1H2N4)]|NImag=0||0.69549486,0.14095662,0.681403
 69,0.,0.,0.15192860,-0.19683151,-0.15512921,0.,0.55364868,-0.10265188,
 -0.48829892,0.,-0.00299213,0.84106153,0.,0.,-0.11954029,0.,0.,0.141105
 75,-0.13009821,-0.13798001,0.,-0.28709467,0.02535678,0.,0.81989564,-0.
 03417947,-0.08300497,0.,0.07632285,-0.14757546,0.,0.22669326,1.0856576
 4,0.,0.,0.03399453,0.,0.,-0.08319745,0.,0.,0.11100258,-0.01294942,0.00
 084897,0.,-0.00649376,-0.03907925,0.,-0.23104924,-0.19784534,0.,0.2297
 2805,0.00804111,0.00469353,0.,0.00084403,0.01534689,0.,-0.21000484,-0.
 39277101,0.,0.22149875,0.38479000,0.,0.,0.00885269,0.,0.,-0.01390079,0
 .,0.,-0.00847718,0.,0.,0.01600283,-0.21431026,0.06799467,0.,0.01628178
 ,0.11677132,0.,-0.00987997,-0.14614623,0.,0.00217640,0.00157671,0.,0.6
 0979272,0.03966422,-0.17379771,0.,-0.02506258,-0.14458825,0.,0.0080767
 2,-0.09762443,0.,0.00940923,-0.00713666,0.,0.12355804,0.66561388,0.,0.
 ,-0.10834407,0.,0.,0.04380554,0.,0.,0.02612702,0.,0.,0.00882814,0.,0.,
 0.13240317,-0.13759117,0.08520192,0.,-0.08026947,0.00553446,0.,-0.1680
 3542,0.07825947,0.,0.01910144,-0.02266592,0.,-0.38766909,-0.16890671,0
 .,1.10695475,-0.04512343,0.05990190,0.,0.10769085,-0.06841838,0.,0.050
 33464,-0.36064977,0.,0.00539333,-0.00477648,0.,-0.14405336,-0.26021667
 ,0.,-0.08951466,0.74912078,0.,0.,0.02206732,0.,0.,0.02464478,0.,0.,-0.
 07980752,0.,0.,-0.00986665,0.,0.,-0.09924122,0.,0.,0.18700745,-0.00371
 430,-0.00189295,0.,0.00075895,-0.00293929,0.,0.00626185,-0.00310453,0.
 ,-0.00051349,0.00071015,0.,-0.01639158,0.01326108,0.,-0.35249104,0.115
 27263,0.,0.36608961,-0.00670716,-0.00089751,0.,-0.00167380,-0.00752740
 ,0.,0.03752345,-0.00403200,0.,-0.00022570,-0.00014626,0.,-0.01970115,0
 .01774984,0.,0.11209144,-0.11496138,0.,-0.12130709,0.10981471,0.,0.,0.
 01104121,0.,0.,0.00708245,0.,0.,0.00035802,0.,0.,-0.00143903,0.,0.,-0.
 00357859,0.,0.,-0.04480415,0.,0.,0.03134010||-0.00001911,-0.00027728,0
 .,0.00004069,-0.00012503,0.,-0.00009601,-0.00039438,0.,-0.00002285,-0.
 00009137,0.,-0.00032228,0.00069890,0.,0.00038150,0.00022168,0.,0.00003
 805,-0.00003252,0.|||@


 THESE ARE THE TIMES THAT TRY MENS SOULS.
 THE SUMMER SOLDIER AND THE SUNSHINE PATRIOT WILL IN THIS CRISIS,
 SHRINK FROM THE SERVICE OF HIS COUNTRY.  BUT HE THAT STANDS NOW,
 DESERVES THE LOVE AND THANKS OF MAN AND WOMAN.
 TYRANNY, LIKE HELL, IS NOT EASILY CONQUERED,
 YET WE HAVE THIS CONSOLATION WITH US,
 THAT THE HARDER THE CONFLICT, THE MORE GLORIOUS THE TRIUMPH.
 WHAT WE OBTAIN TOO CHEAP, WE ESTEEM TOO LIGHTLY, 
 'TIS DEARNESS ONLY THAT GIVES EVERYTHING ITS VALUE.

                                              -- TOM PAINE
 Job cpu time:  0 days  0 hours  1 minutes 37.0 seconds.
 File lengths (MBytes):  RWF=     19 Int=      0 D2E=      0 Chk=      5 Scr=      1
 Normal termination of Gaussian 03 at Tue Jan 04 17:59:06 2005.
