 Entering Gaussian System, Link 0=g98
 Initial command:
 /usr/local/apps/g98/g98/l1.exe /wrk/Gau-15768.inp -scrdir=/wrk/
 Entering Link 1 = /usr/local/apps/g98/g98/l1.exe PID=     12686.
  
 Copyright (c) 1988,1990,1992,1993,1995,1998 Gaussian, Inc.
                  All Rights Reserved.
  
 This is part of the Gaussian(R) 98 program.  It is based on
 the Gaussian 94(TM) system (copyright 1995 Gaussian, Inc.),
 the Gaussian 92(TM) system (copyright 1992 Gaussian, Inc.),
 the Gaussian 90(TM) system (copyright 1990 Gaussian, Inc.),
 the Gaussian 88(TM) system (copyright 1988 Gaussian, Inc.),
 the Gaussian 86(TM) system (copyright 1986 Carnegie Mellon
 University), and the Gaussian 82(TM) system (copyright 1983
 Carnegie Mellon University). Gaussian is a federally registered
 trademark of Gaussian, Inc.
  
 This software contains proprietary and confidential information,
 including trade secrets, belonging to Gaussian, Inc.
  
 This software is provided under written license and may be
 used, copied, transmitted, or stored only in accord with that
 written license.
  
 The following legend is applicable only to US Government
 contracts under DFARS:
  
                    RESTRICTED RIGHTS LEGEND
  
 Use, duplication or disclosure by the US Government is subject
 to restrictions as set forth in subparagraph (c)(1)(ii) of the
 Rights in Technical Data and Computer Software clause at DFARS
 252.227-7013.
  
 Gaussian, Inc.
 Carnegie Office Park, Building 6, Pittsburgh, PA 15106 USA
  
 The following legend is applicable only to US Government
 contracts under FAR:
  
                    RESTRICTED RIGHTS LEGEND
  
 Use, reproduction and disclosure by the US Government is subject
 to restrictions as set forth in subparagraph (c) of the
 Commercial Computer Software - Restricted Rights clause at FAR
 52.227-19.
  
 Gaussian, Inc.
 Carnegie Office Park, Building 6, Pittsburgh, PA 15106 USA
  
  
 ---------------------------------------------------------------
 Warning -- This program may not be used in any manner that
 competes with the business of Gaussian, Inc. or will provide
 assistance to any competitor of Gaussian, Inc.  The licensee
 of this program is prohibited from giving any competitor of
 Gaussian, Inc. access to this program.  By using this program,
 the user acknowledges that Gaussian, Inc. is engaged in the
 business of creating and licensing software in the field of
 computational chemistry and represents and warrants to the
 licensee that it is not a competitor of Gaussian, Inc. and that
 it will not use this program in any manner prohibited above.
 ---------------------------------------------------------------
  

 Cite this work as:
 Gaussian 98, Revision A.7,
 M. J. Frisch, G. W. Trucks, H. B. Schlegel, G. E. Scuseria, 
 M. A. Robb, J. R. Cheeseman, V. G. Zakrzewski, J. A. Montgomery, Jr., 
 R. E. Stratmann, J. C. Burant, S. Dapprich, J. M. Millam, 
 A. D. Daniels, K. N. Kudin, M. C. Strain, O. Farkas, J. Tomasi, 
 V. Barone, M. Cossi, R. Cammi, B. Mennucci, C. Pomelli, C. Adamo, 
 S. Clifford, J. Ochterski, G. A. Petersson, P. Y. Ayala, Q. Cui, 
 K. Morokuma, D. K. Malick, A. D. Rabuck, K. Raghavachari, 
 J. B. Foresman, J. Cioslowski, J. V. Ortiz, A. G. Baboul, 
 B. B. Stefanov, G. Liu, A. Liashenko, P. Piskorz, I. Komaromi, 
 R. Gomperts, R. L. Martin, D. J. Fox, T. Keith, M. A. Al-Laham, 
 C. Y. Peng, A. Nanayakkara, C. Gonzalez, M. Challacombe, 
 P. M. W. Gill, B. Johnson, W. Chen, M. W. Wong, J. L. Andres, 
 C. Gonzalez, M. Head-Gordon, E. S. Replogle, and J. A. Pople, 
 Gaussian, Inc., Pittsburgh PA, 1998.

 **********************************************
 Gaussian 98:  IBM-RS6000-G98RevA.7 11-Apr-1999
                  24-Feb-2000 
 **********************************************
 %mem=24000000
 --------------------
 #HF/6-311G* opt freq
 --------------------
 1/18=20,38=1/1,3;
 2/9=110,17=6,18=5/2;
 3/5=4,6=6,7=1,11=9,25=1,30=1/1,2,3;
 4//1;
 5/5=2,38=4/2;
 6/7=2,8=2,9=2,10=2,28=1/1;
 7//1,2,3,16;
 1/18=20/3(1);
 99//99;
 2/9=110/2;
 3/5=4,6=6,7=1,11=9,25=1,30=1/1,2,3;
 4/5=5,16=2/1;
 5/5=2,38=4/2;
 7//1,2,3,16;
 1/18=20/3(-5);
 2/9=110/2;
 6/7=2,8=2,9=2,10=2,19=2,28=1/1;
 99/9=1/99;
 ----------------------------------------
 1H tetrazole c CH-NH-N=N-N= casno=288948
 ----------------------------------------
 Symbolic Z-matrix:
 Charge =  0 Multiplicity = 1
 7                    -1.12329  -0.25456   0. 
 7                    -0.67158   0.91328   0. 
 7                     0.65055   0.80984   0. 
 1                     1.224     1.62189   0. 
 7                    -0.13465  -1.16105   0. 
 6                     0.96218  -0.48332   0. 
 1                     1.95569  -0.87454   0. 

 GradGradGradGradGradGradGradGradGradGradGradGradGradGradGradGradGradGrad
 Berny optimization.
 Initialization pass.
                         ----------------------------
                         !    Initial Parameters    !
                         ! (Angstroms and Degrees)  !
 ------------------------                            -------------------------
 ! Name  Definition              Value          Derivative Info.             !
 -----------------------------------------------------------------------------
 ! R1    R(1,2)                  1.2522         estimate D2E/DX2             !
 ! R2    R(1,5)                  1.3413         estimate D2E/DX2             !
 ! R3    R(2,3)                  1.3262         estimate D2E/DX2             !
 ! R4    R(3,4)                  0.9941         estimate D2E/DX2             !
 ! R5    R(3,6)                  1.3302         estimate D2E/DX2             !
 ! R6    R(5,6)                  1.2893         estimate D2E/DX2             !
 ! R7    R(6,7)                  1.0678         estimate D2E/DX2             !
 ! A1    A(2,1,5)              111.3714         estimate D2E/DX2             !
 ! A2    A(1,2,3)              106.673          estimate D2E/DX2             !
 ! A3    A(2,3,4)              120.7559         estimate D2E/DX2             !
 ! A4    A(2,3,6)              108.0227         estimate D2E/DX2             !
 ! A5    A(4,3,6)              131.2214         estimate D2E/DX2             !
 ! A6    A(1,5,6)              105.77           estimate D2E/DX2             !
 ! A7    A(3,6,5)              108.1628         estimate D2E/DX2             !
 ! A8    A(3,6,7)              125.0426         estimate D2E/DX2             !
 ! A9    A(5,6,7)              126.7945         estimate D2E/DX2             !
 ! D1    D(5,1,2,3)              0.             estimate D2E/DX2             !
 ! D2    D(2,1,5,6)              0.             estimate D2E/DX2             !
 ! D3    D(1,2,3,4)            180.             estimate D2E/DX2             !
 ! D4    D(1,2,3,6)              0.             estimate D2E/DX2             !
 ! D5    D(2,3,6,5)              0.             estimate D2E/DX2             !
 ! D6    D(2,3,6,7)            180.             estimate D2E/DX2             !
 ! D7    D(4,3,6,5)            180.             estimate D2E/DX2             !
 ! D8    D(4,3,6,7)              0.             estimate D2E/DX2             !
 ! D9    D(1,5,6,3)              0.             estimate D2E/DX2             !
 ! D10   D(1,5,6,7)            180.             estimate D2E/DX2             !
 -----------------------------------------------------------------------------
 Trust Radius=3.00D-01 FncErr=1.00D-07 GrdErr=1.00D-07
 Number of steps in this run=  36 maximum allowed number of steps= 100.
 GradGradGradGradGradGradGradGradGradGradGradGradGradGradGradGradGradGrad

                          Input orientation:                          
 ---------------------------------------------------------------------
 Center     Atomic     Atomic              Coordinates (Angstroms)
 Number     Number      Type              X           Y           Z
 ---------------------------------------------------------------------
    1          7             0       -1.123293    -.254560     .000000
    2          7             0        -.671576     .913277     .000000
    3          7             0         .650545     .809842     .000000
    4          1             0        1.224004    1.621891     .000000
    5          7             0        -.134646   -1.161053     .000000
    6          6             0         .962183    -.483316     .000000
    7          1             0        1.955691    -.874535     .000000
 ---------------------------------------------------------------------
                    Distance matrix (angstroms):
                    1          2          3          4          5
     1  N     .000000
     2  N    1.252155    .000000
     3  N    2.068684   1.326161    .000000
     4  H    3.005141   2.023699    .994122    .000000
     5  N    1.341325   2.142694   2.121545   3.096887    .000000
     6  C    2.097985   2.149335   1.330179   2.121426   1.289326
     7  H    3.140782   3.177861   2.130852   2.601444   2.109882
                    6          7
     6  C     .000000
     7  H    1.067760    .000000
 Stoichiometry    CH2N4
 Framework group  CS[SG(CH2N4)]
 Deg. of freedom   11
 Full point group                 CS      NOp   2
 Largest Abelian subgroup         CS      NOp   2
 Largest concise Abelian subgroup C1      NOp   1
                         Standard orientation:                         
 ---------------------------------------------------------------------
 Center     Atomic     Atomic              Coordinates (Angstroms)
 Number     Number      Type              X           Y           Z
 ---------------------------------------------------------------------
    1          7             0        -.716312    -.901934     .000000
    2          7             0       -1.095520     .291420     .000000
    3          7             0         .000000    1.038775     .000000
    4          1             0        -.061479    2.030994     .000000
    5          7             0         .622151    -.989495     .000000
    6          6             0        1.052813     .225779     .000000
    7          1             0        2.072370     .542976     .000000
 ---------------------------------------------------------------------
 Rotational constants (GHZ):     10.9198679     10.7343949      5.4131685
 Isotopes: N-14,N-14,N-14,H-1,N-14,C-12,H-1
 Standard basis: 6-311G(d) (5D, 7F)
 There are    71 symmetry adapted basis functions of A'  symmetry.
 There are    25 symmetry adapted basis functions of A"  symmetry.
 Crude estimate of integral set expansion from redundant integrals=1.000.
 Integral buffers will be    262144 words long.
 Raffenetti 1 integral format.
 Two-electron integral symmetry is turned on.
    96 basis functions      170 primitive gaussians
    18 alpha electrons       18 beta electrons
       nuclear repulsion energy       169.8288422228 Hartrees.
 One-electron integrals computed using PRISM.
 NBasis=    96 RedAO= T  NBF=    71    25
 NBsUse=    96 1.00D-04 NBFU=    71    25
 Projected INDO Guess.
 Initial guess orbital symmetries:
       Occupied  (A') (A') (A') (A') (A') (A') (A') (A') (A') (A')
                 (A') (A") (A') (A') (A") (A") (A') (A')
       Virtual   (A") (A') (A") (A') (A') (A') (A') (A') (A') (A')
                 (A') (A') (A') (A') (A') (A') (A') (A') (A') (A')
                 (A') (A') (A') (A') (A') (A') (A') (A') (A') (A')
                 (A') (A') (A') (A') (A') (A') (A') (A') (A') (A')
                 (A') (A') (A') (A') (A') (A') (A') (A') (A') (A')
                 (A') (A') (A') (A') (A') (A') (A') (A') (A") (A")
                 (A") (A") (A") (A") (A") (A") (A") (A") (A") (A")
                 (A") (A") (A") (A") (A") (A") (A") (A")
 Requested convergence on RMS density matrix=1.00D-08 within  64 cycles.
 Requested convergence on MAX density matrix=1.00D-06.
 Keep R1 integrals in memory in canonical form, NReq=    13832762.
 SCF Done:  E(RHF) =  -256.810744814     A.U. after   15 cycles
             Convg  =     .2926D-08             -V/T =  1.9997
             S**2   =    .0000

 **********************************************************************

            Population analysis using the SCF density.

 **********************************************************************

 Orbital Symmetries:
       Occupied  (A') (A') (A') (A') (A') (A') (A') (A') (A') (A')
                 (A') (A") (A') (A') (A') (A') (A") (A")
       Virtual   (A') (A") (A') (A") (A') (A') (A') (A') (A') (A")
                 (A') (A') (A') (A') (A") (A') (A') (A") (A') (A')
                 (A") (A') (A') (A") (A') (A') (A') (A') (A') (A')
                 (A") (A') (A") (A') (A") (A") (A') (A") (A') (A')
                 (A') (A') (A') (A") (A') (A") (A') (A') (A") (A')
                 (A") (A') (A') (A") (A") (A') (A') (A') (A') (A')
                 (A') (A") (A") (A') (A") (A') (A") (A') (A') (A')
                 (A') (A') (A') (A') (A') (A') (A') (A')
  The electronic state is 1-A'.
 Alpha  occ. eigenvalues --  -15.67716 -15.65365 -15.63407 -15.59253 -11.33180
 Alpha  occ. eigenvalues --   -1.52242  -1.26755  -1.21103   -.91557   -.89768
 Alpha  occ. eigenvalues --    -.81134   -.68988   -.68524   -.57405   -.47665
 Alpha  occ. eigenvalues --    -.46476   -.45925   -.42528
 Alpha virt. eigenvalues --     .12845    .14644    .16910    .19644    .33640
 Alpha virt. eigenvalues --     .36682    .38218    .48092    .53717    .56253
 Alpha virt. eigenvalues --     .62087    .64864    .69297    .74808    .77438
 Alpha virt. eigenvalues --     .78787    .80028    .81174    .83670    .88883
 Alpha virt. eigenvalues --     .91716    .94868    .96191    .96463   1.04955
 Alpha virt. eigenvalues --    1.08717   1.15729   1.21914   1.24829   1.41760
 Alpha virt. eigenvalues --    1.44221   1.45788   1.51100   1.61452   1.79322
 Alpha virt. eigenvalues --    1.96056   1.99136   2.03210   2.08319   2.13529
 Alpha virt. eigenvalues --    2.18549   2.36952   2.56043   2.56223   2.60193
 Alpha virt. eigenvalues --    2.66933   2.69606   2.79943   2.81838   2.96957
 Alpha virt. eigenvalues --    2.97221   3.03744   3.09659   3.14156   3.17895
 Alpha virt. eigenvalues --    3.22346   3.47413   3.54963   3.65136   3.72110
 Alpha virt. eigenvalues --    3.90756   3.99519   4.11607   4.26672   4.31475
 Alpha virt. eigenvalues --    4.39296   4.41897   4.42862   4.87671   5.00675
 Alpha virt. eigenvalues --    5.10071   5.38022   6.26780  24.95027  36.62742
 Alpha virt. eigenvalues --   36.86408  36.97575  37.04775
          Condensed to atoms (all electrons):
              1          2          3          4          5          6
  1  N    6.636409    .355093   -.093717    .005551    .316624   -.149586
  2  N     .355093   6.680596    .209080   -.024061   -.106172   -.105563
  3  N    -.093717    .209080   6.794326    .322181   -.068143    .356880
  4  H     .005551   -.024061    .322181    .311271    .005662   -.028014
  5  N     .316624   -.106172   -.068143    .005662   6.640014    .526078
  6  C    -.149586   -.105563    .356880   -.028014    .526078   4.821855
  7  H     .001700    .001741   -.026340   -.000132   -.014634    .387372
              7
  1  N     .001700
  2  N     .001741
  3  N    -.026340
  4  H    -.000132
  5  N    -.014634
  6  C     .387372
  7  H     .372330
 Total atomic charges:
              1
  1  N    -.072074
  2  N    -.010714
  3  N    -.494268
  4  H     .407542
  5  N    -.299428
  6  C     .190979
  7  H     .277964
 Sum of Mulliken charges=    .00000
 Atomic charges with hydrogens summed into heavy atoms:
              1
  1  N    -.072074
  2  N    -.010714
  3  N    -.086726
  4  H     .000000
  5  N    -.299428
  6  C     .468942
  7  H     .000000
 Sum of Mulliken charges=    .00000
 Electronic spatial extent (au):  <R**2>=   244.8059
 Charge=      .0000 electrons
 Dipole moment (Debye):
    X=     2.6561    Y=     4.9967    Z=      .0000  Tot=     5.6588
 Quadrupole moment (Debye-Ang):
   XX=   -28.7788   YY=   -26.6286   ZZ=   -28.5520
   XY=     2.0066   XZ=      .0000   YZ=      .0000
 Octapole moment (Debye-Ang**2):
  XXX=    12.5961  YYY=    23.0387  ZZZ=      .0000  XYY=     -.6980
  XXY=     5.0244  XXZ=      .0000  XZZ=     -.6955  YZZ=      .5820
  YYZ=      .0000  XYZ=      .0000
 Hexadecapole moment (Debye-Ang**3):
 XXXX=  -137.8099 YYYY=  -116.9703 ZZZZ=   -25.8054 XXXY=     6.9262
 XXXZ=      .0000 YYYX=     -.0399 YYYZ=      .0000 ZZZX=      .0000
 ZZZY=      .0000 XXYY=   -52.3640 XXZZ=   -29.8298 YYZZ=   -28.3649
 XXYZ=      .0000 YYXZ=      .0000 ZZXY=      .0498
 N-N= 1.698288422228D+02 E-N=-9.415958834480D+02  KE= 2.568965480176D+02
 Symmetry A'   KE= 2.478621844515D+02
 Symmetry A"   KE= 9.034363566118D+00
 ***** Axes restored to original set *****
 -------------------------------------------------------------------
 Center     Atomic                   Forces (Hartrees/Bohr)
 Number     Number              X              Y              Z
 -------------------------------------------------------------------
    1          7            .003301334     .004236210     .000000000
    2          7            .000350224    -.005611742     .000000000
    3          7            .000593043     .003789543     .000000000
    4          1           -.002214085    -.003333737     .000000000
    5          7            .001745318     .001888725     .000000000
    6          6           -.003842358    -.000901480     .000000000
    7          1            .000066523    -.000067518     .000000000
 -------------------------------------------------------------------
 Cartesian Forces:  Max      .005611742 RMS      .002323643

 GradGradGradGradGradGradGradGradGradGradGradGradGradGradGradGradGradGrad
 Berny optimization.
 Internal  Forces:  Max      .005060381 RMS      .001561398
 Search for a local minimum.
 Step number   1 out of a maximum of  36
 All quantities printed in internal units (Hartrees-Bohrs-Radians)
 Second derivative matrix not updated -- first step.
     Eigenvalues ---     .02505    .02639    .02674    .02834    .16000
     Eigenvalues ---     .16000    .22605    .24688    .37515    .48737
     Eigenvalues ---     .50885    .56605    .58506    .66912    .78894
     Eigenvalues --- 1000.000001000.000001000.000001000.000001000.00000
     Eigenvalues --- 1000.000001000.000001000.000001000.000001000.00000
     Eigenvalues --- 1000.00000
 RFO step:  Lambda=-1.02081391D-04.
 Linear search not attempted -- first point.
 Iteration  1 RMS(Cart)=   .00242422 RMS(Int)=   .00000179
 Iteration  2 RMS(Cart)=   .00000168 RMS(Int)=   .00000033
 Iteration  3 RMS(Cart)=   .00000000 RMS(Int)=   .00000033
 Variable       Old X    -DE/DX   Delta X   Delta X   Delta X     New X
                                 (Linear)    (Quad)   (Total)
    R1        2.36623   -.00506    .00000   -.00639   -.00639   2.35984
    R2        2.53474   -.00129    .00000   -.00252   -.00252   2.53221
    R3        2.50608   -.00237    .00000   -.00389   -.00389   2.50219
    R4        1.87862   -.00400    .00000   -.00821   -.00821   1.87041
    R5        2.51367   -.00063    .00000   -.00070   -.00070   2.51297
    R6        2.43647   -.00340    .00000   -.00467   -.00467   2.43180
    R7        2.01777    .00009    .00000    .00023    .00023   2.01800
    A1        1.94380    .00084    .00000    .00182    .00182   1.94562
    A2        1.86179    .00052    .00000    .00127    .00127   1.86307
    A3        2.10759    .00053    .00000    .00207    .00207   2.10966
    A4        1.88535   -.00085    .00000   -.00280   -.00280   1.88255
    A5        2.29025    .00032    .00000    .00073    .00073   2.29097
    A6        1.84604   -.00066    .00000   -.00252   -.00252   1.84352
    A7        1.88780    .00016    .00000    .00223    .00223   1.89002
    A8        2.18241   -.00004    .00000   -.00087   -.00087   2.18153
    A9        2.21298   -.00012    .00000   -.00136   -.00136   2.21163
    D1         .00000    .00000    .00000    .00000    .00000    .00000
    D2         .00000    .00000    .00000    .00000    .00000    .00000
    D3        3.14159    .00000    .00000    .00000    .00000   3.14159
    D4         .00000    .00000    .00000    .00000    .00000    .00000
    D5         .00000    .00000    .00000    .00000    .00000    .00000
    D6        3.14159    .00000    .00000    .00000    .00000   3.14159
    D7        3.14159    .00000    .00000    .00000    .00000   3.14159
    D8         .00000    .00000    .00000    .00000    .00000    .00000
    D9         .00000    .00000    .00000    .00000    .00000    .00000
   D10        3.14159    .00000    .00000    .00000    .00000   3.14159
         Item               Value     Threshold  Converged?
 Maximum Force             .005060      .000450     NO 
 RMS     Force             .001561      .000300     NO 
 Maximum Displacement      .006327      .001800     NO 
 RMS     Displacement      .002425      .001200     NO 
 Predicted change in Energy=-5.103026D-05
 GradGradGradGradGradGradGradGradGradGradGradGradGradGradGradGradGradGrad

                          Input orientation:                          
 ---------------------------------------------------------------------
 Center     Atomic     Atomic              Coordinates (Angstroms)
 Number     Number      Type              X           Y           Z
 ---------------------------------------------------------------------
    1          7             0       -1.119945    -.253103     .000000
    2          7             0        -.669886     .911751     .000000
    3          7             0         .650349     .810652     .000000
    4          1             0        1.221646    1.618912     .000000
    5          7             0        -.133589   -1.160118     .000000
    6          6             0         .960411    -.482503     .000000
    7          1             0        1.953922    -.874045     .000000
 ---------------------------------------------------------------------
                    Distance matrix (angstroms):
                    1          2          3          4          5
     1  N     .000000
     2  N    1.248775    .000000
     3  N    2.065313   1.324100    .000000
     4  H    2.997914   2.019398    .989780    .000000
     5  N    1.339990   2.140153   2.120965   3.091871    .000000
     6  C    2.092965   2.145183   1.329807   2.117590   1.286856
     7  H    3.135958   3.173868   2.130143   2.598281   2.107022
                    6          7
     6  C     .000000
     7  H    1.067882    .000000
 Stoichiometry    CH2N4
 Framework group  CS[SG(CH2N4)]
 Deg. of freedom   11
 Full point group                 CS      NOp   2
 Largest Abelian subgroup         CS      NOp   2
 Largest concise Abelian subgroup C1      NOp   1
                         Standard orientation:                         
 ---------------------------------------------------------------------
 Center     Atomic     Atomic              Coordinates (Angstroms)
 Number     Number      Type              X           Y           Z
 ---------------------------------------------------------------------
    1          7             0        -.715800    -.898788     .000000
    2          7             0       -1.093298     .291563     .000000
    3          7             0         .000000    1.038517     .000000
    4          1             0        -.059851    2.026485     .000000
    5          7             0         .621119    -.989464     .000000
    6          6             0        1.050806     .223535     .000000
    7          1             0        2.070870     .539511     .000000
 ---------------------------------------------------------------------
 Rotational constants (GHZ):     10.9583117     10.7598552      5.4290884
 Isotopes: N-14,N-14,N-14,H-1,N-14,C-12,H-1
 Standard basis: 6-311G(d) (5D, 7F)
 There are    71 symmetry adapted basis functions of A'  symmetry.
 There are    25 symmetry adapted basis functions of A"  symmetry.
 Crude estimate of integral set expansion from redundant integrals=1.000.
 Integral buffers will be    262144 words long.
 Raffenetti 1 integral format.
 Two-electron integral symmetry is turned on.
    96 basis functions      170 primitive gaussians
    18 alpha electrons       18 beta electrons
       nuclear repulsion energy       170.0899404671 Hartrees.
 One-electron integrals computed using PRISM.
 NBasis=    96 RedAO= T  NBF=    71    25
 NBsUse=    96 1.00D-04 NBFU=    71    25
 Initial guess read from the read-write file:
 Initial guess orbital symmetries:
       Occupied  (A') (A') (A') (A') (A') (A') (A') (A') (A') (A')
                 (A') (A") (A') (A') (A') (A') (A") (A")
       Virtual   (A') (A") (A') (A") (A') (A') (A') (A') (A') (A")
                 (A') (A') (A') (A') (A") (A') (A') (A") (A') (A')
                 (A") (A') (A') (A") (A') (A') (A') (A') (A') (A')
                 (A") (A') (A") (A') (A") (A") (A') (A") (A') (A')
                 (A') (A') (A') (A") (A') (A") (A') (A') (A") (A')
                 (A") (A') (A') (A") (A") (A') (A') (A') (A') (A')
                 (A') (A") (A") (A') (A") (A') (A") (A') (A') (A')
                 (A') (A') (A') (A') (A') (A') (A') (A')
 Requested convergence on RMS density matrix=1.00D-08 within  64 cycles.
 Requested convergence on MAX density matrix=1.00D-06.
 Keep R1 integrals in memory in canonical form, NReq=    13832762.
 SCF Done:  E(RHF) =  -256.810792690     A.U. after   10 cycles
             Convg  =     .6908D-08             -V/T =  1.9995
             S**2   =    .0000
 ***** Axes restored to original set *****
 -------------------------------------------------------------------
 Center     Atomic                   Forces (Hartrees/Bohr)
 Number     Number              X              Y              Z
 -------------------------------------------------------------------
    1          7           -.001174771     .001087693     .000000000
    2          7           -.000432188    -.000961380     .000000000
    3          7           -.000154047     .000130286     .000000000
    4          1            .000315391     .000304850     .000000000
    5          7            .000905827     .000391064     .000000000
    6          6            .000458678    -.000982643     .000000000
    7          1            .000081110     .000030131     .000000000
 -------------------------------------------------------------------
 Cartesian Forces:  Max      .001174771 RMS      .000537376

 GradGradGradGradGradGradGradGradGradGradGradGradGradGradGradGradGradGrad
 Berny optimization.
 Internal  Forces:  Max      .000933345 RMS      .000368037
 Search for a local minimum.
 Step number   2 out of a maximum of  36
 All quantities printed in internal units (Hartrees-Bohrs-Radians)
 Update second derivatives using information from points  1  2
 Trust test= 9.38D-01 RLast= 1.35D-02 DXMaxT set to 3.00D-01
     Eigenvalues ---     .02505    .02640    .02674    .02833    .15959
     Eigenvalues ---     .16006    .22927    .25368    .37498    .49289
     Eigenvalues ---     .51235    .56231    .62870    .69469    .71630
     Eigenvalues --- 1000.000001000.000001000.000001000.000001000.00000
     Eigenvalues --- 1000.000001000.000001000.000001000.000001000.00000
     Eigenvalues --- 1000.00000
 RFO step:  Lambda=-7.77458162D-06.
 Quartic linear search produced a step of  -.06101.
 Iteration  1 RMS(Cart)=   .00089256 RMS(Int)=   .00000060
 Iteration  2 RMS(Cart)=   .00000055 RMS(Int)=   .00000012
 Variable       Old X    -DE/DX   Delta X   Delta X   Delta X     New X
                                 (Linear)    (Quad)   (Total)
    R1        2.35984   -.00072    .00039   -.00174   -.00135   2.35849
    R2        2.53221    .00093    .00015    .00116    .00131   2.53353
    R3        2.50219    .00057    .00024    .00034    .00058   2.50276
    R4        1.87041    .00043    .00050   -.00030    .00020   1.87061
    R5        2.51297    .00039    .00004    .00058    .00062   2.51359
    R6        2.43180   -.00024    .00028   -.00093   -.00064   2.43116
    R7        2.01800    .00006   -.00001    .00019    .00018   2.01818
    A1        1.94562   -.00060   -.00011   -.00222   -.00233   1.94328
    A2        1.86307    .00042   -.00008    .00162    .00154   1.86461
    A3        2.10966    .00006   -.00013    .00058    .00045   2.11011
    A4        1.88255    .00003    .00017   -.00007    .00010   1.88265
    A5        2.29097   -.00009   -.00004   -.00051   -.00055   2.29042
    A6        1.84352    .00067    .00015    .00228    .00244   1.84595
    A7        1.89002   -.00052   -.00014   -.00161   -.00175   1.88828
    A8        2.18153    .00020    .00005    .00050    .00055   2.18209
    A9        2.21163    .00032    .00008    .00111    .00120   2.21282
    D1         .00000    .00000    .00000    .00000    .00000    .00000
    D2         .00000    .00000    .00000    .00000    .00000    .00000
    D3        3.14159    .00000    .00000    .00000    .00000   3.14159
    D4         .00000    .00000    .00000    .00000    .00000    .00000
    D5         .00000    .00000    .00000    .00000    .00000    .00000
    D6        3.14159    .00000    .00000    .00000    .00000   3.14159
    D7        3.14159    .00000    .00000    .00000    .00000   3.14159
    D8         .00000    .00000    .00000    .00000    .00000    .00000
    D9         .00000    .00000    .00000    .00000    .00000    .00000
   D10        3.14159    .00000    .00000    .00000    .00000   3.14159
         Item               Value     Threshold  Converged?
 Maximum Force             .000933      .000450     NO 
 RMS     Force             .000368      .000300     NO 
 Maximum Displacement      .002659      .001800     NO 
 RMS     Displacement      .000893      .001200     YES
 Predicted change in Energy=-4.089465D-06
 GradGradGradGradGradGradGradGradGradGradGradGradGradGradGradGradGradGrad

                          Input orientation:                          
 ---------------------------------------------------------------------
 Center     Atomic     Atomic              Coordinates (Angstroms)
 Number     Number      Type              X           Y           Z
 ---------------------------------------------------------------------
    1          7             0       -1.122089    -.253061     .000000
    2          7             0        -.671009     .910632     .000000
    3          7             0         .649575     .810099     .000000
    4          1             0        1.220935    1.618443     .000000
    5          7             0        -.134103   -1.159326     .000000
    6          6             0         .960420    -.483204     .000000
    7          1             0        1.954019    -.874785     .000000
 ---------------------------------------------------------------------
                    Distance matrix (angstroms):
                    1          2          3          4          5
     1  N     .000000
     2  N    1.248060    .000000
     3  N    2.066181   1.324405    .000000
     4  H    2.998715   2.020012    .989885    .000000
     5  N    1.340684   2.138456   2.119619   3.090652    .000000
     6  C    2.095188   2.145772   1.330134   2.117731   1.286515
     7  H    3.138308   3.174663   2.130823   2.598768   2.107419
                    6          7
     6  C     .000000
     7  H    1.067976    .000000
 Stoichiometry    CH2N4
 Framework group  CS[SG(CH2N4)]
 Deg. of freedom   11
 Full point group                 CS      NOp   2
 Largest Abelian subgroup         CS      NOp   2
 Largest concise Abelian subgroup C1      NOp   1
                         Standard orientation:                         
 ---------------------------------------------------------------------
 Center     Atomic     Atomic              Coordinates (Angstroms)
 Number     Number      Type              X           Y           Z
 ---------------------------------------------------------------------
    1          7             0        -.716776    -.899459     .000000
    2          7             0       -1.093037     .290533     .000000
    3          7             0         .000000    1.038409     .000000
    4          1             0        -.060091    2.026468     .000000
    5          7             0         .620967    -.988210     .000000
    6          6             0        1.051705     .224055     .000000
    7          1             0        2.071785     .540299     .000000
 ---------------------------------------------------------------------
 Rotational constants (GHZ):     10.9529663     10.7627975      5.4285246
 Isotopes: N-14,N-14,N-14,H-1,N-14,C-12,H-1
 Standard basis: 6-311G(d) (5D, 7F)
 There are    71 symmetry adapted basis functions of A'  symmetry.
 There are    25 symmetry adapted basis functions of A"  symmetry.
 Crude estimate of integral set expansion from redundant integrals=1.000.
 Integral buffers will be    262144 words long.
 Raffenetti 1 integral format.
 Two-electron integral symmetry is turned on.
    96 basis functions      170 primitive gaussians
    18 alpha electrons       18 beta electrons
       nuclear repulsion energy       170.0824828386 Hartrees.
 One-electron integrals computed using PRISM.
 NBasis=    96 RedAO= T  NBF=    71    25
 NBsUse=    96 1.00D-04 NBFU=    71    25
 Initial guess read from the read-write file:
 Initial guess orbital symmetries:
       Occupied  (A') (A') (A') (A') (A') (A') (A') (A') (A') (A')
                 (A') (A") (A') (A') (A') (A') (A") (A")
       Virtual   (A') (A") (A') (A") (A') (A') (A') (A') (A') (A")
                 (A') (A') (A') (A') (A") (A') (A') (A") (A') (A')
                 (A") (A') (A') (A") (A') (A') (A') (A') (A') (A')
                 (A") (A') (A") (A') (A") (A") (A') (A") (A') (A')
                 (A') (A') (A") (A') (A') (A") (A') (A') (A") (A')
                 (A") (A') (A') (A") (A") (A') (A') (A') (A') (A')
                 (A') (A") (A") (A') (A") (A') (A") (A') (A') (A')
                 (A') (A') (A') (A') (A') (A') (A') (A')
 Requested convergence on RMS density matrix=1.00D-08 within  64 cycles.
 Requested convergence on MAX density matrix=1.00D-06.
 Keep R1 integrals in memory in canonical form, NReq=    13832762.
 SCF Done:  E(RHF) =  -256.810794635     A.U. after   10 cycles
             Convg  =     .4801D-08             -V/T =  1.9995
             S**2   =    .0000
 ***** Axes restored to original set *****
 -------------------------------------------------------------------
 Center     Atomic                   Forces (Hartrees/Bohr)
 Number     Number              X              Y              Z
 -------------------------------------------------------------------
    1          7            .000431762     .000362415     .000000000
    2          7           -.000199697     .000505194     .000000000
    3          7           -.000184541     .000217728     .000000000
    4          1            .000118033     .000298631     .000000000
    5          7            .000347900    -.001071914     .000000000
    6          6           -.000467891    -.000320713     .000000000
    7          1           -.000045567     .000008659     .000000000
 -------------------------------------------------------------------
 Cartesian Forces:  Max      .001071914 RMS      .000337455

 GradGradGradGradGradGradGradGradGradGradGradGradGradGradGradGradGradGrad
 Berny optimization.
 Internal  Forces:  Max      .000701865 RMS      .000288229
 Search for a local minimum.
 Step number   3 out of a maximum of  36
 All quantities printed in internal units (Hartrees-Bohrs-Radians)
 Update second derivatives using information from points  1  2  3
 Trust test= 4.76D-01 RLast= 4.88D-03 DXMaxT set to 3.00D-01
     Eigenvalues ---     .02505    .02640    .02674    .02834    .15957
     Eigenvalues ---     .16025    .22921    .37396    .38758    .47099
     Eigenvalues ---     .51237    .52558    .61442    .69535    .82509
     Eigenvalues --- 1000.000001000.000001000.000001000.000001000.00000
     Eigenvalues --- 1000.000001000.000001000.000001000.000001000.00000
     Eigenvalues --- 1000.00000
 RFO step:  Lambda=-1.92425045D-06.
 Quartic linear search produced a step of  -.34407.
 Iteration  1 RMS(Cart)=   .00045180 RMS(Int)=   .00000016
 Iteration  2 RMS(Cart)=   .00000013 RMS(Int)=   .00000006
 Variable       Old X    -DE/DX   Delta X   Delta X   Delta X     New X
                                 (Linear)    (Quad)   (Total)
    R1        2.35849    .00017    .00046   -.00065   -.00019   2.35830
    R2        2.53353    .00043   -.00045    .00125    .00080   2.53433
    R3        2.50276   -.00016   -.00020    .00017   -.00003   2.50274
    R4        1.87061    .00031   -.00007    .00052    .00046   1.87107
    R5        2.51359    .00065   -.00021    .00104    .00083   2.51442
    R6        2.43116   -.00015    .00022   -.00051   -.00029   2.43087
    R7        2.01818   -.00005   -.00006    .00003   -.00003   2.01815
    A1        1.94328    .00070    .00080    .00041    .00122   1.94450
    A2        1.86461   -.00040   -.00053   -.00012   -.00065   1.86396
    A3        2.11011   -.00007   -.00015    .00001   -.00014   2.10997
    A4        1.88265    .00000   -.00003    .00000   -.00004   1.88262
    A5        2.29042    .00007    .00019   -.00001    .00018   2.29060
    A6        1.84595   -.00070   -.00084   -.00035   -.00119   1.84476
    A7        1.88828    .00040    .00060    .00006    .00066   1.88894
    A8        2.18209   -.00019   -.00019   -.00019   -.00038   2.18171
    A9        2.21282   -.00021   -.00041    .00012   -.00029   2.21254
    D1         .00000    .00000    .00000    .00000    .00000    .00000
    D2         .00000    .00000    .00000    .00000    .00000    .00000
    D3        3.14159    .00000    .00000    .00000    .00000   3.14159
    D4         .00000    .00000    .00000    .00000    .00000    .00000
    D5         .00000    .00000    .00000    .00000    .00000    .00000
    D6        3.14159    .00000    .00000    .00000    .00000   3.14159
    D7        3.14159    .00000    .00000    .00000    .00000   3.14159
    D8         .00000    .00000    .00000    .00000    .00000    .00000
    D9         .00000    .00000    .00000    .00000    .00000    .00000
   D10        3.14159    .00000    .00000    .00000    .00000   3.14159
         Item               Value     Threshold  Converged?
 Maximum Force             .000702      .000450     NO 
 RMS     Force             .000288      .000300     YES
 Maximum Displacement      .001428      .001800     YES
 RMS     Displacement      .000452      .001200     YES
 Predicted change in Energy=-1.700529D-06
 GradGradGradGradGradGradGradGradGradGradGradGradGradGradGradGradGradGrad

                          Input orientation:                          
 ---------------------------------------------------------------------
 Center     Atomic     Atomic              Coordinates (Angstroms)
 Number     Number      Type              X           Y           Z
 ---------------------------------------------------------------------
    1          7             0       -1.121402    -.252915     .000000
    2          7             0        -.670957     .910916     .000000
    3          7             0         .649598     .810201     .000000
    4          1             0        1.221095    1.618744     .000000
    5          7             0        -.133739   -1.160161     .000000
    6          6             0         .960320    -.483583     .000000
    7          1             0        1.953982    -.874957     .000000
 ---------------------------------------------------------------------
                    Distance matrix (angstroms):
                    1          2          3          4          5
     1  N     .000000
     2  N    1.247960    .000000
     3  N    2.065588   1.324390    .000000
     4  H    2.998399   2.020119    .990126    .000000
     5  N    1.341109   2.139618   2.120364   3.091583    .000000
     6  C    2.094463   2.146089   1.330574   2.118439   1.286360
     7  H    3.137661   3.174846   2.131003   2.599166   2.107112
                    6          7
     6  C     .000000
     7  H    1.067959    .000000
 Stoichiometry    CH2N4
 Framework group  CS[SG(CH2N4)]
 Deg. of freedom   11
 Full point group                 CS      NOp   2
 Largest Abelian subgroup         CS      NOp   2
 Largest concise Abelian subgroup C1      NOp   1
                         Standard orientation:                         
 ---------------------------------------------------------------------
 Center     Atomic     Atomic              Coordinates (Angstroms)
 Number     Number      Type              X           Y           Z
 ---------------------------------------------------------------------
    1          7             0        -.716809    -.898758     .000000
    2          7             0       -1.093331     .291046     .000000
    3          7             0         .000000    1.038467     .000000
    4          1             0        -.059842    2.026783     .000000
    5          7             0         .621271    -.988838     .000000
    6          6             0        1.051691     .223376     .000000
    7          1             0        2.071775     .539546     .000000
 ---------------------------------------------------------------------
 Rotational constants (GHZ):     10.9573737     10.7546726      5.4275385
 Isotopes: N-14,N-14,N-14,H-1,N-14,C-12,H-1
 Standard basis: 6-311G(d) (5D, 7F)
 There are    71 symmetry adapted basis functions of A'  symmetry.
 There are    25 symmetry adapted basis functions of A"  symmetry.
 Crude estimate of integral set expansion from redundant integrals=1.000.
 Integral buffers will be    262144 words long.
 Raffenetti 1 integral format.
 Two-electron integral symmetry is turned on.
    96 basis functions      170 primitive gaussians
    18 alpha electrons       18 beta electrons
       nuclear repulsion energy       170.0682354119 Hartrees.
 One-electron integrals computed using PRISM.
 NBasis=    96 RedAO= T  NBF=    71    25
 NBsUse=    96 1.00D-04 NBFU=    71    25
 Initial guess read from the read-write file:
 Initial guess orbital symmetries:
       Occupied  (A') (A') (A') (A') (A') (A') (A') (A') (A') (A')
                 (A') (A") (A') (A') (A') (A') (A") (A")
       Virtual   (A') (A") (A') (A") (A') (A') (A') (A') (A') (A")
                 (A') (A') (A') (A') (A") (A') (A') (A") (A') (A')
                 (A") (A') (A') (A") (A') (A') (A') (A') (A') (A')
                 (A") (A') (A") (A') (A") (A") (A') (A") (A') (A')
                 (A') (A') (A") (A') (A') (A") (A') (A') (A") (A')
                 (A") (A') (A') (A") (A") (A') (A') (A') (A') (A')
                 (A') (A") (A") (A') (A") (A') (A") (A') (A') (A')
                 (A') (A') (A') (A') (A') (A') (A') (A')
 Requested convergence on RMS density matrix=1.00D-08 within  64 cycles.
 Requested convergence on MAX density matrix=1.00D-06.
 Keep R1 integrals in memory in canonical form, NReq=    13832762.
 SCF Done:  E(RHF) =  -256.810796438     A.U. after    9 cycles
             Convg  =     .2668D-08             -V/T =  1.9995
             S**2   =    .0000
 ***** Axes restored to original set *****
 -------------------------------------------------------------------
 Center     Atomic                   Forces (Hartrees/Bohr)
 Number     Number              X              Y              Z
 -------------------------------------------------------------------
    1          7           -.000276179     .000026442     .000000000
    2          7            .000056237    -.000007254     .000000000
    3          7            .000184173     .000125677     .000000000
    4          1            .000028054     .000052679     .000000000
    5          7            .000162606    -.000223005     .000000000
    6          6           -.000149809    -.000003209     .000000000
    7          1           -.000005082     .000028671     .000000000
 -------------------------------------------------------------------
 Cartesian Forces:  Max      .000276179 RMS      .000105320

 GradGradGradGradGradGradGradGradGradGradGradGradGradGradGradGradGradGrad
 Berny optimization.
 Internal  Forces:  Max      .000190801 RMS      .000071719
 Search for a local minimum.
 Step number   4 out of a maximum of  36
 All quantities printed in internal units (Hartrees-Bohrs-Radians)
 Update second derivatives using information from points  1  2  3  4
 Trust test= 1.06D+00 RLast= 2.39D-03 DXMaxT set to 3.00D-01
     Eigenvalues ---     .02505    .02640    .02674    .02834    .15652
     Eigenvalues ---     .16029    .20097    .37488    .40208    .45683
     Eigenvalues ---     .50602    .55249    .62746    .72752    .79579
     Eigenvalues --- 1000.000001000.000001000.000001000.000001000.00000
     Eigenvalues --- 1000.000001000.000001000.000001000.000001000.00000
     Eigenvalues --- 1000.00000
 RFO step:  Lambda=-4.53802881D-07.
 Quartic linear search produced a step of   .06444.
 Iteration  1 RMS(Cart)=   .00025361 RMS(Int)=   .00000004
 Iteration  2 RMS(Cart)=   .00000004 RMS(Int)=   .00000001
 Variable       Old X    -DE/DX   Delta X   Delta X   Delta X     New X
                                 (Linear)    (Quad)   (Total)
    R1        2.35830    .00013   -.00001    .00002    .00001   2.35831
    R2        2.53433    .00019    .00005    .00056    .00061   2.53494
    R3        2.50274    .00006    .00000    .00012    .00012   2.50286
    R4        1.87107    .00006    .00003    .00015    .00018   1.87124
    R5        2.51442    .00004    .00005    .00020    .00026   2.51468
    R6        2.43087    .00004   -.00002   -.00006   -.00008   2.43079
    R7        2.01815   -.00002    .00000   -.00003   -.00004   2.01811
    A1        1.94450   -.00009    .00008   -.00030   -.00022   1.94428
    A2        1.86396    .00011   -.00004    .00058    .00053   1.86449
    A3        2.10997    .00005   -.00001    .00028    .00027   2.11024
    A4        1.88262   -.00011    .00000   -.00061   -.00061   1.88201
    A5        2.29060    .00006    .00001    .00033    .00034   2.29094
    A6        1.84476   -.00005   -.00008   -.00022   -.00030   1.84446
    A7        1.88894    .00014    .00004    .00055    .00059   1.88954
    A8        2.18171   -.00009   -.00002   -.00048   -.00050   2.18121
    A9        2.21254   -.00004   -.00002   -.00008   -.00010   2.21244
    D1         .00000    .00000    .00000    .00000    .00000    .00000
    D2         .00000    .00000    .00000    .00000    .00000    .00000
    D3        3.14159    .00000    .00000    .00000    .00000   3.14159
    D4         .00000    .00000    .00000    .00000    .00000    .00000
    D5         .00000    .00000    .00000    .00000    .00000    .00000
    D6        3.14159    .00000    .00000    .00000    .00000   3.14159
    D7        3.14159    .00000    .00000    .00000    .00000   3.14159
    D8         .00000    .00000    .00000    .00000    .00000    .00000
    D9         .00000    .00000    .00000    .00000    .00000    .00000
   D10        3.14159    .00000    .00000    .00000    .00000   3.14159
         Item               Value     Threshold  Converged?
 Maximum Force             .000191      .000450     YES
 RMS     Force             .000072      .000300     YES
 Maximum Displacement      .000592      .001800     YES
 RMS     Displacement      .000254      .001200     YES
 Predicted change in Energy=-2.335330D-07
 Optimization completed.
    -- Stationary point found.
                         ----------------------------
                         !   Optimized Parameters   !
                         ! (Angstroms and Degrees)  !
 ------------------------                            -------------------------
 ! Name  Definition              Value          Derivative Info.             !
 -----------------------------------------------------------------------------
 ! R1    R(1,2)                  1.248          -DE/DX =    0.0001           !
 ! R2    R(1,5)                  1.3411         -DE/DX =    0.0002           !
 ! R3    R(2,3)                  1.3244         -DE/DX =    0.0001           !
 ! R4    R(3,4)                  0.9901         -DE/DX =    0.0001           !
 ! R5    R(3,6)                  1.3306         -DE/DX =    0.               !
 ! R6    R(5,6)                  1.2864         -DE/DX =    0.               !
 ! R7    R(6,7)                  1.068          -DE/DX =    0.               !
 ! A1    A(2,1,5)              111.4117         -DE/DX =   -0.0001           !
 ! A2    A(1,2,3)              106.7969         -DE/DX =    0.0001           !
 ! A3    A(2,3,4)              120.8922         -DE/DX =    0.               !
 ! A4    A(2,3,6)              107.866          -DE/DX =   -0.0001           !
 ! A5    A(4,3,6)              131.2417         -DE/DX =    0.0001           !
 ! A6    A(1,5,6)              105.697          -DE/DX =   -0.0001           !
 ! A7    A(3,6,5)              108.2284         -DE/DX =    0.0001           !
 ! A8    A(3,6,7)              125.0027         -DE/DX =   -0.0001           !
 ! A9    A(5,6,7)              126.7689         -DE/DX =    0.               !
 ! D1    D(5,1,2,3)              0.             -DE/DX =    0.               !
 ! D2    D(2,1,5,6)              0.             -DE/DX =    0.               !
 ! D3    D(1,2,3,4)            180.             -DE/DX =    0.               !
 ! D4    D(1,2,3,6)              0.             -DE/DX =    0.               !
 ! D5    D(2,3,6,5)              0.             -DE/DX =    0.               !
 ! D6    D(2,3,6,7)            180.             -DE/DX =    0.               !
 ! D7    D(4,3,6,5)            180.             -DE/DX =    0.               !
 ! D8    D(4,3,6,7)              0.             -DE/DX =    0.               !
 ! D9    D(1,5,6,3)              0.             -DE/DX =    0.               !
 ! D10   D(1,5,6,7)            180.             -DE/DX =    0.               !
 -----------------------------------------------------------------------------
 GradGradGradGradGradGradGradGradGradGradGradGradGradGradGradGradGradGrad

                          Input orientation:                          
 ---------------------------------------------------------------------
 Center     Atomic     Atomic              Coordinates (Angstroms)
 Number     Number      Type              X           Y           Z
 ---------------------------------------------------------------------
    1          7             0       -1.121443    -.252876     .000000
    2          7             0        -.670999     .910956     .000000
    3          7             0         .649556     .810241     .000000
    4          1             0        1.221054    1.618783     .000000
    5          7             0        -.133781   -1.160121     .000000
    6          6             0         .960279    -.483544     .000000
    7          1             0        1.953940    -.874917     .000000
 ---------------------------------------------------------------------
                    Distance matrix (angstroms):
                    1          2          3          4          5
     1  N     .000000
     2  N    1.247960    .000000
     3  N    2.065588   1.324390    .000000
     4  H    2.998399   2.020119    .990126    .000000
     5  N    1.341109   2.139618   2.120364   3.091583    .000000
     6  C    2.094463   2.146089   1.330574   2.118439   1.286360
     7  H    3.137661   3.174846   2.131003   2.599166   2.107112
                    6          7
     6  C     .000000
     7  H    1.067959    .000000
 Stoichiometry    CH2N4
 Framework group  CS[SG(CH2N4)]
 Deg. of freedom   11
 Full point group                 CS      NOp   2
 Largest Abelian subgroup         CS      NOp   2
 Largest concise Abelian subgroup C1      NOp   1
                         Standard orientation:                         
 ---------------------------------------------------------------------
 Center     Atomic     Atomic              Coordinates (Angstroms)
 Number     Number      Type              X           Y           Z
 ---------------------------------------------------------------------
    1          7             0        -.716809    -.898758     .000000
    2          7             0       -1.093331     .291046     .000000
    3          7             0         .000000    1.038467     .000000
    4          1             0        -.059842    2.026783     .000000
    5          7             0         .621271    -.988838     .000000
    6          6             0        1.051691     .223376     .000000
    7          1             0        2.071775     .539546     .000000
 ---------------------------------------------------------------------
 Rotational constants (GHZ):     10.9573737     10.7546726      5.4275385
 Isotopes: N-14,N-14,N-14,H-1,N-14,C-12,H-1

 **********************************************************************

            Population analysis using the SCF density.

 **********************************************************************

 Orbital Symmetries:
       Occupied  (A') (A') (A') (A') (A') (A') (A') (A') (A') (A')
                 (A') (A") (A') (A') (A') (A') (A") (A")
       Virtual   (A') (A") (A') (A") (A') (A') (A') (A') (A') (A")
                 (A') (A') (A') (A') (A") (A') (A') (A") (A') (A')
                 (A") (A') (A') (A") (A') (A') (A') (A') (A') (A')
                 (A") (A') (A") (A') (A") (A") (A') (A") (A') (A')
                 (A') (A') (A") (A') (A') (A") (A') (A') (A") (A')
                 (A") (A') (A') (A") (A") (A') (A') (A') (A') (A')
                 (A') (A") (A") (A') (A") (A') (A") (A') (A') (A')
                 (A') (A') (A') (A') (A') (A') (A') (A')
  The electronic state is 1-A'.
 Alpha  occ. eigenvalues --  -15.67627 -15.65324 -15.63326 -15.59197 -11.33132
 Alpha  occ. eigenvalues --   -1.52466  -1.26835  -1.21266   -.91635   -.89819
 Alpha  occ. eigenvalues --    -.81245   -.69101   -.68592   -.57438   -.47667
 Alpha  occ. eigenvalues --    -.46410   -.45942   -.42638
 Alpha virt. eigenvalues --     .12892    .14746    .16936    .19749    .33704
 Alpha virt. eigenvalues --     .36695    .38244    .48308    .53912    .56242
 Alpha virt. eigenvalues --     .62117    .65033    .69306    .74762    .77382
 Alpha virt. eigenvalues --     .78716    .80118    .81144    .83704    .89207
 Alpha virt. eigenvalues --     .91736    .94987    .96307    .96491   1.04994
 Alpha virt. eigenvalues --    1.08750   1.15755   1.22079   1.24933   1.41837
 Alpha virt. eigenvalues --    1.44174   1.45768   1.51212   1.61406   1.79267
 Alpha virt. eigenvalues --    1.96188   1.99224   2.03288   2.08491   2.13691
 Alpha virt. eigenvalues --    2.18731   2.37026   2.56223   2.56323   2.60527
 Alpha virt. eigenvalues --    2.67230   2.69855   2.80178   2.81865   2.97136
 Alpha virt. eigenvalues --    2.97500   3.03933   3.09933   3.14226   3.18342
 Alpha virt. eigenvalues --    3.22584   3.47890   3.55409   3.65309   3.72626
 Alpha virt. eigenvalues --    3.90933   3.99569   4.11721   4.26895   4.31601
 Alpha virt. eigenvalues --    4.39827   4.42121   4.43494   4.87908   5.00973
 Alpha virt. eigenvalues --    5.10207   5.38594   6.27317  24.95536  36.62789
 Alpha virt. eigenvalues --   36.86672  36.98034  37.06113
          Condensed to atoms (all electrons):
              1          2          3          4          5          6
  1  N    6.637238    .356304   -.094451    .005614    .316309   -.150071
  2  N     .356304   6.677708    .209272   -.024186   -.106443   -.105332
  3  N    -.094451    .209272   6.795116    .322776   -.068660    .356927
  4  H     .005614   -.024186    .322776    .311098    .005706   -.028130
  5  N     .316309   -.106443   -.068660    .005706   6.638594    .528503
  6  C    -.150071   -.105332    .356927   -.028130    .528503   4.819670
  7  H     .001726    .001732   -.026488   -.000119   -.014632    .387588
              7
  1  N     .001726
  2  N     .001732
  3  N    -.026488
  4  H    -.000119
  5  N    -.014632
  6  C     .387588
  7  H     .372687
 Total atomic charges:
              1
  1  N    -.072668
  2  N    -.009055
  3  N    -.494492
  4  H     .407241
  5  N    -.299377
  6  C     .190844
  7  H     .277506
 Sum of Mulliken charges=    .00000
 Atomic charges with hydrogens summed into heavy atoms:
              1
  1  N    -.072668
  2  N    -.009055
  3  N    -.087250
  4  H     .000000
  5  N    -.299377
  6  C     .468350
  7  H     .000000
 Sum of Mulliken charges=    .00000
 Electronic spatial extent (au):  <R**2>=   244.3080
 Charge=      .0000 electrons
 Dipole moment (Debye):
    X=     2.6524    Y=     4.9842    Z=      .0000  Tot=     5.6460
 Quadrupole moment (Debye-Ang):
   XX=   -28.7699   YY=   -26.6463   ZZ=   -28.5242
   XY=     1.9951   XZ=      .0000   YZ=      .0000
 Octapole moment (Debye-Ang**2):
  XXX=    12.5542  YYY=    22.9355  ZZZ=      .0000  XYY=     -.6928
  XXY=     5.0080  XXZ=      .0000  XZZ=     -.7036  YZZ=      .5831
  YYZ=      .0000  XYZ=      .0000
 Hexadecapole moment (Debye-Ang**3):
 XXXX=  -137.5458 YYYY=  -116.7715 ZZZZ=   -25.7584 XXXY=     6.8861
 XXXZ=      .0000 YYYX=      .0287 YYYZ=      .0000 ZZZX=      .0000
 ZZZY=      .0000 XXYY=   -52.2444 XXZZ=   -29.7591 YYZZ=   -28.2794
 XXYZ=      .0000 YYXZ=      .0000 ZZXY=      .0604
 N-N= 1.700682354119D+02 E-N=-9.420998638565D+02  KE= 2.569349977209D+02
 Symmetry A'   KE= 2.478937904465D+02
 Symmetry A"   KE= 9.041207274350D+00
 1\1\GINC-SCI-APPS\FOpt\RHF\6-311G(d)\C1H2N4\RUS\24-Feb-2000\0\\#HF/6-3
 11G* OPT FREQ\\1H tetrazole c CH-NH-N=N-N= casno=288948\\0,1\N,-1.1214
 432252,-0.2528755975,0.\N,-0.6709990025,0.9109558274,0.\N,0.649556368,
 0.8102406828,0.\H,1.2210535547,1.6187833117,0.\N,-0.13378067,-1.160121
 4086,0.\C,0.9602786819,-0.4835437848,0.\H,1.9539400622,-0.8749171317,0
 .\\Version=IBM-RS6000-G98RevA.7\State=1-A'\HF=-256.8107964\RMSD=2.668e
 -09\RMSF=1.053e-04\Dipole=2.0407252,0.8772399,0.\PG=CS [SG(C1H2N4)]\\@


 Everywhere is walking distance if you have the time.
                                    -- Steven Wright
 Job cpu time:  0 days  0 hours  4 minutes 29.3 seconds.
 File lengths (MBytes):  RWF=   10 Int=    0 D2E=    0 Chk=    3 Scr=    1
 Normal termination of Gaussian 98.
 Link1:  Proceeding to internal job step number  2.
 ------------------------------------------------
 #N Geom=AllCheck Guess=TCheck RHF/6-311G(d) Freq
 ------------------------------------------------
 1/10=4,29=7,30=1,38=1/1,3;
 2//2;
 3/5=4,6=6,7=1,11=1,25=1,30=1/1,2,3;
 4/5=101,7=1/1;
 5/5=2/2;
 8/6=4,11=11,23=2/1;
 10/13=10/2;
 11/6=2,8=1,9=11,15=111,16=11/1,2,10;
 10/6=1/2;
 6/7=2,8=2,9=2,10=2,18=1,28=1/1;
 7/8=1,10=1,25=1/1,2,3,16;
 1/10=4,30=1/3;
 99//99;
 ----------------------------------------
 1H tetrazole c CH-NH-N=N-N= casno=288948
 ----------------------------------------
 Redundant internal coordinates taken from checkpointfile:
 /wrk/Gau-12686.chk
 Charge =  0 Multiplicity = 1
 N,0,-1.1214432252,-0.2528755975,0.
 N,0,-0.6709990025,0.9109558274,0.
 N,0,0.649556368,0.8102406828,0.
 H,0,1.2210535547,1.6187833117,0.
 N,0,-0.13378067,-1.1601214086,0.
 C,0,0.9602786819,-0.4835437848,0.
 H,0,1.9539400622,-0.8749171317,0.
 Recover connectivity data from disk.

 GradGradGradGradGradGradGradGradGradGradGradGradGradGradGradGradGradGrad
 Berny optimization.
 Initialization pass.
                         ----------------------------
                         !    Initial Parameters    !
                         ! (Angstroms and Degrees)  !
 ------------------------                            -------------------------
 ! Name  Definition              Value          Derivative Info.             !
 -----------------------------------------------------------------------------
 ! R1    R(1,2)                  1.248          calculate D2E/DX2 analyticall!
 ! R2    R(1,5)                  1.3411         calculate D2E/DX2 analyticall!
 ! R3    R(2,3)                  1.3244         calculate D2E/DX2 analyticall!
 ! R4    R(3,4)                  0.9901         calculate D2E/DX2 analyticall!
 ! R5    R(3,6)                  1.3306         calculate D2E/DX2 analyticall!
 ! R6    R(5,6)                  1.2864         calculate D2E/DX2 analyticall!
 ! R7    R(6,7)                  1.068          calculate D2E/DX2 analyticall!
 ! A1    A(2,1,5)              111.4117         calculate D2E/DX2 analyticall!
 ! A2    A(1,2,3)              106.7969         calculate D2E/DX2 analyticall!
 ! A3    A(2,3,4)              120.8922         calculate D2E/DX2 analyticall!
 ! A4    A(2,3,6)              107.866          calculate D2E/DX2 analyticall!
 ! A5    A(4,3,6)              131.2417         calculate D2E/DX2 analyticall!
 ! A6    A(1,5,6)              105.697          calculate D2E/DX2 analyticall!
 ! A7    A(3,6,5)              108.2284         calculate D2E/DX2 analyticall!
 ! A8    A(3,6,7)              125.0027         calculate D2E/DX2 analyticall!
 ! A9    A(5,6,7)              126.7689         calculate D2E/DX2 analyticall!
 ! D1    D(5,1,2,3)              0.             calculate D2E/DX2 analyticall!
 ! D2    D(2,1,5,6)              0.             calculate D2E/DX2 analyticall!
 ! D3    D(1,2,3,4)            180.             calculate D2E/DX2 analyticall!
 ! D4    D(1,2,3,6)              0.             calculate D2E/DX2 analyticall!
 ! D5    D(2,3,6,5)              0.             calculate D2E/DX2 analyticall!
 ! D6    D(2,3,6,7)            180.             calculate D2E/DX2 analyticall!
 ! D7    D(4,3,6,5)            180.             calculate D2E/DX2 analyticall!
 ! D8    D(4,3,6,7)              0.             calculate D2E/DX2 analyticall!
 ! D9    D(1,5,6,3)              0.             calculate D2E/DX2 analyticall!
 ! D10   D(1,5,6,7)            180.             calculate D2E/DX2 analyticall!
 -----------------------------------------------------------------------------
 Trust Radius=3.00D-01 FncErr=1.00D-07 GrdErr=1.00D-07
 Number of steps in this run=  36 maximum allowed number of steps= 100.
 GradGradGradGradGradGradGradGradGradGradGradGradGradGradGradGradGradGrad

                          Input orientation:                          
 ---------------------------------------------------------------------
 Center     Atomic     Atomic              Coordinates (Angstroms)
 Number     Number      Type              X           Y           Z
 ---------------------------------------------------------------------
    1          7             0       -1.121443    -.252876     .000000
    2          7             0        -.670999     .910956     .000000
    3          7             0         .649556     .810241     .000000
    4          1             0        1.221054    1.618783     .000000
    5          7             0        -.133781   -1.160121     .000000
    6          6             0         .960279    -.483544     .000000
    7          1             0        1.953940    -.874917     .000000
 ---------------------------------------------------------------------
                    Distance matrix (angstroms):
                    1          2          3          4          5
     1  N     .000000
     2  N    1.247960    .000000
     3  N    2.065588   1.324390    .000000
     4  H    2.998399   2.020119    .990126    .000000
     5  N    1.341109   2.139618   2.120364   3.091583    .000000
     6  C    2.094463   2.146089   1.330574   2.118439   1.286360
     7  H    3.137661   3.174846   2.131003   2.599166   2.107112
                    6          7
     6  C     .000000
     7  H    1.067959    .000000
                           Interatomic angles:
       N1-N2-N3=106.7969       N1-N2-H4=131.6693       N1-N3-H4=156.2296
       N2-N3-H4=120.8922       N2-N1-N5=111.4117       N3-N1-N5= 73.546 
       N2-N3-N5= 72.6806       H4-N1-N5= 81.1948       H4-N2-N5= 95.9696
       H4-N3-N5=166.4272       N2-N1-C6= 75.1647       N1-N3-C6= 72.5287
       N2-N3-C6=107.866        N1-C6-H4= 90.748        N2-H4-C6= 62.418 
       H4-N3-C6=131.2417       N1-N5-C6=105.697        N2-N5-C6= 72.8084
       N3-C6-N5=108.2284       H4-C6-N5=128.804        N1-N3-H7= 96.7654
       N2-N3-H7=132.1027       N1-H4-H7= 67.7529       N2-H4-H7= 85.8667
       H4-N3-H7=107.005        N1-N5-H7=129.651        N2-N5-H7= 96.7625
       N3-N5-H7= 60.5402       H4-H7-N5= 81.4012       N1-C6-H7=164.825 
       N2-C6-H7=160.9725       N3-C6-H7=125.0027       H4-C6-H7=104.4271
       N5-C6-H7=126.7689
 Stoichiometry    CH2N4
 Framework group  CS[SG(CH2N4)]
 Deg. of freedom   11
 Full point group                 CS      NOp   2
 Largest Abelian subgroup         CS      NOp   2
 Largest concise Abelian subgroup C1      NOp   1
                         Standard orientation:                         
 ---------------------------------------------------------------------
 Center     Atomic     Atomic              Coordinates (Angstroms)
 Number     Number      Type              X           Y           Z
 ---------------------------------------------------------------------
    1          7             0        -.716809    -.898758     .000000
    2          7             0       -1.093331     .291046     .000000
    3          7             0         .000000    1.038467     .000000
    4          1             0        -.059842    2.026783     .000000
    5          7             0         .621271    -.988838     .000000
    6          6             0        1.051691     .223376     .000000
    7          1             0        2.071775     .539546     .000000
 ---------------------------------------------------------------------
 Rotational constants (GHZ):     10.9573737     10.7546726      5.4275385
 Isotopes: N-14,N-14,N-14,H-1,N-14,C-12,H-1
 Standard basis: 6-311G(d) (5D, 7F)
 There are    71 symmetry adapted basis functions of A'  symmetry.
 There are    25 symmetry adapted basis functions of A"  symmetry.
 Crude estimate of integral set expansion from redundant integrals=1.000.
 Integral buffers will be    262144 words long.
 Raffenetti 1 integral format.
 Two-electron integral symmetry is turned on.
    96 basis functions      170 primitive gaussians
    18 alpha electrons       18 beta electrons
       nuclear repulsion energy       170.0682354119 Hartrees.
 One-electron integrals computed using PRISM.
 NBasis=    96 RedAO= T  NBF=    71    25
 NBsUse=    96 1.00D-04 NBFU=    71    25
 Initial guess read from the checkpoint file:
 /wrk/Gau-12686.chk
 Initial guess orbital symmetries:
       Occupied  (A') (A') (A') (A') (A') (A') (A') (A') (A') (A')
                 (A') (A") (A') (A') (A') (A') (A") (A")
       Virtual   (A') (A") (A') (A") (A') (A') (A') (A') (A') (A")
                 (A') (A') (A') (A') (A") (A') (A') (A") (A') (A')
                 (A") (A') (A') (A") (A') (A') (A') (A') (A') (A')
                 (A") (A') (A") (A') (A") (A") (A') (A") (A') (A')
                 (A') (A') (A") (A') (A') (A") (A') (A') (A") (A')
                 (A") (A') (A') (A") (A") (A') (A') (A') (A') (A')
                 (A') (A") (A") (A') (A") (A') (A") (A') (A') (A')
                 (A') (A') (A') (A') (A') (A') (A') (A')
 Requested convergence on RMS density matrix=1.00D-08 within  64 cycles.
 Requested convergence on MAX density matrix=1.00D-06.
 Keep R1 integrals in memory in canonical form, NReq=    13832762.
 SCF Done:  E(RHF) =  -256.810796438     A.U. after    1 cycles
             Convg  =     .8667D-09             -V/T =  1.9995
             S**2   =    .0000
 Range of M.O.s used for correlation:     1    96
 NBasis=    96 NAE=    18 NBE=    18 NFC=     0 NFV=     0
 NROrb=     96 NOA=    18 NOB=    18 NVA=    78 NVB=    78
          Differentiating once with respect to electric field.
                with respect to dipole field.
          Store integrals in memory, NReq=    13709382.
          There are   3 degrees of freedom in the 1st order CPHF.
   3 vectors were produced by pass  0.
 AX will form   3 AO Fock derivatives at one time.
   3 vectors were produced by pass  1.
   3 vectors were produced by pass  2.
   3 vectors were produced by pass  3.
   3 vectors were produced by pass  4.
   3 vectors were produced by pass  5.
   3 vectors were produced by pass  6.
   3 vectors were produced by pass  7.
   3 vectors were produced by pass  8.
   3 vectors were produced by pass  9.
   2 vectors were produced by pass 10.
   1 vectors were produced by pass 11.
 Inv2:  IOpt= 1 Iter= 1 AM= 5.74D-16 Conv= 1.00D-12.
 Inverted reduced A of dimension  33 with in-core refinement.
 G2DrvN: will do    7 atoms at a time, making    1 passes doing MaxLOS=2.
 FoFDir used for L=0 through L=2.
          Differentiating once with respect to electric field.
                with respect to dipole field.
          Differentiating once with respect to nuclear coordinates.
          Store integrals in memory, NReq=    13709444.
          There are  24 degrees of freedom in the 1st order CPHF.
  21 vectors were produced by pass  0.
 AX will form  21 AO Fock derivatives at one time.
  21 vectors were produced by pass  1.
  21 vectors were produced by pass  2.
  21 vectors were produced by pass  3.
  21 vectors were produced by pass  4.
  21 vectors were produced by pass  5.
  21 vectors were produced by pass  6.
  12 vectors were produced by pass  7.
   3 vectors were produced by pass  8.
 Inv2:  IOpt= 1 Iter= 1 AM= 1.84D-15 Conv= 1.00D-12.
 Inverted reduced A of dimension 162 with in-core refinement.

 **********************************************************************

            Population analysis using the SCF density.

 **********************************************************************

 Orbital Symmetries:
       Occupied  (A') (A') (A') (A') (A') (A') (A') (A') (A') (A')
                 (A') (A") (A') (A') (A') (A') (A") (A")
       Virtual   (A') (A") (A') (A") (A') (A') (A') (A') (A') (A")
                 (A') (A') (A') (A') (A") (A') (A') (A") (A') (A')
                 (A") (A') (A') (A") (A') (A') (A') (A') (A') (A')
                 (A") (A') (A") (A') (A") (A") (A') (A") (A') (A')
                 (A') (A') (A") (A') (A') (A") (A') (A') (A") (A')
                 (A") (A') (A') (A") (A") (A') (A') (A') (A') (A')
                 (A') (A") (A") (A') (A") (A') (A") (A') (A') (A')
                 (A') (A') (A') (A') (A') (A') (A') (A')
  The electronic state is 1-A'.
 Alpha  occ. eigenvalues --  -15.67627 -15.65324 -15.63326 -15.59197 -11.33132
 Alpha  occ. eigenvalues --   -1.52466  -1.26835  -1.21266   -.91635   -.89819
 Alpha  occ. eigenvalues --    -.81245   -.69101   -.68592   -.57438   -.47667
 Alpha  occ. eigenvalues --    -.46410   -.45942   -.42638
 Alpha virt. eigenvalues --     .12892    .14746    .16936    .19749    .33704
 Alpha virt. eigenvalues --     .36695    .38244    .48308    .53912    .56242
 Alpha virt. eigenvalues --     .62117    .65033    .69306    .74762    .77382
 Alpha virt. eigenvalues --     .78716    .80118    .81144    .83704    .89207
 Alpha virt. eigenvalues --     .91736    .94987    .96307    .96491   1.04994
 Alpha virt. eigenvalues --    1.08750   1.15755   1.22079   1.24933   1.41837
 Alpha virt. eigenvalues --    1.44174   1.45768   1.51212   1.61406   1.79267
 Alpha virt. eigenvalues --    1.96188   1.99224   2.03288   2.08491   2.13691
 Alpha virt. eigenvalues --    2.18731   2.37026   2.56223   2.56323   2.60527
 Alpha virt. eigenvalues --    2.67230   2.69855   2.80178   2.81865   2.97136
 Alpha virt. eigenvalues --    2.97500   3.03933   3.09933   3.14226   3.18342
 Alpha virt. eigenvalues --    3.22584   3.47890   3.55409   3.65309   3.72626
 Alpha virt. eigenvalues --    3.90933   3.99569   4.11721   4.26895   4.31601
 Alpha virt. eigenvalues --    4.39827   4.42121   4.43494   4.87908   5.00973
 Alpha virt. eigenvalues --    5.10207   5.38594   6.27317  24.95536  36.62789
 Alpha virt. eigenvalues --   36.86672  36.98034  37.06113
          Condensed to atoms (all electrons):
              1          2          3          4          5          6
  1  N    6.637238    .356304   -.094451    .005614    .316309   -.150071
  2  N     .356304   6.677708    .209272   -.024186   -.106443   -.105332
  3  N    -.094451    .209272   6.795116    .322776   -.068660    .356928
  4  H     .005614   -.024186    .322776    .311098    .005706   -.028130
  5  N     .316309   -.106443   -.068660    .005706   6.638594    .528503
  6  C    -.150071   -.105332    .356928   -.028130    .528503   4.819670
  7  H     .001726    .001732   -.026488   -.000119   -.014632    .387588
              7
  1  N     .001726
  2  N     .001732
  3  N    -.026488
  4  H    -.000119
  5  N    -.014632
  6  C     .387588
  7  H     .372687
 Total atomic charges:
              1
  1  N    -.072668
  2  N    -.009055
  3  N    -.494492
  4  H     .407241
  5  N    -.299377
  6  C     .190844
  7  H     .277506
 Sum of Mulliken charges=    .00000
 Atomic charges with hydrogens summed into heavy atoms:
              1
  1  N    -.072668
  2  N    -.009055
  3  N    -.087250
  4  H     .000000
  5  N    -.299377
  6  C     .468350
  7  H     .000000
 Sum of Mulliken charges=    .00000
 Electronic spatial extent (au):  <R**2>=   244.3080
 Charge=      .0000 electrons
 Dipole moment (Debye):
    X=     2.6524    Y=     4.9842    Z=      .0000  Tot=     5.6460
 Quadrupole moment (Debye-Ang):
   XX=   -28.7699   YY=   -26.6463   ZZ=   -28.5242
   XY=     1.9951   XZ=      .0000   YZ=      .0000
 Octapole moment (Debye-Ang**2):
  XXX=    12.5542  YYY=    22.9355  ZZZ=      .0000  XYY=     -.6928
  XXY=     5.0080  XXZ=      .0000  XZZ=     -.7036  YZZ=      .5831
  YYZ=      .0000  XYZ=      .0000
 Hexadecapole moment (Debye-Ang**3):
 XXXX=  -137.5458 YYYY=  -116.7715 ZZZZ=   -25.7584 XXXY=     6.8861
 XXXZ=      .0000 YYYX=      .0287 YYYZ=      .0000 ZZZX=      .0000
 ZZZY=      .0000 XXYY=   -52.2444 XXZZ=   -29.7591 YYZZ=   -28.2794
 XXYZ=      .0000 YYXZ=      .0000 ZZXY=      .0604
 N-N= 1.700682354119D+02 E-N=-9.420998637067D+02  KE= 2.569349976872D+02
 Symmetry A'   KE= 2.478937903834D+02
 Symmetry A"   KE= 9.041207303839D+00
  Exact polarizability:  35.037    .680  35.381    .000    .000  16.869
 Approx polarizability:  35.497    .322  37.939    .000    .000  18.152
 Full mass-weighted force constant matrix:
 Low frequencies ---  -12.8759   -9.9512   -5.7587     .0002     .0004     .0007
 Low frequencies ---  629.0836  753.5535  815.9726
 Harmonic frequencies (cm**-1), IR intensities (KM/Mole),
 Raman scattering activities (A**4/AMU), Raman depolarization ratios,
 reduced masses (AMU), force constants (mDyne/A) and normal coordinates:
                     1                      2                      3
                    A"                     A"                     A"
 Frequencies --   629.0836               753.5535               815.9726
 Red. masses --     1.6780                 2.0035                 9.1375
 Frc consts  --      .3913                  .6703                 3.5845
 IR Inten    --   123.0507                 8.7412                 9.0509
 Raman Activ --      .3866                  .2207                  .0987
 Depolar     --      .7500                  .7500                  .7500
 Atom AN      X      Y      Z        X      Y      Z        X      Y      Z
   1   7      .00    .00    .00      .00    .00    .03      .00    .00    .53
   2   7      .00    .00   -.07      .00    .00    .11      .00    .00   -.45
   3   7      .00    .00    .20      .00    .00   -.10      .00    .00    .14
   4   1      .00    .00   -.94      .00    .00   -.80      .00    .00    .59
   5   7      .00    .00    .03      .00    .00   -.17      .00    .00   -.35
   6   6      .00    .00   -.08      .00    .00    .18      .00    .00    .09
   7   1      .00    .00   -.25      .00    .00    .53      .00    .00    .16
                     4                      5                      6
                    A"                     A'                     A'
 Frequencies --  1004.7773              1091.2045              1114.3856
 Red. masses --     1.3838                 4.8064                 7.9566
 Frc consts  --      .8231                 3.3720                 5.8217
 IR Inten    --    10.8149                 2.0279                 1.8597
 Raman Activ --      .1165                 1.8333                 2.6641
 Depolar     --      .7500                  .5321                  .6433
 Atom AN      X      Y      Z        X      Y      Z        X      Y      Z
   1   7      .00    .00    .01      .00    .20    .00      .29   -.07    .00
   2   7      .00    .00    .00     -.18    .13    .00      .24    .02    .00
   3   7      .00    .00    .03     -.09   -.04    .00     -.04    .38    .00
   4   1      .00    .00    .03      .42   -.02    .00      .01    .40    .00
   5   7      .00    .00    .03      .34   -.23    .00     -.08   -.28    .00
   6   6      .00    .00   -.18     -.09   -.12    .00     -.44   -.06    .00
   7   1      .00    .00    .98     -.33    .65    .00     -.39   -.35    .00
                     7                      8                      9
                    A'                     A'                     A'
 Frequencies --  1174.4523              1201.2858              1256.4482
 Red. masses --     3.3782                 2.7597                 2.5346
 Frc consts  --     2.7454                 2.3464                 2.3575
 IR Inten    --    25.8418                32.3357                21.1231
 Raman Activ --     5.2943                 1.8494                 7.0771
 Depolar     --      .2300                  .6938                  .7295
 Atom AN      X      Y      Z        X      Y      Z        X      Y      Z
   1   7      .15    .03    .00      .17    .00    .00      .21    .14    .00
   2   7      .16    .15    .00     -.22   -.07    .00     -.09    .05    .00
   3   7     -.07   -.27    .00      .16   -.03    .00     -.15   -.06    .00
   4   1     -.02   -.28    .00      .93    .01    .00     -.36   -.07    .00
   5   7     -.17    .00    .00     -.10    .04    .00     -.03    .02    .00
   6   6     -.06    .05    .00     -.08    .07    .00      .08   -.11    .00
   7   1     -.31    .80    .00     -.06   -.01    .00      .29   -.81    .00
                    10                     11                     12
                    A'                     A'                     A'
 Frequencies --  1424.3468              1546.6169              1626.9736
 Red. masses --     2.8321                 5.4733                 3.2360
 Frc consts  --     3.3852                 7.7137                 5.0469
 IR Inten    --     1.9040                35.8697                12.2070
 Raman Activ --    12.1181                17.2913                 8.2317
 Depolar     --      .1045                  .1244                  .5626
 Atom AN      X      Y      Z        X      Y      Z        X      Y      Z
   1   7     -.07   -.01    .00     -.03    .39    .00      .02    .02    .00
   2   7      .12    .03    .00      .07   -.34    .00      .06   -.10    .00
   3   7     -.04   -.13    .00      .18   -.05    .00     -.16    .12    .00
   4   1      .58   -.11    .00     -.72   -.13    .00      .66    .19    .00
   5   7      .14    .19    .00     -.01    .06    .00     -.06    .16    .00
   6   6     -.22   -.03    .00     -.16   -.07    .00      .11   -.30    .00
   7   1     -.05   -.71    .00     -.28    .19    .00     -.14    .56    .00
                    13                     14                     15
                    A'                     A'                     A'
 Frequencies --  1723.6996              3463.1396              3950.4971
 Red. masses --     3.5028                 1.1045                 1.0851
 Frc consts  --     6.1317                 7.8044                 9.9772
 IR Inten    --    24.6740                  .1875               120.5542
 Raman Activ --     2.1287                60.3207                61.9791
 Depolar     --      .6885                  .2896                  .3039
 Atom AN      X      Y      Z        X      Y      Z        X      Y      Z
   1   7      .07   -.16    .00      .00    .00    .00      .00    .00    .00
   2   7     -.13    .15    .00      .00    .00    .00      .00    .00    .00
   3   7      .18    .02    .00      .00    .00    .00      .01   -.08    .00
   4   1     -.79   -.04    .00      .01    .02    .00     -.06   1.00    .00
   5   7      .05    .18    .00      .00    .00    .00      .00    .00    .00
   6   6     -.11   -.24    .00      .09    .03    .00      .00    .00    .00
   7   1     -.32    .27    .00     -.95   -.29    .00      .01    .00    .00

 -------------------
 - Thermochemistry -
 -------------------
 Temperature   298.150 Kelvin.  Pressure   1.00000 Atm.
 Atom  1 has atomic number  7 and mass  14.00307
 Atom  2 has atomic number  7 and mass  14.00307
 Atom  3 has atomic number  7 and mass  14.00307
 Atom  4 has atomic number  1 and mass   1.00783
 Atom  5 has atomic number  7 and mass  14.00307
 Atom  6 has atomic number  6 and mass  12.00000
 Atom  7 has atomic number  1 and mass   1.00783
 Molecular mass:    70.02795 amu.
 Principal axes and moments of inertia in atomic units:
                           1         2         3
     EIGENVALUES --   164.70563 167.80996 332.51559
           X             .93591    .35224    .00000
           Y            -.35224    .93591    .00000
           Z             .00000    .00000   1.00000
 THIS MOLECULE IS AN ASYMMETRIC TOP.
 ROTATIONAL SYMMETRY NUMBER  1.
 ROTATIONAL TEMPERATURES (KELVIN)       .52587      .51614      .26048
 ROTATIONAL CONSTANTS (GHZ)           10.95737    10.75467     5.42754
 Zero-point vibrational energy     136233.4 (Joules/Mol)
                                   32.56056 (Kcal/Mol)
 VIBRATIONAL TEMPERATURES:    905.11  1084.19  1174.00  1445.64  1569.99
          (KELVIN)           1603.34  1689.77  1728.37  1807.74  2049.31
                             2225.22  2340.84  2480.01  4982.66  5683.85
 
 Zero-point correction=                            .051889 (Hartree/Particle)
 Thermal correction to Energy=                     .055182
 Thermal correction to Enthalpy=                   .056126
 Thermal correction to Gibbs Free Energy=          .025904
 Sum of electronic and zero-point Energies=           -256.758908
 Sum of electronic and thermal Energies=              -256.755614
 Sum of electronic and thermal Enthalpies=            -256.754670
 Sum of electronic and thermal Free Energies=         -256.784892
 
                     E (Thermal)             CV                S
                      KCAL/MOL        CAL/MOL-KELVIN    CAL/MOL-KELVIN
 TOTAL                   34.627             10.054             63.608
 ELECTRONIC                .000               .000               .000
 TRANSLATIONAL             .889              2.981             38.656
 ROTATIONAL                .889              2.981             23.734
 VIBRATIONAL             32.850              4.093              1.218
                       Q            LOG10(Q)             LN(Q)
 TOTAL BOT        .121615D-11        -11.915013        -27.435331
 TOTAL V=0        .895160D+12         11.951901         27.520268
 VIB (BOT)        .153851D-23        -23.812899        -54.831226
 VIB (V=0)        .113244D+01           .054015           .124373
 ELECTRONIC       .100000D+01           .000000           .000000
 TRANSLATIONAL    .230339D+08          7.362368         16.952478
 ROTATIONAL       .343177D+05          4.535518         10.443417
 ***** Axes restored to original set *****
 -------------------------------------------------------------------
 Center     Atomic                   Forces (Hartrees/Bohr)
 Number     Number              X              Y              Z
 -------------------------------------------------------------------
    1          7           -.000276197     .000026470     .000000000
    2          7            .000056246    -.000007264     .000000000
    3          7            .000184170     .000125652     .000000000
    4          1            .000028049     .000052674     .000000000
    5          7            .000162620    -.000223022     .000000000
    6          6           -.000149799    -.000003182     .000000000
    7          1           -.000005090     .000028672     .000000000
 -------------------------------------------------------------------
 Cartesian Forces:  Max      .000276197 RMS      .000105323

 GradGradGradGradGradGradGradGradGradGradGradGradGradGradGradGradGradGrad
 Berny optimization.
 Internal  Forces:  Max      .000190822 RMS      .000071719
 Search for a local minimum.
 Step number   1 out of a maximum of  36
 All quantities printed in internal units (Hartrees-Bohrs-Radians)
 Second derivative matrix not updated -- analytic derivatives used.
     Eigenvalues ---     .00942    .03222    .08452    .09073    .12265
     Eigenvalues ---     .12910    .25876    .31046    .41933    .42779
     Eigenvalues ---     .53409    .55419    .59635    .70091    .78312
     Eigenvalues --- 1000.000001000.000001000.000001000.000001000.00000
     Eigenvalues --- 1000.000001000.000001000.000001000.000001000.00000
     Eigenvalues --- 1000.00000
 Angle between quadratic step and forces=  28.06 degrees.
 Linear search not attempted -- first point.
 Iteration  1 RMS(Cart)=   .00016293 RMS(Int)=   .00000002
 Iteration  2 RMS(Cart)=   .00000002 RMS(Int)=   .00000001
 Variable       Old X    -DE/DX   Delta X   Delta X   Delta X     New X
                                 (Linear)    (Quad)   (Total)
    R1        2.35830    .00013    .00000    .00002    .00002   2.35832
    R2        2.53433    .00019    .00000    .00065    .00065   2.53498
    R3        2.50274    .00006    .00000    .00017    .00017   2.50290
    R4        1.87107    .00006    .00000    .00010    .00010   1.87116
    R5        2.51442    .00004    .00000    .00011    .00011   2.51453
    R6        2.43087    .00004    .00000   -.00012   -.00012   2.43074
    R7        2.01815   -.00002    .00000   -.00002   -.00002   2.01813
    A1        1.94450   -.00009    .00000   -.00016   -.00016   1.94434
    A2        1.86396    .00011    .00000    .00028    .00028   1.86424
    A3        2.10997    .00005    .00000    .00006    .00006   2.11003
    A4        1.88262   -.00011    .00000   -.00031   -.00031   1.88230
    A5        2.29060    .00006    .00000    .00025    .00025   2.29085
    A6        1.84476   -.00005    .00000   -.00021   -.00021   1.84455
    A7        1.88894    .00014    .00000    .00041    .00041   1.88935
    A8        2.18171   -.00009    .00000   -.00040   -.00040   2.18131
    A9        2.21254   -.00004    .00000   -.00001   -.00001   2.21253
    D1         .00000    .00000    .00000    .00000    .00000    .00000
    D2         .00000    .00000    .00000    .00000    .00000    .00000
    D3        3.14159    .00000    .00000    .00000    .00000   3.14159
    D4         .00000    .00000    .00000    .00000    .00000    .00000
    D5         .00000    .00000    .00000    .00000    .00000    .00000
    D6        3.14159    .00000    .00000    .00000    .00000   3.14159
    D7        3.14159    .00000    .00000    .00000    .00000   3.14159
    D8         .00000    .00000    .00000    .00000    .00000    .00000
    D9         .00000    .00000    .00000    .00000    .00000    .00000
   D10        3.14159    .00000    .00000    .00000    .00000   3.14159
         Item               Value     Threshold  Converged?
 Maximum Force             .000191      .000450     YES
 RMS     Force             .000072      .000300     YES
 Maximum Displacement      .000441      .001800     YES
 RMS     Displacement      .000163      .001200     YES
 Predicted change in Energy=-1.713750D-07
 Optimization completed.
    -- Stationary point found.
                         ----------------------------
                         !   Optimized Parameters   !
                         ! (Angstroms and Degrees)  !
 ------------------------                            -------------------------
 ! Name  Definition              Value          Derivative Info.             !
 -----------------------------------------------------------------------------
 ! R1    R(1,2)                  1.248          -DE/DX =    0.0001           !
 ! R2    R(1,5)                  1.3411         -DE/DX =    0.0002           !
 ! R3    R(2,3)                  1.3244         -DE/DX =    0.0001           !
 ! R4    R(3,4)                  0.9901         -DE/DX =    0.0001           !
 ! R5    R(3,6)                  1.3306         -DE/DX =    0.               !
 ! R6    R(5,6)                  1.2864         -DE/DX =    0.               !
 ! R7    R(6,7)                  1.068          -DE/DX =    0.               !
 ! A1    A(2,1,5)              111.4117         -DE/DX =   -0.0001           !
 ! A2    A(1,2,3)              106.7969         -DE/DX =    0.0001           !
 ! A3    A(2,3,4)              120.8922         -DE/DX =    0.               !
 ! A4    A(2,3,6)              107.866          -DE/DX =   -0.0001           !
 ! A5    A(4,3,6)              131.2417         -DE/DX =    0.0001           !
 ! A6    A(1,5,6)              105.697          -DE/DX =   -0.0001           !
 ! A7    A(3,6,5)              108.2284         -DE/DX =    0.0001           !
 ! A8    A(3,6,7)              125.0027         -DE/DX =   -0.0001           !
 ! A9    A(5,6,7)              126.7689         -DE/DX =    0.               !
 ! D1    D(5,1,2,3)              0.             -DE/DX =    0.               !
 ! D2    D(2,1,5,6)              0.             -DE/DX =    0.               !
 ! D3    D(1,2,3,4)            180.             -DE/DX =    0.               !
 ! D4    D(1,2,3,6)              0.             -DE/DX =    0.               !
 ! D5    D(2,3,6,5)              0.             -DE/DX =    0.               !
 ! D6    D(2,3,6,7)            180.             -DE/DX =    0.               !
 ! D7    D(4,3,6,5)            180.             -DE/DX =    0.               !
 ! D8    D(4,3,6,7)              0.             -DE/DX =    0.               !
 ! D9    D(1,5,6,3)              0.             -DE/DX =    0.               !
 ! D10   D(1,5,6,7)            180.             -DE/DX =    0.               !
 -----------------------------------------------------------------------------
 GradGradGradGradGradGradGradGradGradGradGradGradGradGradGradGradGradGrad

 1\1\GINC-SCI-APPS\Freq\RHF\6-311G(d)\C1H2N4\RUS\24-Feb-2000\0\\#N GEOM
 =ALLCHECK GUESS=TCHECK RHF/6-311G(D) FREQ\\1H tetrazole c CH-NH-N=N-N=
  casno=288948\\0,1\N,-1.1214432252,-0.2528755975,0.\N,-0.6709990025,0.
 9109558274,0.\N,0.649556368,0.8102406828,0.\H,1.2210535547,1.618783311
 7,0.\N,-0.13378067,-1.1601214086,0.\C,0.9602786819,-0.4835437848,0.\H,
 1.9539400622,-0.8749171317,0.\\Version=IBM-RS6000-G98RevA.7\State=1-A'
 \HF=-256.8107964\RMSD=8.667e-10\RMSF=1.053e-04\Dipole=2.0407254,0.8772
 402,0.\DipoleDeriv=-0.004012,-0.2299907,0.,-0.2142509,0.0950355,0.,0.,
 0.,-0.1502241,0.2615807,0.3438598,0.,0.2433043,-0.3428816,0.,0.,0.,-0.
 0901265,-0.4144648,-0.3394302,0.,-0.2089368,-0.3103617,0.,0.,0.,-0.225
 9792,0.2469142,0.0557953,0.,0.038383,0.2903521,0.,0.,0.,0.3824708,-0.5
 267105,0.1694316,0.,-0.0686583,-0.376156,0.,0.,0.,-0.2619969,0.3988469
 ,-0.0167411,0.,0.1851123,0.5252463,0.,0.,0.,0.181249,0.0378455,0.01707
 53,0.,0.0250463,0.1187655,0.,0.,0.,0.1646069\Polar=35.835385,0.3154158
 ,34.5828351,0.,0.,16.8688955\PolarDeriv=-8.0230926,-3.5054704,-1.06779
 85,0.,0.,-0.4789058,-2.8872988,3.0121666,-5.2317192,0.,0.,-0.0378669,0
 .,0.,0.,-2.9472507,-1.376396,0.,-1.4591468,1.0374784,-2.2321098,0.,0.,
 0.2047286,3.5773873,-4.8724667,10.660328,0.,0.,0.2963713,0.,0.,0.,-1.3
 743595,3.1672891,0.,-0.2330876,0.4096416,0.296657,0.,0.,-0.2905049,1.3
 833834,0.9641268,-1.3121658,0.,0.,1.064208,0.,0.,0.,1.1099676,1.485577
 ,0.,2.7225378,2.4542674,2.3169362,0.,0.,-0.2079368,1.8953964,2.7995831
 ,5.5736387,0.,0.,-0.0058503,0.,0.,0.,0.3590744,0.5978915,0.,-3.4171147
 ,3.3491775,-2.5235787,0.,0.,-0.5836495,-2.1727439,-1.4741035,-8.733861
 5,0.,0.,-0.4625827,0.,0.,0.,-1.196264,-2.8787118,0.,3.1421428,-1.44749
 53,1.7086264,0.,0.,1.0838398,0.1623017,-2.3442378,0.6219102,0.,0.,-0.7
 345494,0.,0.,0.,3.4432075,-0.6178279,0.,7.2677611,-2.2975991,1.5012673
 ,0.,0.,0.2724287,-1.9584262,1.9149314,-1.5781304,0.,0.,-0.11973,0.,0.,
 0.,0.6056246,-0.3778218,0.\HyperPolar=51.6012677,-0.3565977,12.4748936
 ,17.1419121,0.,0.,0.,14.6921177,-0.3508687,0.\PG=CS [SG(C1H2N4)]\NImag
 =0\\0.69503198,0.14132153,0.68128053,0.,0.,0.15199669,-0.19634984,-0.1
 5538197,0.,0.55394034,-0.10246861,-0.48853858,0.,-0.00241577,0.8417405
 6,0.,0.,-0.11964999,0.,0.,0.14115494,-0.13039702,-0.13738959,0.,-0.287
 58557,0.02557131,0.,0.82621894,-0.03431232,-0.08238121,0.,0.07499951,-
 0.14930976,0.,0.23113316,1.09577946,0.,0.,0.03400429,0.,0.,-0.08263341
 ,0.,0.,0.10903715,-0.01308185,0.00044998,0.,-0.00651421,-0.03984580,0.
 ,-0.23590689,-0.20108298,0.,0.23451801,0.00814269,0.00412064,0.,0.0015
 1123,0.01619694,0.,-0.21435270,-0.40159987,0.,0.22569094,0.39357783,0.
 ,0.,0.00891784,0.,0.,-0.01424590,0.,0.,-0.00787883,0.,0.,0.01599314,-0
 .21364298,0.06788269,0.,0.01570859,0.11631355,0.,-0.00867733,-0.145812
 79,0.,0.00173873,0.00114063,0.,0.60997782,0.03902235,-0.17327422,0.,-0
 .02525083,-0.14413375,0.,0.00807698,-0.09744843,0.,0.00942233,-0.00718
 750,0.,0.12472325,0.66523405,0.,0.,-0.10843180,0.,0.,0.04374747,0.,0.,
 0.02553619,0.,0.,0.00912174,0.,0.,0.13249257,-0.13785653,0.08485589,0.
 ,-0.07970059,0.00578645,0.,-0.17043268,0.07766473,0.,0.01980626,-0.022
 94629,0.,-0.38842133,-0.16882981,0.,1.11385730,-0.04492142,0.05973841,
 0.,0.10808540,-0.06844648,0.,0.04929935,-0.36108653,0.,0.00566722,-0.0
 0485206,0.,-0.14479440,-0.26142840,0.,-0.08954825,0.75243783,0.,0.,0.0
 2210473,0.,0.,0.02452548,0.,0.,-0.07782885,0.,0.,-0.01057111,0.,0.,-0.
 09850513,0.,0.,0.18364369,-0.00370376,-0.00173853,0.,0.00050128,-0.002
 94114,0.,0.00678055,-0.00258931,0.,-0.00056005,0.00081350,0.,-0.016683
 50,0.01283573,0.,-0.35725243,0.11621210,0.,0.37091792,-0.00678423,-0.0
 0094557,0.,-0.00154758,-0.00750895,0.,0.03766148,-0.00395367,0.,-0.000
 30169,-0.00025598,0.,-0.01945293,0.01823824,0.,0.11301729,-0.11636277,
 0.,-0.12259234,0.11078870,0.,0.,0.01105824,0.,0.,0.00710141,0.,0.,-0.0
 0023654,0.,0.,-0.00133688,0.,0.,-0.00396105,0.,0.,-0.04336880,0.,0.,0.
 03074362\\0.00027620,-0.00002647,0.,-0.00005625,0.00000726,0.,-0.00018
 417,-0.00012565,0.,-0.00002805,-0.00005267,0.,-0.00016262,0.00022302,0
 .,0.00014980,0.00000318,0.,0.00000509,-0.00002867,0.\\\@


 SUCCESS IS COUNTED SWEETEST
 BY THOSE WHO NE'ER SUCCEED.
 TO COMPREHEND NECTAR
 REQUIRES SOREST NEED.
           EMILY DICKINSON
 Job cpu time:  0 days  0 hours  6 minutes  6.7 seconds.
 File lengths (MBytes):  RWF=   19 Int=    0 D2E=    0 Chk=    3 Scr=    1
 Normal termination of Gaussian 98.
