 Entering Gaussian System, Link 0=g98
 Initial command:
 /usr/local/apps/g98/g98/l1.exe /wrk/Gau-16088.inp -scrdir=/wrk/
 Entering Link 1 = /usr/local/apps/g98/g98/l1.exe PID=     15500.
  
 Copyright (c) 1988,1990,1992,1993,1995,1998 Gaussian, Inc.
                  All Rights Reserved.
  
 This is part of the Gaussian(R) 98 program.  It is based on
 the Gaussian 94(TM) system (copyright 1995 Gaussian, Inc.),
 the Gaussian 92(TM) system (copyright 1992 Gaussian, Inc.),
 the Gaussian 90(TM) system (copyright 1990 Gaussian, Inc.),
 the Gaussian 88(TM) system (copyright 1988 Gaussian, Inc.),
 the Gaussian 86(TM) system (copyright 1986 Carnegie Mellon
 University), and the Gaussian 82(TM) system (copyright 1983
 Carnegie Mellon University). Gaussian is a federally registered
 trademark of Gaussian, Inc.
  
 This software contains proprietary and confidential information,
 including trade secrets, belonging to Gaussian, Inc.
  
 This software is provided under written license and may be
 used, copied, transmitted, or stored only in accord with that
 written license.
  
 The following legend is applicable only to US Government
 contracts under DFARS:
  
                    RESTRICTED RIGHTS LEGEND
  
 Use, duplication or disclosure by the US Government is subject
 to restrictions as set forth in subparagraph (c)(1)(ii) of the
 Rights in Technical Data and Computer Software clause at DFARS
 252.227-7013.
  
 Gaussian, Inc.
 Carnegie Office Park, Building 6, Pittsburgh, PA 15106 USA
  
 The following legend is applicable only to US Government
 contracts under FAR:
  
                    RESTRICTED RIGHTS LEGEND
  
 Use, reproduction and disclosure by the US Government is subject
 to restrictions as set forth in subparagraph (c) of the
 Commercial Computer Software - Restricted Rights clause at FAR
 52.227-19.
  
 Gaussian, Inc.
 Carnegie Office Park, Building 6, Pittsburgh, PA 15106 USA
  
  
 ---------------------------------------------------------------
 Warning -- This program may not be used in any manner that
 competes with the business of Gaussian, Inc. or will provide
 assistance to any competitor of Gaussian, Inc.  The licensee
 of this program is prohibited from giving any competitor of
 Gaussian, Inc. access to this program.  By using this program,
 the user acknowledges that Gaussian, Inc. is engaged in the
 business of creating and licensing software in the field of
 computational chemistry and represents and warrants to the
 licensee that it is not a competitor of Gaussian, Inc. and that
 it will not use this program in any manner prohibited above.
 ---------------------------------------------------------------
  

 Cite this work as:
 Gaussian 98, Revision A.7,
 M. J. Frisch, G. W. Trucks, H. B. Schlegel, G. E. Scuseria, 
 M. A. Robb, J. R. Cheeseman, V. G. Zakrzewski, J. A. Montgomery, Jr., 
 R. E. Stratmann, J. C. Burant, S. Dapprich, J. M. Millam, 
 A. D. Daniels, K. N. Kudin, M. C. Strain, O. Farkas, J. Tomasi, 
 V. Barone, M. Cossi, R. Cammi, B. Mennucci, C. Pomelli, C. Adamo, 
 S. Clifford, J. Ochterski, G. A. Petersson, P. Y. Ayala, Q. Cui, 
 K. Morokuma, D. K. Malick, A. D. Rabuck, K. Raghavachari, 
 J. B. Foresman, J. Cioslowski, J. V. Ortiz, A. G. Baboul, 
 B. B. Stefanov, G. Liu, A. Liashenko, P. Piskorz, I. Komaromi, 
 R. Gomperts, R. L. Martin, D. J. Fox, T. Keith, M. A. Al-Laham, 
 C. Y. Peng, A. Nanayakkara, C. Gonzalez, M. Challacombe, 
 P. M. W. Gill, B. Johnson, W. Chen, M. W. Wong, J. L. Andres, 
 C. Gonzalez, M. Head-Gordon, E. S. Replogle, and J. A. Pople, 
 Gaussian, Inc., Pittsburgh PA, 1998.

 **********************************************
 Gaussian 98:  IBM-RS6000-G98RevA.7 11-Apr-1999
                   5-Apr-2000 
 **********************************************
 %mem=24000000
 -------------------
 #HF/3-21G* opt freq
 -------------------
 1/18=20,38=1/1,3;
 2/9=110,17=6,18=5/2;
 3/5=5,7=1,11=9,25=1,30=1/1,2,3;
 4//1;
 5/5=2,38=4/2;
 6/7=2,8=2,9=2,10=2,28=1/1;
 7//1,2,3,16;
 1/18=20/3(1);
 99//99;
 2/9=110/2;
 3/5=5,7=1,11=9,25=1,30=1/1,2,3;
 4/5=5,16=2/1;
 5/5=2,38=4/2;
 7//1,2,3,16;
 1/18=20/3(-5);
 2/9=110/2;
 6/7=2,8=2,9=2,10=2,19=2,28=1/1;
 99/9=1/99;
 ----------------------------------------
 1H tetrazole c CH-NH-N=N-N= casno=288948
 ----------------------------------------
 Symbolic Z-matrix:
 Charge =  0 Multiplicity = 1
 7                    -1.12329  -0.25456   0. 
 7                    -0.67158   0.91328   0. 
 7                     0.65055   0.80984   0. 
 1                     1.224     1.62189   0. 
 7                    -0.13465  -1.16105   0. 
 6                     0.96218  -0.48332   0. 
 1                     1.95569  -0.87454   0. 

 GradGradGradGradGradGradGradGradGradGradGradGradGradGradGradGradGradGrad
 Berny optimization.
 Initialization pass.
                         ----------------------------
                         !    Initial Parameters    !
                         ! (Angstroms and Degrees)  !
 ------------------------                            -------------------------
 ! Name  Definition              Value          Derivative Info.             !
 -----------------------------------------------------------------------------
 ! R1    R(1,2)                  1.2522         estimate D2E/DX2             !
 ! R2    R(1,5)                  1.3413         estimate D2E/DX2             !
 ! R3    R(2,3)                  1.3262         estimate D2E/DX2             !
 ! R4    R(3,4)                  0.9941         estimate D2E/DX2             !
 ! R5    R(3,6)                  1.3302         estimate D2E/DX2             !
 ! R6    R(5,6)                  1.2893         estimate D2E/DX2             !
 ! R7    R(6,7)                  1.0678         estimate D2E/DX2             !
 ! A1    A(2,1,5)              111.3714         estimate D2E/DX2             !
 ! A2    A(1,2,3)              106.673          estimate D2E/DX2             !
 ! A3    A(2,3,4)              120.7559         estimate D2E/DX2             !
 ! A4    A(2,3,6)              108.0227         estimate D2E/DX2             !
 ! A5    A(4,3,6)              131.2214         estimate D2E/DX2             !
 ! A6    A(1,5,6)              105.77           estimate D2E/DX2             !
 ! A7    A(3,6,5)              108.1628         estimate D2E/DX2             !
 ! A8    A(3,6,7)              125.0426         estimate D2E/DX2             !
 ! A9    A(5,6,7)              126.7945         estimate D2E/DX2             !
 ! D1    D(5,1,2,3)              0.             estimate D2E/DX2             !
 ! D2    D(2,1,5,6)              0.             estimate D2E/DX2             !
 ! D3    D(1,2,3,4)            180.             estimate D2E/DX2             !
 ! D4    D(1,2,3,6)              0.             estimate D2E/DX2             !
 ! D5    D(2,3,6,5)              0.             estimate D2E/DX2             !
 ! D6    D(2,3,6,7)            180.             estimate D2E/DX2             !
 ! D7    D(4,3,6,5)            180.             estimate D2E/DX2             !
 ! D8    D(4,3,6,7)              0.             estimate D2E/DX2             !
 ! D9    D(1,5,6,3)              0.             estimate D2E/DX2             !
 ! D10   D(1,5,6,7)            180.             estimate D2E/DX2             !
 -----------------------------------------------------------------------------
 Trust Radius=3.00D-01 FncErr=1.00D-07 GrdErr=1.00D-07
 Number of steps in this run=  36 maximum allowed number of steps= 100.
 GradGradGradGradGradGradGradGradGradGradGradGradGradGradGradGradGradGrad

                          Input orientation:                          
 ---------------------------------------------------------------------
 Center     Atomic     Atomic              Coordinates (Angstroms)
 Number     Number      Type              X           Y           Z
 ---------------------------------------------------------------------
    1          7             0       -1.123293    -.254560     .000000
    2          7             0        -.671576     .913277     .000000
    3          7             0         .650545     .809842     .000000
    4          1             0        1.224004    1.621891     .000000
    5          7             0        -.134646   -1.161053     .000000
    6          6             0         .962183    -.483316     .000000
    7          1             0        1.955691    -.874535     .000000
 ---------------------------------------------------------------------
                    Distance matrix (angstroms):
                    1          2          3          4          5
     1  N     .000000
     2  N    1.252155    .000000
     3  N    2.068684   1.326161    .000000
     4  H    3.005141   2.023699    .994122    .000000
     5  N    1.341325   2.142694   2.121545   3.096887    .000000
     6  C    2.097985   2.149335   1.330179   2.121426   1.289326
     7  H    3.140782   3.177861   2.130852   2.601444   2.109882
                    6          7
     6  C     .000000
     7  H    1.067760    .000000
 Stoichiometry    CH2N4
 Framework group  CS[SG(CH2N4)]
 Deg. of freedom   11
 Full point group                 CS      NOp   2
 Largest Abelian subgroup         CS      NOp   2
 Largest concise Abelian subgroup C1      NOp   1
                         Standard orientation:                         
 ---------------------------------------------------------------------
 Center     Atomic     Atomic              Coordinates (Angstroms)
 Number     Number      Type              X           Y           Z
 ---------------------------------------------------------------------
    1          7             0        -.716312    -.901934     .000000
    2          7             0       -1.095520     .291420     .000000
    3          7             0         .000000    1.038775     .000000
    4          1             0        -.061479    2.030994     .000000
    5          7             0         .622151    -.989495     .000000
    6          6             0        1.052813     .225779     .000000
    7          1             0        2.072370     .542976     .000000
 ---------------------------------------------------------------------
 Rotational constants (GHZ):     10.9198679     10.7343949      5.4131685
 Isotopes: N-14,N-14,N-14,H-1,N-14,C-12,H-1
 Standard basis: 3-21G* (6D, 7F)
 There are    39 symmetry adapted basis functions of A'  symmetry.
 There are    10 symmetry adapted basis functions of A"  symmetry.
 Crude estimate of integral set expansion from redundant integrals=1.000.
 Integral buffers will be    262144 words long.
 Raffenetti 1 integral format.
 Two-electron integral symmetry is turned on.
    49 basis functions       81 primitive gaussians
    18 alpha electrons       18 beta electrons
       nuclear repulsion energy       169.8288422228 Hartrees.
 One-electron integrals computed using PRISM.
 NBasis=    49 RedAO= T  NBF=    39    10
 NBsUse=    49 1.00D-04 NBFU=    39    10
 Projected INDO Guess.
 Initial guess orbital symmetries:
       Occupied  (A') (A') (A') (A') (A') (A') (A') (A') (A') (A')
                 (A') (A") (A') (A') (A") (A") (A') (A')
       Virtual   (A") (A') (A") (A') (A') (A') (A') (A') (A') (A')
                 (A') (A') (A') (A') (A') (A') (A') (A') (A') (A')
                 (A') (A') (A') (A') (A') (A') (A") (A") (A") (A")
                 (A")
 Requested convergence on RMS density matrix=1.00D-08 within  64 cycles.
 Requested convergence on MAX density matrix=1.00D-06.
 Keep R1 integrals in memory in canonical form, NReq=     1163494.
 SCF Done:  E(RHF) =  -255.261123681     A.U. after   14 cycles
             Convg  =     .7051D-08             -V/T =  2.0004
             S**2   =    .0000

 **********************************************************************

            Population analysis using the SCF density.

 **********************************************************************

 Orbital Symmetries:
       Occupied  (A') (A') (A') (A') (A') (A') (A') (A') (A') (A')
                 (A') (A") (A') (A') (A") (A') (A') (A")
       Virtual   (A") (A") (A') (A') (A') (A') (A') (A') (A') (A")
                 (A') (A') (A') (A') (A") (A') (A') (A") (A') (A")
                 (A') (A") (A') (A') (A') (A') (A') (A') (A') (A')
                 (A')
  The electronic state is 1-A'.
 Alpha  occ. eigenvalues --  -15.61941 -15.59728 -15.57345 -15.53662 -11.29263
 Alpha  occ. eigenvalues --   -1.56600  -1.28794  -1.23643   -.92128   -.90653
 Alpha  occ. eigenvalues --    -.82214   -.70638   -.68746   -.57037   -.47110
 Alpha  occ. eigenvalues --    -.47063   -.45414   -.43569
 Alpha virt. eigenvalues --     .14677    .20552    .23545    .28009    .40591
 Alpha virt. eigenvalues --     .41796    .55279    .58001    .71425    .93303
 Alpha virt. eigenvalues --     .95218   1.06182   1.10326   1.21841   1.32053
 Alpha virt. eigenvalues --    1.33619   1.37243   1.38546   1.41766   1.46076
 Alpha virt. eigenvalues --    1.46645   1.51174   1.52796   1.65021   1.69059
 Alpha virt. eigenvalues --    1.75941   1.96559   2.40709   2.70611   2.99158
 Alpha virt. eigenvalues --    3.06303
          Condensed to atoms (all electrons):
              1          2          3          4          5          6
  1  N    6.806759    .283711   -.156443    .003209    .285475   -.145659
  2  N     .283711   6.850049    .152537   -.017850   -.147005   -.115945
  3  N    -.156443    .152537   7.317259    .324872   -.082931    .176410
  4  H     .003209   -.017850    .324872    .274293    .002396   -.010823
  5  N     .285475   -.147005   -.082931    .002396   6.987189    .405904
  6  C    -.145659   -.115945    .176410   -.010823    .405904   4.857153
  7  H     .003065    .001239   -.038161    .000692   -.025706    .369143
              7
  1  N     .003065
  2  N     .001239
  3  N    -.038161
  4  H     .000692
  5  N    -.025706
  6  C     .369143
  7  H     .371040
 Total atomic charges:
              1
  1  N    -.080116
  2  N    -.006734
  3  N    -.693542
  4  H     .423210
  5  N    -.425322
  6  C     .463817
  7  H     .318688
 Sum of Mulliken charges=    .00000
 Atomic charges with hydrogens summed into heavy atoms:
              1
  1  N    -.080116
  2  N    -.006734
  3  N    -.270332
  4  H     .000000
  5  N    -.425322
  6  C     .782505
  7  H     .000000
 Sum of Mulliken charges=    .00000
 Electronic spatial extent (au):  <R**2>=   245.8511
 Charge=      .0000 electrons
 Dipole moment (Debye):
    X=     2.8621    Y=     5.2299    Z=      .0000  Tot=     5.9618
 Quadrupole moment (Debye-Ang):
   XX=   -29.3858   YY=   -27.3728   ZZ=   -28.6067
   XY=     2.0387   XZ=      .0000   YZ=      .0000
 Octapole moment (Debye-Ang**2):
  XXX=    13.0766  YYY=    23.8866  ZZZ=      .0000  XYY=     -.6442
  XXY=     5.1777  XXZ=      .0000  XZZ=     -.8802  YZZ=      .3719
  YYZ=      .0000  XYZ=      .0000
 Hexadecapole moment (Debye-Ang**3):
 XXXX=  -134.2815 YYYY=  -112.4775 ZZZZ=   -23.4289 XXXY=     6.8776
 XXXZ=      .0000 YYYX=     -.4019 YYYZ=      .0000 ZZZX=      .0000
 ZZZY=      .0000 XXYY=   -51.3337 XXZZ=   -28.7382 YYZZ=   -27.0994
 XXYZ=      .0000 YYXZ=      .0000 ZZXY=     -.1548
 N-N= 1.698288422228D+02 E-N=-9.370393791964D+02  KE= 2.551704188774D+02
 Symmetry A'   KE= 2.462240143804D+02
 Symmetry A"   KE= 8.946404496973D+00
 ***** Axes restored to original set *****
 -------------------------------------------------------------------
 Center     Atomic                   Forces (Hartrees/Bohr)
 Number     Number              X              Y              Z
 -------------------------------------------------------------------
    1          7           -.062733150    -.014818703     .000000000
    2          7           -.027934511     .047830263     .000000000
    3          7            .043265036     .017252383     .000000000
    4          1            .000245035    -.000748257     .000000000
    5          7            .018807837    -.039732667     .000000000
    6          6            .034400317    -.011748297     .000000000
    7          1           -.006050563     .001965278     .000000000
 -------------------------------------------------------------------
 Cartesian Forces:  Max      .062733150 RMS      .024579837

 GradGradGradGradGradGradGradGradGradGradGradGradGradGradGradGradGradGrad
 Berny optimization.
 Internal  Forces:  Max      .049399177 RMS      .018105949
 Search for a local minimum.
 Step number   1 out of a maximum of  36
 All quantities printed in internal units (Hartrees-Bohrs-Radians)
 Second derivative matrix not updated -- first step.
     Eigenvalues ---     .02505    .02639    .02674    .02834    .16000
     Eigenvalues ---     .16000    .22605    .24688    .37515    .48737
     Eigenvalues ---     .50885    .56605    .58506    .66912    .78894
     Eigenvalues --- 1000.000001000.000001000.000001000.000001000.00000
     Eigenvalues --- 1000.000001000.000001000.000001000.000001000.00000
     Eigenvalues --- 1000.00000
 RFO step:  Lambda=-1.33288318D-02.
 Linear search not attempted -- first point.
 Iteration  1 RMS(Cart)=   .02670025 RMS(Int)=   .00028719
 Iteration  2 RMS(Cart)=   .00022868 RMS(Int)=   .00013828
 Iteration  3 RMS(Cart)=   .00000006 RMS(Int)=   .00013828
 Variable       Old X    -DE/DX   Delta X   Delta X   Delta X     New X
                                 (Linear)    (Quad)   (Total)
    R1        2.36623    .04664    .00000    .05868    .05887   2.42510
    R2        2.53474    .04890    .00000    .08596    .08608   2.62082
    R3        2.50608    .04940    .00000    .08076    .08076   2.58684
    R4        1.87862   -.00047    .00000   -.00094   -.00094   1.87768
    R5        2.51367    .02319    .00000    .03449    .03430   2.54797
    R6        2.43647    .02607    .00000    .03383    .03371   2.47018
    R7        2.01777   -.00635    .00000   -.01635   -.01635   2.00143
    A1        1.94380   -.01264    .00000   -.03272   -.03235   1.91145
    A2        1.86179   -.00168    .00000    .00660    .00682   1.86861
    A3        2.10759   -.00085    .00000    .00128    .00138   2.10897
    A4        1.88535    .00288    .00000    .00429    .00409   1.88944
    A5        2.29025   -.00203    .00000   -.00557   -.00547   2.28478
    A6        1.84604    .00814    .00000    .02452    .02445   1.87049
    A7        1.88780    .00330    .00000   -.00269   -.00301   1.88479
    A8        2.18241   -.00126    .00000    .00361    .00376   2.18617
    A9        2.21298   -.00204    .00000   -.00091   -.00076   2.21223
    D1         .00000    .00000    .00000    .00000    .00000    .00000
    D2         .00000    .00000    .00000    .00000    .00000    .00000
    D3        3.14159    .00000    .00000    .00000    .00000   3.14159
    D4         .00000    .00000    .00000    .00000    .00000    .00000
    D5         .00000    .00000    .00000    .00000    .00000    .00000
    D6        3.14159    .00000    .00000    .00000    .00000   3.14159
    D7        3.14159    .00000    .00000    .00000    .00000   3.14159
    D8         .00000    .00000    .00000    .00000    .00000    .00000
    D9         .00000    .00000    .00000    .00000    .00000    .00000
   D10        3.14159    .00000    .00000    .00000    .00000   3.14159
         Item               Value     Threshold  Converged?
 Maximum Force             .049399      .000450     NO 
 RMS     Force             .018106      .000300     NO 
 Maximum Displacement      .092297      .001800     NO 
 RMS     Displacement      .026729      .001200     NO 
 Predicted change in Energy=-6.525078D-03
 GradGradGradGradGradGradGradGradGradGradGradGradGradGradGradGradGradGrad

                          Input orientation:                          
 ---------------------------------------------------------------------
 Center     Atomic     Atomic              Coordinates (Angstroms)
 Number     Number      Type              X           Y           Z
 ---------------------------------------------------------------------
    1          7             0       -1.172134    -.262760     .000000
    2          7             0        -.698457     .929930     .000000
    3          7             0         .666038     .820220     .000000
    4          1             0        1.242077    1.629832     .000000
    5          7             0        -.128282   -1.175885     .000000
    6          6             0         .984460    -.489968     .000000
    7          1             0        1.969207    -.879823     .000000
 ---------------------------------------------------------------------
                    Distance matrix (angstroms):
                    1          2          3          4          5
     1  N     .000000
     2  N    1.283308    .000000
     3  N    2.133477   1.368899    .000000
     4  H    3.067624   2.062895    .993626    .000000
     5  N    1.386876   2.181641   2.148344   3.122488    .000000
     6  C    2.168530   2.201890   1.348327   2.135397   1.307163
     7  H    3.201373   3.223606   2.142054   2.612869   2.118281
                    6          7
     6  C     .000000
     7  H    1.059110    .000000
 Stoichiometry    CH2N4
 Framework group  CS[SG(CH2N4)]
 Deg. of freedom   11
 Full point group                 CS      NOp   2
 Largest Abelian subgroup         CS      NOp   2
 Largest concise Abelian subgroup C1      NOp   1
                         Standard orientation:                         
 ---------------------------------------------------------------------
 Center     Atomic     Atomic              Coordinates (Angstroms)
 Number     Number      Type              X           Y           Z
 ---------------------------------------------------------------------
    1          7             0        -.735974    -.942014     .000000
    2          7             0       -1.125180     .280851     .000000
    3          7             0         .000000    1.060501     .000000
    4          1             0        -.067297    2.051845     .000000
    5          7             0         .650169    -.987098     .000000
    6          6             0        1.076474     .248596     .000000
    7          1             0        2.085351     .570903     .000000
 ---------------------------------------------------------------------
 Rotational constants (GHZ):     10.5339178     10.1826582      5.1776550
 Isotopes: N-14,N-14,N-14,H-1,N-14,C-12,H-1
 Standard basis: 3-21G* (6D, 7F)
 There are    39 symmetry adapted basis functions of A'  symmetry.
 There are    10 symmetry adapted basis functions of A"  symmetry.
 Crude estimate of integral set expansion from redundant integrals=1.000.
 Integral buffers will be    262144 words long.
 Raffenetti 1 integral format.
 Two-electron integral symmetry is turned on.
    49 basis functions       81 primitive gaussians
    18 alpha electrons       18 beta electrons
       nuclear repulsion energy       166.1708972991 Hartrees.
 One-electron integrals computed using PRISM.
 NBasis=    49 RedAO= T  NBF=    39    10
 NBsUse=    49 1.00D-04 NBFU=    39    10
 Initial guess read from the read-write file:
 Initial guess orbital symmetries:
       Occupied  (A') (A') (A') (A') (A') (A') (A') (A') (A') (A')
                 (A') (A") (A') (A') (A") (A') (A') (A")
       Virtual   (A") (A") (A') (A') (A') (A') (A') (A') (A') (A")
                 (A') (A') (A') (A') (A") (A') (A') (A") (A') (A")
                 (A') (A") (A') (A') (A') (A') (A') (A') (A') (A')
                 (A')
 Requested convergence on RMS density matrix=1.00D-08 within  64 cycles.
 Requested convergence on MAX density matrix=1.00D-06.
 Keep R1 integrals in memory in canonical form, NReq=     1163494.
 SCF Done:  E(RHF) =  -255.267845517     A.U. after   12 cycles
             Convg  =     .8873D-08             -V/T =  2.0023
             S**2   =    .0000
 ***** Axes restored to original set *****
 -------------------------------------------------------------------
 Center     Atomic                   Forces (Hartrees/Bohr)
 Number     Number              X              Y              Z
 -------------------------------------------------------------------
    1          7            .003171240     .007152566     .000000000
    2          7           -.009457504     .010401894     .000000000
    3          7            .009108012    -.002400035     .000000000
    4          1           -.000761799     .001344581     .000000000
    5          7            .014521515    -.018124911     .000000000
    6          6           -.017013259     .002506250     .000000000
    7          1            .000431795    -.000880344     .000000000
 -------------------------------------------------------------------
 Cartesian Forces:  Max      .018124911 RMS      .007515205

 GradGradGradGradGradGradGradGradGradGradGradGradGradGradGradGradGradGrad
 Berny optimization.
 Internal  Forces:  Max      .011050618 RMS      .004944067
 Search for a local minimum.
 Step number   2 out of a maximum of  36
 All quantities printed in internal units (Hartrees-Bohrs-Radians)
 Update second derivatives using information from points  1  2
 Trust test= 1.03D+00 RLast= 1.47D-01 DXMaxT set to 4.24D-01
     Eigenvalues ---     .02503    .02633    .02676    .02834    .15987
     Eigenvalues ---     .16013    .22593    .25130    .37665    .48284
     Eigenvalues ---     .48837    .54523    .56876    .70117    .81969
     Eigenvalues --- 1000.000001000.000001000.000001000.000001000.00000
     Eigenvalues --- 1000.000001000.000001000.000001000.000001000.00000
     Eigenvalues --- 1000.00000
 RFO step:  Lambda=-2.26966456D-03.
 Quartic linear search produced a step of   .04756.
 Iteration  1 RMS(Cart)=   .01631520 RMS(Int)=   .00024340
 Iteration  2 RMS(Cart)=   .00023014 RMS(Int)=   .00003758
 Iteration  3 RMS(Cart)=   .00000002 RMS(Int)=   .00003758
 Variable       Old X    -DE/DX   Delta X   Delta X   Delta X     New X
                                 (Linear)    (Quad)   (Total)
    R1        2.42510    .00322    .00280    .01273    .01550   2.44060
    R2        2.62082    .01063    .00409    .03117    .03529   2.65611
    R3        2.58684    .00387    .00384    .01733    .02113   2.60797
    R4        1.87768    .00065   -.00004    .00128    .00123   1.87891
    R5        2.54797    .00228    .00163    .00695    .00858   2.55655
    R6        2.47018   -.00730    .00160   -.00763   -.00598   2.46420
    R7        2.00143    .00073   -.00078   -.00010   -.00088   2.00055
    A1        1.91145    .00976   -.00154    .04157    .04003   1.95147
    A2        1.86861   -.00886    .00032   -.03119   -.03097   1.83764
    A3        2.10897   -.00161    .00007   -.00775   -.00766   2.10130
    A4        1.88944    .00060    .00019   -.00053   -.00038   1.88906
    A5        2.28478    .00102   -.00026    .00828    .00804   2.29282
    A6        1.87049   -.01105    .00116   -.04667   -.04539   1.82510
    A7        1.88479    .00956   -.00014    .03681    .03671   1.92150
    A8        2.18617   -.00412    .00018   -.01384   -.01368   2.17249
    A9        2.21223   -.00544   -.00004   -.02297   -.02303   2.18919
    D1         .00000    .00000    .00000    .00000    .00000    .00000
    D2         .00000    .00000    .00000    .00000    .00000    .00000
    D3        3.14159    .00000    .00000    .00000    .00000   3.14159
    D4         .00000    .00000    .00000    .00000    .00000    .00000
    D5         .00000    .00000    .00000    .00000    .00000    .00000
    D6        3.14159    .00000    .00000    .00000    .00000   3.14159
    D7        3.14159    .00000    .00000    .00000    .00000   3.14159
    D8         .00000    .00000    .00000    .00000    .00000    .00000
    D9         .00000    .00000    .00000    .00000    .00000    .00000
   D10        3.14159    .00000    .00000    .00000    .00000   3.14159
         Item               Value     Threshold  Converged?
 Maximum Force             .011051      .000450     NO 
 RMS     Force             .004944      .000300     NO 
 Maximum Displacement      .056715      .001800     NO 
 RMS     Displacement      .016349      .001200     NO 
 Predicted change in Energy=-1.138849D-03
 GradGradGradGradGradGradGradGradGradGradGradGradGradGradGradGradGradGrad

                          Input orientation:                          
 ---------------------------------------------------------------------
 Center     Atomic     Atomic              Coordinates (Angstroms)
 Number     Number      Type              X           Y           Z
 ---------------------------------------------------------------------
    1          7             0       -1.152284    -.260479     .000000
    2          7             0        -.701147     .949674     .000000
    3          7             0         .673347     .825648     .000000
    4          1             0        1.251459    1.634583     .000000
    5          7             0        -.111972   -1.205640     .000000
    6          6             0         .979500    -.492124     .000000
    7          1             0        1.965190    -.878314     .000000
 ---------------------------------------------------------------------
                    Distance matrix (angstroms):
                    1          2          3          4          5
     1  N     .000000
     2  N    1.291508    .000000
     3  N    2.124288   1.380078    .000000
     4  H    3.060921   2.069245    .994278    .000000
     5  N    1.405553   2.234391   2.177810   3.150526    .000000
     6  C    2.144333   2.214352   1.352869   2.144025   1.304000
     7  H    3.178107   3.232784   2.138305   2.612290   2.102795
                    6          7
     6  C     .000000
     7  H    1.058644    .000000
 Stoichiometry    CH2N4
 Framework group  CS[SG(CH2N4)]
 Deg. of freedom   11
 Full point group                 CS      NOp   2
 Largest Abelian subgroup         CS      NOp   2
 Largest concise Abelian subgroup C1      NOp   1
                         Standard orientation:                         
 ---------------------------------------------------------------------
 Center     Atomic     Atomic              Coordinates (Angstroms)
 Number     Number      Type              X           Y           Z
 ---------------------------------------------------------------------
    1          7             0        -.731390    -.929176     .000000
    2          7             0       -1.144740     .294398     .000000
    3          7             0         .000000    1.065233     .000000
    4          1             0        -.061727    2.057593     .000000
    5          7             0         .672046   -1.006291     .000000
    6          6             0        1.068839     .235873     .000000
    7          1             0        2.077278     .558021     .000000
 ---------------------------------------------------------------------
 Rotational constants (GHZ):     10.4678498     10.0243407      5.1206479
 Isotopes: N-14,N-14,N-14,H-1,N-14,C-12,H-1
 Standard basis: 3-21G* (6D, 7F)
 There are    39 symmetry adapted basis functions of A'  symmetry.
 There are    10 symmetry adapted basis functions of A"  symmetry.
 Crude estimate of integral set expansion from redundant integrals=1.000.
 Integral buffers will be    262144 words long.
 Raffenetti 1 integral format.
 Two-electron integral symmetry is turned on.
    49 basis functions       81 primitive gaussians
    18 alpha electrons       18 beta electrons
       nuclear repulsion energy       165.2947869839 Hartrees.
 One-electron integrals computed using PRISM.
 NBasis=    49 RedAO= T  NBF=    39    10
 NBsUse=    49 1.00D-04 NBFU=    39    10
 Initial guess read from the read-write file:
 Initial guess orbital symmetries:
       Occupied  (A') (A') (A') (A') (A') (A') (A') (A') (A') (A')
                 (A') (A") (A') (A') (A') (A') (A") (A")
       Virtual   (A") (A") (A') (A') (A') (A') (A') (A') (A') (A")
                 (A') (A') (A') (A') (A") (A') (A') (A") (A') (A")
                 (A') (A") (A') (A') (A') (A') (A') (A') (A') (A')
                 (A')
 Requested convergence on RMS density matrix=1.00D-08 within  64 cycles.
 Requested convergence on MAX density matrix=1.00D-06.
 Keep R1 integrals in memory in canonical form, NReq=     1163494.
 SCF Done:  E(RHF) =  -255.268059650     A.U. after   13 cycles
             Convg  =     .4163D-08             -V/T =  2.0027
             S**2   =    .0000
 ***** Axes restored to original set *****
 -------------------------------------------------------------------
 Center     Atomic                   Forces (Hartrees/Bohr)
 Number     Number              X              Y              Z
 -------------------------------------------------------------------
    1          7           -.014352664     .008429518     .000000000
    2          7            .000026031    -.020019040     .000000000
    3          7            .006471235    -.005342936     .000000000
    4          1            .000928219    -.000511078     .000000000
    5          7            .006033086     .013870830     .000000000
    6          6           -.001213389     .003508078     .000000000
    7          1            .002107483     .000064628     .000000000
 -------------------------------------------------------------------
 Cartesian Forces:  Max      .020019040 RMS      .006888180

 GradGradGradGradGradGradGradGradGradGradGradGradGradGradGradGradGradGrad
 Berny optimization.
 Internal  Forces:  Max      .014928198 RMS      .005662662
 Search for a local minimum.
 Step number   3 out of a maximum of  36
 All quantities printed in internal units (Hartrees-Bohrs-Radians)
 Update second derivatives using information from points  1  2  3
 Trust test= 1.88D-01 RLast= 9.41D-02 DXMaxT set to 2.12D-01
     Eigenvalues ---     .02506    .02636    .02676    .02831    .16003
     Eigenvalues ---     .16020    .20517    .32080    .37730    .48286
     Eigenvalues ---     .48930    .53383    .61475    .74881    .92496
     Eigenvalues --- 1000.000001000.000001000.000001000.000001000.00000
     Eigenvalues --- 1000.000001000.000001000.000001000.000001000.00000
     Eigenvalues --- 1000.00000
 RFO step:  Lambda=-3.47154141D-04.
 Quartic linear search produced a step of  -.45045.
 Iteration  1 RMS(Cart)=   .00826912 RMS(Int)=   .00006685
 Iteration  2 RMS(Cart)=   .00004976 RMS(Int)=   .00003059
 Iteration  3 RMS(Cart)=   .00000000 RMS(Int)=   .00003059
 Variable       Old X    -DE/DX   Delta X   Delta X   Delta X     New X
                                 (Linear)    (Quad)   (Total)
    R1        2.44060   -.01132   -.00698   -.00116   -.00809   2.43250
    R2        2.65611    .00223   -.01590    .01986    .00397   2.66008
    R3        2.60797    .00543   -.00952    .01427    .00477   2.61274
    R4        1.87891    .00012   -.00056    .00095    .00040   1.87931
    R5        2.55655   -.01158   -.00387   -.00735   -.01125   2.54530
    R6        2.46420   -.00243    .00269   -.00721   -.00456   2.45965
    R7        2.00055    .00194    .00040    .00323    .00362   2.00417
    A1        1.95147   -.01493   -.01803   -.00801   -.02598   1.92549
    A2        1.83764    .01099    .01395    .00566    .01969   1.85733
    A3        2.10130    .00240    .00345    .00215    .00560   2.10691
    A4        1.88906   -.00282    .00017   -.00714   -.00698   1.88208
    A5        2.29282    .00042   -.00362    .00499    .00138   2.29420
    A6        1.82510    .01157    .02045   -.00178    .01861   1.84371
    A7        1.92150   -.00480   -.01654    .01127   -.00533   1.91617
    A8        2.17249    .00157    .00616   -.00588    .00031   2.17280
    A9        2.18919    .00323    .01037   -.00539    .00502   2.19421
    D1         .00000    .00000    .00000    .00000    .00000    .00000
    D2         .00000    .00000    .00000    .00000    .00000    .00000
    D3        3.14159    .00000    .00000    .00000    .00000   3.14159
    D4         .00000    .00000    .00000    .00000    .00000    .00000
    D5         .00000    .00000    .00000    .00000    .00000    .00000
    D6        3.14159    .00000    .00000    .00000    .00000   3.14159
    D7        3.14159    .00000    .00000    .00000    .00000   3.14159
    D8         .00000    .00000    .00000    .00000    .00000    .00000
    D9         .00000    .00000    .00000    .00000    .00000    .00000
   D10        3.14159    .00000    .00000    .00000    .00000   3.14159
         Item               Value     Threshold  Converged?
 Maximum Force             .014928      .000450     NO 
 RMS     Force             .005663      .000300     NO 
 Maximum Displacement      .025869      .001800     NO 
 RMS     Displacement      .008266      .001200     NO 
 Predicted change in Energy=-5.903454D-04
 GradGradGradGradGradGradGradGradGradGradGradGradGradGradGradGradGradGrad

                          Input orientation:                          
 ---------------------------------------------------------------------
 Center     Atomic     Atomic              Coordinates (Angstroms)
 Number     Number      Type              X           Y           Z
 ---------------------------------------------------------------------
    1          7             0       -1.167341    -.260418     .000000
    2          7             0        -.701685     .939629     .000000
    3          7             0         .676088     .824161     .000000
    4          1             0        1.253697    1.633714     .000000
    5          7             0        -.113564   -1.193712     .000000
    6          6             0         .980101    -.487998     .000000
    7          1             0        1.967221    -.875794     .000000
 ---------------------------------------------------------------------
                    Distance matrix (angstroms):
                    1          2          3          4          5
     1  N     .000000
     2  N    1.287225    .000000
     3  N    2.138818   1.382603    .000000
     4  H    3.073949   2.074916    .994489    .000000
     5  N    1.407653   2.212924   2.166878   3.140660    .000000
     6  C    2.159468   2.206020   1.346917   2.139280   1.301589
     7  H    3.194396   3.227819   2.134683   2.608974   2.104931
                    6          7
     6  C     .000000
     7  H    1.060562    .000000
 Stoichiometry    CH2N4
 Framework group  CS[SG(CH2N4)]
 Deg. of freedom   11
 Full point group                 CS      NOp   2
 Largest Abelian subgroup         CS      NOp   2
 Largest concise Abelian subgroup C1      NOp   1
                         Standard orientation:                         
 ---------------------------------------------------------------------
 Center     Atomic     Atomic              Coordinates (Angstroms)
 Number     Number      Type              X           Y           Z
 ---------------------------------------------------------------------
    1          7             0        -.735656    -.941502     .000000
    2          7             0       -1.137783     .281299     .000000
    3          7             0         .000000    1.066819     .000000
    4          1             0        -.067711    2.059000     .000000
    5          7             0         .671034    -.993539     .000000
    6          6             0        1.067955     .246053     .000000
    7          1             0        2.076815     .573150     .000000
 ---------------------------------------------------------------------
 Rotational constants (GHZ):     10.4174290     10.1090843      5.1304704
 Isotopes: N-14,N-14,N-14,H-1,N-14,C-12,H-1
 Standard basis: 3-21G* (6D, 7F)
 There are    39 symmetry adapted basis functions of A'  symmetry.
 There are    10 symmetry adapted basis functions of A"  symmetry.
 Crude estimate of integral set expansion from redundant integrals=1.000.
 Integral buffers will be    262144 words long.
 Raffenetti 1 integral format.
 Two-electron integral symmetry is turned on.
    49 basis functions       81 primitive gaussians
    18 alpha electrons       18 beta electrons
       nuclear repulsion energy       165.4469000684 Hartrees.
 One-electron integrals computed using PRISM.
 NBasis=    49 RedAO= T  NBF=    39    10
 NBsUse=    49 1.00D-04 NBFU=    39    10
 Initial guess read from the read-write file:
 Initial guess orbital symmetries:
       Occupied  (A') (A') (A') (A') (A') (A') (A') (A') (A') (A')
                 (A') (A") (A') (A') (A') (A') (A") (A")
       Virtual   (A") (A") (A') (A') (A') (A') (A') (A') (A') (A")
                 (A') (A') (A') (A') (A") (A') (A') (A") (A') (A")
                 (A') (A") (A') (A') (A') (A') (A') (A') (A') (A')
                 (A')
 Requested convergence on RMS density matrix=1.00D-08 within  64 cycles.
 Requested convergence on MAX density matrix=1.00D-06.
 Keep R1 integrals in memory in canonical form, NReq=     1163494.
 SCF Done:  E(RHF) =  -255.268666985     A.U. after   12 cycles
             Convg  =     .5261D-08             -V/T =  2.0026
             S**2   =    .0000
 ***** Axes restored to original set *****
 -------------------------------------------------------------------
 Center     Atomic                   Forces (Hartrees/Bohr)
 Number     Number              X              Y              Z
 -------------------------------------------------------------------
    1          7            .002184028     .007966288     .000000000
    2          7           -.003425465    -.005316307     .000000000
    3          7           -.000149019    -.002640898     .000000000
    4          1           -.000354106    -.000093320     .000000000
    5          7            .003551483     .000304837     .000000000
    6          6           -.001989110    -.000023281     .000000000
    7          1            .000182190    -.000197320     .000000000
 -------------------------------------------------------------------
 Cartesian Forces:  Max      .007966288 RMS      .002508030

 GradGradGradGradGradGradGradGradGradGradGradGradGradGradGradGradGradGrad
 Berny optimization.
 Internal  Forces:  Max      .006996653 RMS      .001646114
 Search for a local minimum.
 Step number   4 out of a maximum of  36
 All quantities printed in internal units (Hartrees-Bohrs-Radians)
 Update second derivatives using information from points  1  2  3  4
 Trust test= 1.03D+00 RLast= 4.25D-02 DXMaxT set to 2.12D-01
     Eigenvalues ---     .02505    .02634    .02679    .02832    .15970
     Eigenvalues ---     .16012    .22836    .29626    .37761    .48667
     Eigenvalues ---     .49081    .53556    .62864    .74540    .86773
     Eigenvalues --- 1000.000001000.000001000.000001000.000001000.00000
     Eigenvalues --- 1000.000001000.000001000.000001000.000001000.00000
     Eigenvalues --- 1000.00000
 RFO step:  Lambda=-1.09202242D-04.
 Quartic linear search produced a step of   .03825.
 Iteration  1 RMS(Cart)=   .00279022 RMS(Int)=   .00000210
 Iteration  2 RMS(Cart)=   .00000174 RMS(Int)=   .00000117
 Iteration  3 RMS(Cart)=   .00000000 RMS(Int)=   .00000117
 Variable       Old X    -DE/DX   Delta X   Delta X   Delta X     New X
                                 (Linear)    (Quad)   (Total)
    R1        2.43250   -.00700   -.00031   -.00858   -.00889   2.42361
    R2        2.66008    .00194    .00015    .00698    .00714   2.66721
    R3        2.61274    .00025    .00018    .00314    .00332   2.61606
    R4        1.87931   -.00028    .00002   -.00052   -.00051   1.87880
    R5        2.54530   -.00161   -.00043   -.00304   -.00347   2.54183
    R6        2.45965   -.00319   -.00017   -.00482   -.00500   2.45465
    R7        2.00417    .00024    .00014    .00081    .00095   2.00512
    A1        1.92549    .00114   -.00099    .00166    .00067   1.92616
    A2        1.85733   -.00073    .00075   -.00340   -.00264   1.85469
    A3        2.10691   -.00069    .00021   -.00351   -.00330   2.10361
    A4        1.88208    .00095   -.00027    .00409    .00382   1.88590
    A5        2.29420   -.00025    .00005   -.00057   -.00052   2.29368
    A6        1.84371   -.00041    .00071   -.00012    .00059   1.84430
    A7        1.91617   -.00094   -.00020   -.00223   -.00244   1.91373
    A8        2.17280    .00059    .00001    .00185    .00186   2.17466
    A9        2.19421    .00035    .00019    .00038    .00058   2.19479
    D1         .00000    .00000    .00000    .00000    .00000    .00000
    D2         .00000    .00000    .00000    .00000    .00000    .00000
    D3        3.14159    .00000    .00000    .00000    .00000   3.14159
    D4         .00000    .00000    .00000    .00000    .00000    .00000
    D5         .00000    .00000    .00000    .00000    .00000    .00000
    D6        3.14159    .00000    .00000    .00000    .00000   3.14159
    D7        3.14159    .00000    .00000    .00000    .00000   3.14159
    D8         .00000    .00000    .00000    .00000    .00000    .00000
    D9         .00000    .00000    .00000    .00000    .00000    .00000
   D10        3.14159    .00000    .00000    .00000    .00000   3.14159
         Item               Value     Threshold  Converged?
 Maximum Force             .006997      .000450     NO 
 RMS     Force             .001646      .000300     NO 
 Maximum Displacement      .008025      .001800     NO 
 RMS     Displacement      .002790      .001200     NO 
 Predicted change in Energy=-5.541188D-05
 GradGradGradGradGradGradGradGradGradGradGradGradGradGradGradGradGradGrad

                          Input orientation:                          
 ---------------------------------------------------------------------
 Center     Atomic     Atomic              Coordinates (Angstroms)
 Number     Number      Type              X           Y           Z
 ---------------------------------------------------------------------
    1          7             0       -1.166078    -.256103     .000000
    2          7             0        -.702880     .939850     .000000
    3          7             0         .676407     .821462     .000000
    4          1             0        1.252818    1.631539     .000000
    5          7             0        -.109512   -1.191945     .000000
    6          6             0         .982375    -.488356     .000000
    7          1             0        1.969941    -.876389     .000000
 ---------------------------------------------------------------------
                    Distance matrix (angstroms):
                    1          2          3          4          5
     1  N     .000000
     2  N    1.282519    .000000
     3  N    2.134455   1.384359    .000000
     4  H    3.068265   2.074413    .994220    .000000
     5  N    1.411429   2.212834   2.161361   3.134965    .000000
     6  C    2.160970   2.209040   1.345080   2.137076   1.298944
     7  H    3.196774   3.231516   2.134462   2.608441   2.103259
                    6          7
     6  C     .000000
     7  H    1.061063    .000000
 Stoichiometry    CH2N4
 Framework group  CS[SG(CH2N4)]
 Deg. of freedom   11
 Full point group                 CS      NOp   2
 Largest Abelian subgroup         CS      NOp   2
 Largest concise Abelian subgroup C1      NOp   1
                         Standard orientation:                         
 ---------------------------------------------------------------------
 Center     Atomic     Atomic              Coordinates (Angstroms)
 Number     Number      Type              X           Y           Z
 ---------------------------------------------------------------------
    1          7             0        -.736896    -.939538     .000000
    2          7             0       -1.139833     .278040     .000000
    3          7             0         .000000    1.063680     .000000
    4          1             0        -.070200    2.055419     .000000
    5          7             0         .673629    -.990024     .000000
    6          6             0        1.068993     .247289     .000000
    7          1             0        2.077941     .575737     .000000
 ---------------------------------------------------------------------
 Rotational constants (GHZ):     10.4769804     10.0739544      5.1357578
 Isotopes: N-14,N-14,N-14,H-1,N-14,C-12,H-1
 Standard basis: 3-21G* (6D, 7F)
 There are    39 symmetry adapted basis functions of A'  symmetry.
 There are    10 symmetry adapted basis functions of A"  symmetry.
 Crude estimate of integral set expansion from redundant integrals=1.000.
 Integral buffers will be    262144 words long.
 Raffenetti 1 integral format.
 Two-electron integral symmetry is turned on.
    49 basis functions       81 primitive gaussians
    18 alpha electrons       18 beta electrons
       nuclear repulsion energy       165.5452931112 Hartrees.
 One-electron integrals computed using PRISM.
 NBasis=    49 RedAO= T  NBF=    39    10
 NBsUse=    49 1.00D-04 NBFU=    39    10
 Initial guess read from the read-write file:
 Initial guess orbital symmetries:
       Occupied  (A') (A') (A') (A') (A') (A') (A') (A') (A') (A')
                 (A') (A") (A') (A') (A') (A') (A") (A")
       Virtual   (A") (A") (A') (A') (A') (A') (A') (A') (A') (A")
                 (A') (A') (A') (A') (A") (A') (A') (A") (A') (A")
                 (A') (A") (A') (A') (A') (A') (A') (A') (A') (A')
                 (A')
 Requested convergence on RMS density matrix=1.00D-08 within  64 cycles.
 Requested convergence on MAX density matrix=1.00D-06.
 Keep R1 integrals in memory in canonical form, NReq=     1163494.
 SCF Done:  E(RHF) =  -255.268725487     A.U. after   12 cycles
             Convg  =     .3220D-08             -V/T =  2.0026
             S**2   =    .0000
 ***** Axes restored to original set *****
 -------------------------------------------------------------------
 Center     Atomic                   Forces (Hartrees/Bohr)
 Number     Number              X              Y              Z
 -------------------------------------------------------------------
    1          7            .001194333     .003543496     .000000000
    2          7           -.000545886    -.004096725     .000000000
    3          7            .001204197     .002223206     .000000000
    4          1           -.000063172     .000033234     .000000000
    5          7            .000086339    -.002073484     .000000000
    6          6           -.001708851     .000308114     .000000000
    7          1           -.000166959     .000062159     .000000000
 -------------------------------------------------------------------
 Cartesian Forces:  Max      .004096725 RMS      .001460845

 GradGradGradGradGradGradGradGradGradGradGradGradGradGradGradGradGradGrad
 Berny optimization.
 Internal  Forces:  Max      .002828689 RMS      .000846210
 Search for a local minimum.
 Step number   5 out of a maximum of  36
 All quantities printed in internal units (Hartrees-Bohrs-Radians)
 Update second derivatives using information from points  1  2  3  4  5

 Trust test= 1.06D+00 RLast= 1.49D-02 DXMaxT set to 2.12D-01
     Eigenvalues ---     .02505    .02633    .02678    .02832    .15199
     Eigenvalues ---     .16008    .17943    .37774    .42871    .47962
     Eigenvalues ---     .48948    .53842    .59122    .75011    .80141
     Eigenvalues --- 1000.000001000.000001000.000001000.000001000.00000
     Eigenvalues --- 1000.000001000.000001000.000001000.000001000.00000
     Eigenvalues --- 1000.00000
 RFO step:  Lambda=-5.67397552D-05.
 Quartic linear search produced a step of   .05564.
 Iteration  1 RMS(Cart)=   .00204546 RMS(Int)=   .00000393
 Iteration  2 RMS(Cart)=   .00000358 RMS(Int)=   .00000204
 Iteration  3 RMS(Cart)=   .00000000 RMS(Int)=   .00000204
 Variable       Old X    -DE/DX   Delta X   Delta X   Delta X     New X
                                 (Linear)    (Quad)   (Total)
    R1        2.42361   -.00283   -.00049   -.00787   -.00837   2.41524
    R2        2.66721    .00029    .00040    .00588    .00627   2.67349
    R3        2.61606   -.00041    .00018    .00267    .00286   2.61892
    R4        1.87880   -.00001   -.00003   -.00023   -.00026   1.87854
    R5        2.54183    .00052   -.00019   -.00071   -.00090   2.54093
    R6        2.45465    .00030   -.00028   -.00165   -.00193   2.45272
    R7        2.00512   -.00018    .00005   -.00003    .00002   2.00514
    A1        1.92616    .00078    .00004    .00007    .00010   1.92626
    A2        1.85469    .00124   -.00015    .00438    .00424   1.85892
    A3        2.10361    .00073   -.00018    .00190    .00172   2.10533
    A4        1.88590   -.00159    .00021   -.00573   -.00552   1.88038
    A5        2.29368    .00086   -.00003    .00383    .00380   2.29748
    A6        1.84430   -.00151    .00003   -.00428   -.00424   1.84005
    A7        1.91373    .00108   -.00014    .00556    .00543   1.91916
    A8        2.17466   -.00054    .00010   -.00256   -.00246   2.17221
    A9        2.19479   -.00054    .00003   -.00300   -.00297   2.19182
    D1         .00000    .00000    .00000    .00000    .00000    .00000
    D2         .00000    .00000    .00000    .00000    .00000    .00000
    D3        3.14159    .00000    .00000    .00000    .00000   3.14159
    D4         .00000    .00000    .00000    .00000    .00000    .00000
    D5         .00000    .00000    .00000    .00000    .00000    .00000
    D6        3.14159    .00000    .00000    .00000    .00000   3.14159
    D7        3.14159    .00000    .00000    .00000    .00000   3.14159
    D8         .00000    .00000    .00000    .00000    .00000    .00000
    D9         .00000    .00000    .00000    .00000    .00000    .00000
   D10        3.14159    .00000    .00000    .00000    .00000   3.14159
         Item               Value     Threshold  Converged?
 Maximum Force             .002829      .000450     NO 
 RMS     Force             .000846      .000300     NO 
 Maximum Displacement      .005647      .001800     NO 
 RMS     Displacement      .002045      .001200     NO 
 Predicted change in Energy=-2.853275D-05
 GradGradGradGradGradGradGradGradGradGradGradGradGradGradGradGradGradGrad

                          Input orientation:                          
 ---------------------------------------------------------------------
 Center     Atomic     Atomic              Coordinates (Angstroms)
 Number     Number      Type              X           Y           Z
 ---------------------------------------------------------------------
    1          7             0       -1.166199    -.254835     .000000
    2          7             0        -.702994     .936365     .000000
    3          7             0         .678137     .821836     .000000
    4          1             0        1.253518    1.632473     .000000
    5          7             0        -.108505   -1.194407     .000000
    6          6             0         .980553    -.488319     .000000
    7          1             0        1.968062    -.876528     .000000
 ---------------------------------------------------------------------
                    Distance matrix (angstroms):
                    1          2          3          4          5
     1  N     .000000
     2  N    1.278091    .000000
     3  N    2.135601   1.385872    .000000
     4  H    3.068707   2.076658    .994081    .000000
     5  N    1.414749   2.212150   2.164264   3.137891    .000000
     6  C    2.159411   2.205460   1.344604   2.138286   1.297924
     7  H    3.195324   3.228176   2.132685   2.608765   2.100756
                    6          7
     6  C     .000000
     7  H    1.061075    .000000
 Stoichiometry    CH2N4
 Framework group  CS[SG(CH2N4)]
 Deg. of freedom   11
 Full point group                 CS      NOp   2
 Largest Abelian subgroup         CS      NOp   2
 Largest concise Abelian subgroup C1      NOp   1
                         Standard orientation:                         
 ---------------------------------------------------------------------
 Center     Atomic     Atomic              Coordinates (Angstroms)
 Number     Number      Type              X           Y           Z
 ---------------------------------------------------------------------
    1          7             0        -.738014    -.938431     .000000
    2          7             0       -1.138456     .275308     .000000
    3          7             0         .000000    1.065597     .000000
    4          1             0        -.071786    2.057082     .000000
    5          7             0         .675777    -.990459     .000000
    6          6             0        1.066824     .247156     .000000
    7          1             0        2.075697     .575875     .000000
 ---------------------------------------------------------------------
 Rotational constants (GHZ):     10.4716781     10.0828283      5.1367875
 Isotopes: N-14,N-14,N-14,H-1,N-14,C-12,H-1
 Standard basis: 3-21G* (6D, 7F)
 There are    39 symmetry adapted basis functions of A'  symmetry.
 There are    10 symmetry adapted basis functions of A"  symmetry.
 Crude estimate of integral set expansion from redundant integrals=1.000.
 Integral buffers will be    262144 words long.
 Raffenetti 1 integral format.
 Two-electron integral symmetry is turned on.
    49 basis functions       81 primitive gaussians
    18 alpha electrons       18 beta electrons
       nuclear repulsion energy       165.5775238502 Hartrees.
 One-electron integrals computed using PRISM.
 NBasis=    49 RedAO= T  NBF=    39    10
 NBsUse=    49 1.00D-04 NBFU=    39    10
 Initial guess read from the read-write file:
 Initial guess orbital symmetries:
       Occupied  (A') (A') (A') (A') (A') (A') (A') (A') (A') (A')
                 (A') (A") (A') (A') (A') (A') (A") (A")
       Virtual   (A") (A") (A') (A') (A') (A') (A') (A') (A') (A")
                 (A') (A') (A') (A') (A") (A') (A') (A") (A') (A")
                 (A') (A") (A') (A') (A') (A') (A') (A') (A') (A')
                 (A')
 Requested convergence on RMS density matrix=1.00D-08 within  64 cycles.
 Requested convergence on MAX density matrix=1.00D-06.
 Keep R1 integrals in memory in canonical form, NReq=     1163494.
 SCF Done:  E(RHF) =  -255.268751738     A.U. after   11 cycles
             Convg  =     .8775D-08             -V/T =  2.0025
             S**2   =    .0000
 ***** Axes restored to original set *****
 -------------------------------------------------------------------
 Center     Atomic                   Forces (Hartrees/Bohr)
 Number     Number              X              Y              Z
 -------------------------------------------------------------------
    1          7            .000775910     .000495457     .000000000
    2          7           -.000366129     .000319772     .000000000
    3          7           -.000867014     .000922222     .000000000
    4          1           -.000008557     .000010181     .000000000
    5          7           -.000701100    -.000830246     .000000000
    6          6            .001251056    -.000924567     .000000000
    7          1           -.000084165     .000007182     .000000000
 -------------------------------------------------------------------
 Cartesian Forces:  Max      .001251056 RMS      .000547468

 GradGradGradGradGradGradGradGradGradGradGradGradGradGradGradGradGradGrad
 Berny optimization.
 Internal  Forces:  Max      .001349273 RMS      .000382242
 Search for a local minimum.
 Step number   6 out of a maximum of  36
 All quantities printed in internal units (Hartrees-Bohrs-Radians)
 Update second derivatives using information from points  1  2  3  4  5
                                                        6
 Trust test= 9.20D-01 RLast= 1.58D-02 DXMaxT set to 2.12D-01
     Eigenvalues ---     .02505    .02633    .02678    .02832    .15637
     Eigenvalues ---     .16010    .18809    .37809    .46622    .46995
     Eigenvalues ---     .49159    .53946    .56216    .76412    .81219
     Eigenvalues --- 1000.000001000.000001000.000001000.000001000.00000
     Eigenvalues --- 1000.000001000.000001000.000001000.000001000.00000
     Eigenvalues --- 1000.00000
 RFO step:  Lambda=-5.16959858D-06.
 Quartic linear search produced a step of  -.07621.
 Iteration  1 RMS(Cart)=   .00055957 RMS(Int)=   .00000030
 Iteration  2 RMS(Cart)=   .00000019 RMS(Int)=   .00000020
 Variable       Old X    -DE/DX   Delta X   Delta X   Delta X     New X
                                 (Linear)    (Quad)   (Total)
    R1        2.41524   -.00019    .00064   -.00111   -.00047   2.41477
    R2        2.67349    .00020   -.00048    .00062    .00015   2.67363
    R3        2.61892   -.00019   -.00022   -.00002   -.00024   2.61868
    R4        1.87854    .00000    .00002    .00002    .00004   1.87858
    R5        2.54093    .00135    .00007    .00171    .00178   2.54271
    R6        2.45272    .00060    .00015    .00077    .00091   2.45363
    R7        2.00514   -.00008    .00000   -.00009   -.00009   2.00505
    A1        1.92626    .00092   -.00001    .00136    .00135   1.92761
    A2        1.85892   -.00040   -.00032   -.00040   -.00072   1.85820
    A3        2.10533   -.00015   -.00013   -.00009   -.00022   2.10510
    A4        1.88038    .00027    .00042    .00021    .00063   1.88102
    A5        2.29748   -.00013   -.00029   -.00012   -.00041   2.29707
    A6        1.84005   -.00045    .00032   -.00081   -.00049   1.83956
    A7        1.91916   -.00034   -.00041   -.00036   -.00078   1.91838
    A8        2.17221    .00019    .00019    .00019    .00038   2.17259
    A9        2.19182    .00014    .00023    .00017    .00040   2.19222
    D1         .00000    .00000    .00000    .00000    .00000    .00000
    D2         .00000    .00000    .00000    .00000    .00000    .00000
    D3        3.14159    .00000    .00000    .00000    .00000   3.14159
    D4         .00000    .00000    .00000    .00000    .00000    .00000
    D5         .00000    .00000    .00000    .00000    .00000    .00000
    D6        3.14159    .00000    .00000    .00000    .00000   3.14159
    D7        3.14159    .00000    .00000    .00000    .00000   3.14159
    D8         .00000    .00000    .00000    .00000    .00000    .00000
    D9         .00000    .00000    .00000    .00000    .00000    .00000
   D10        3.14159    .00000    .00000    .00000    .00000   3.14159
         Item               Value     Threshold  Converged?
 Maximum Force             .001349      .000450     NO 
 RMS     Force             .000382      .000300     NO 
 Maximum Displacement      .001020      .001800     YES
 RMS     Displacement      .000560      .001200     YES
 Predicted change in Energy=-2.764363D-06
 GradGradGradGradGradGradGradGradGradGradGradGradGradGradGradGradGradGrad

                          Input orientation:                          
 ---------------------------------------------------------------------
 Center     Atomic     Atomic              Coordinates (Angstroms)
 Number     Number      Type              X           Y           Z
 ---------------------------------------------------------------------
    1          7             0       -1.165934    -.254074     .000000
    2          7             0        -.703472     .937146     .000000
    3          7             0         .677516     .822387     .000000
    4          1             0        1.252868    1.633070     .000000
    5          7             0        -.108942   -1.194551     .000000
    6          6             0         .980745    -.488546     .000000
    7          1             0        1.968241    -.876659     .000000
 ---------------------------------------------------------------------
                    Distance matrix (angstroms):
                    1          2          3          4          5
     1  N     .000000
     2  N    1.277841    .000000
     3  N    2.134731   1.385747    .000000
     4  H    3.067885   2.076433    .994101    .000000
     5  N    1.414825   2.213053   2.164846   3.138467    .000000
     6  C    2.159446   2.206623   1.345546   2.138997   1.298407
     7  H    3.195413   3.229232   2.133713   2.609693   2.101367
                    6          7
     6  C     .000000
     7  H    1.061028    .000000
 Stoichiometry    CH2N4
 Framework group  CS[SG(CH2N4)]
 Deg. of freedom   11
 Full point group                 CS      NOp   2
 Largest Abelian subgroup         CS      NOp   2
 Largest concise Abelian subgroup C1      NOp   1
                         Standard orientation:                         
 ---------------------------------------------------------------------
 Center     Atomic     Atomic              Coordinates (Angstroms)
 Number     Number      Type              X           Y           Z
 ---------------------------------------------------------------------
    1          7             0        -.738270    -.937506     .000000
    2          7             0       -1.138809     .275937     .000000
    3          7             0         .000000    1.065499     .000000
    4          1             0        -.071438    2.057031     .000000
    5          7             0         .675534    -.991248     .000000
    6          6             0        1.067617     .246545     .000000
    7          1             0        2.076552     .574924     .000000
 ---------------------------------------------------------------------
 Rotational constants (GHZ):     10.4723747     10.0760665      5.1351994
 Isotopes: N-14,N-14,N-14,H-1,N-14,C-12,H-1
 Standard basis: 3-21G* (6D, 7F)
 There are    39 symmetry adapted basis functions of A'  symmetry.
 There are    10 symmetry adapted basis functions of A"  symmetry.
 Crude estimate of integral set expansion from redundant integrals=1.000.
 Integral buffers will be    262144 words long.
 Raffenetti 1 integral format.
 Two-electron integral symmetry is turned on.
    49 basis functions       81 primitive gaussians
    18 alpha electrons       18 beta electrons
       nuclear repulsion energy       165.5537498666 Hartrees.
 One-electron integrals computed using PRISM.
 NBasis=    49 RedAO= T  NBF=    39    10
 NBsUse=    49 1.00D-04 NBFU=    39    10
 Initial guess read from the read-write file:
 Initial guess orbital symmetries:
       Occupied  (A') (A') (A') (A') (A') (A') (A') (A') (A') (A')
                 (A') (A") (A') (A') (A') (A') (A") (A")
       Virtual   (A") (A") (A') (A') (A') (A') (A') (A') (A') (A")
                 (A') (A') (A') (A') (A") (A') (A') (A") (A') (A")
                 (A') (A") (A') (A') (A') (A') (A') (A') (A') (A')
                 (A')
 Requested convergence on RMS density matrix=1.00D-08 within  64 cycles.
 Requested convergence on MAX density matrix=1.00D-06.
 Keep R1 integrals in memory in canonical form, NReq=     1163494.
 SCF Done:  E(RHF) =  -255.268755011     A.U. after   10 cycles
             Convg  =     .7861D-08             -V/T =  2.0025
             S**2   =    .0000
 ***** Axes restored to original set *****
 -------------------------------------------------------------------
 Center     Atomic                   Forces (Hartrees/Bohr)
 Number     Number              X              Y              Z
 -------------------------------------------------------------------
    1          7            .000024525     .000104365     .000000000
    2          7            .000062408    -.000106531     .000000000
    3          7           -.000199598     .000440063     .000000000
    4          1            .000016020    -.000013962     .000000000
    5          7           -.000176192    -.000140511     .000000000
    6          6            .000319734    -.000322297     .000000000
    7          1           -.000046898     .000038874     .000000000
 -------------------------------------------------------------------
 Cartesian Forces:  Max      .000440063 RMS      .000157554

 GradGradGradGradGradGradGradGradGradGradGradGradGradGradGradGradGradGrad
 Berny optimization.
 Internal  Forces:  Max      .000371856 RMS      .000090931
 Search for a local minimum.
 Step number   7 out of a maximum of  36
 All quantities printed in internal units (Hartrees-Bohrs-Radians)
 Update second derivatives using information from points  1  2  3  4  5
                                                        6  7
 Trust test= 1.18D+00 RLast= 2.90D-03 DXMaxT set to 2.12D-01
     Eigenvalues ---     .02505    .02633    .02678    .02832    .15664
     Eigenvalues ---     .16005    .18796    .37816    .42410    .48029
     Eigenvalues ---     .49470    .54428    .57136    .65465    .83359
     Eigenvalues --- 1000.000001000.000001000.000001000.000001000.00000
     Eigenvalues --- 1000.000001000.000001000.000001000.000001000.00000
     Eigenvalues --- 1000.00000
 RFO step:  Lambda=-2.09180015D-07.
 Quartic linear search produced a step of   .22623.
 Iteration  1 RMS(Cart)=   .00014555 RMS(Int)=   .00000003
 Iteration  2 RMS(Cart)=   .00000002 RMS(Int)=   .00000002
 Variable       Old X    -DE/DX   Delta X   Delta X   Delta X     New X
                                 (Linear)    (Quad)   (Total)
    R1        2.41477   -.00004   -.00011   -.00010   -.00021   2.41456
    R2        2.67363    .00004    .00003   -.00001    .00003   2.67366
    R3        2.61868   -.00009   -.00005   -.00018   -.00024   2.61845
    R4        1.87858    .00000    .00001   -.00001    .00000   1.87857
    R5        2.54271    .00037    .00040    .00034    .00074   2.54346
    R6        2.45363    .00019    .00021    .00009    .00030   2.45393
    R7        2.00505   -.00006   -.00002   -.00013   -.00015   2.00490
    A1        1.92761    .00009    .00031   -.00014    .00016   1.92778
    A2        1.85820    .00008   -.00016    .00033    .00016   1.85837
    A3        2.10510    .00004   -.00005    .00023    .00018   2.10529
    A4        1.88102   -.00004    .00014   -.00021   -.00006   1.88095
    A5        2.29707    .00000   -.00009   -.00003   -.00012   2.29695
    A6        1.83956   -.00005   -.00011    .00007   -.00005   1.83952
    A7        1.91838   -.00007   -.00018   -.00004   -.00022   1.91817
    A8        2.17259    .00002    .00009   -.00013   -.00005   2.17254
    A9        2.19222    .00005    .00009    .00017    .00026   2.19248
    D1         .00000    .00000    .00000    .00000    .00000    .00000
    D2         .00000    .00000    .00000    .00000    .00000    .00000
    D3        3.14159    .00000    .00000    .00000    .00000   3.14159
    D4         .00000    .00000    .00000    .00000    .00000    .00000
    D5         .00000    .00000    .00000    .00000    .00000    .00000
    D6        3.14159    .00000    .00000    .00000    .00000   3.14159
    D7        3.14159    .00000    .00000    .00000    .00000   3.14159
    D8         .00000    .00000    .00000    .00000    .00000    .00000
    D9         .00000    .00000    .00000    .00000    .00000    .00000
   D10        3.14159    .00000    .00000    .00000    .00000   3.14159
         Item               Value     Threshold  Converged?
 Maximum Force             .000372      .000450     YES
 RMS     Force             .000091      .000300     YES
 Maximum Displacement      .000366      .001800     YES
 RMS     Displacement      .000146      .001200     YES
 Predicted change in Energy=-2.200458D-07
 Optimization completed.
    -- Stationary point found.
                         ----------------------------
                         !   Optimized Parameters   !
                         ! (Angstroms and Degrees)  !
 ------------------------                            -------------------------
 ! Name  Definition              Value          Derivative Info.             !
 -----------------------------------------------------------------------------
 ! R1    R(1,2)                  1.2778         -DE/DX =    0.               !
 ! R2    R(1,5)                  1.4148         -DE/DX =    0.               !
 ! R3    R(2,3)                  1.3857         -DE/DX =   -0.0001           !
 ! R4    R(3,4)                  0.9941         -DE/DX =    0.               !
 ! R5    R(3,6)                  1.3455         -DE/DX =    0.0004           !
 ! R6    R(5,6)                  1.2984         -DE/DX =    0.0002           !
 ! R7    R(6,7)                  1.061          -DE/DX =   -0.0001           !
 ! A1    A(2,1,5)              110.4442         -DE/DX =    0.0001           !
 ! A2    A(1,2,3)              106.4672         -DE/DX =    0.0001           !
 ! A3    A(2,3,4)              120.6135         -DE/DX =    0.               !
 ! A4    A(2,3,6)              107.7742         -DE/DX =    0.               !
 ! A5    A(4,3,6)              131.6122         -DE/DX =    0.               !
 ! A6    A(1,5,6)              105.3992         -DE/DX =   -0.0001           !
 ! A7    A(3,6,5)              109.9152         -DE/DX =   -0.0001           !
 ! A8    A(3,6,7)              124.4801         -DE/DX =    0.               !
 ! A9    A(5,6,7)              125.6047         -DE/DX =    0.0001           !
 ! D1    D(5,1,2,3)              0.             -DE/DX =    0.               !
 ! D2    D(2,1,5,6)              0.             -DE/DX =    0.               !
 ! D3    D(1,2,3,4)            180.             -DE/DX =    0.               !
 ! D4    D(1,2,3,6)              0.             -DE/DX =    0.               !
 ! D5    D(2,3,6,5)              0.             -DE/DX =    0.               !
 ! D6    D(2,3,6,7)            180.             -DE/DX =    0.               !
 ! D7    D(4,3,6,5)            180.             -DE/DX =    0.               !
 ! D8    D(4,3,6,7)              0.             -DE/DX =    0.               !
 ! D9    D(1,5,6,3)              0.             -DE/DX =    0.               !
 ! D10   D(1,5,6,7)            180.             -DE/DX =    0.               !
 -----------------------------------------------------------------------------
 GradGradGradGradGradGradGradGradGradGradGradGradGradGradGradGradGradGrad

                          Input orientation:                          
 ---------------------------------------------------------------------
 Center     Atomic     Atomic              Coordinates (Angstroms)
 Number     Number      Type              X           Y           Z
 ---------------------------------------------------------------------
    1          7             0       -1.165927    -.254115     .000000
    2          7             0        -.703465     .937105     .000000
    3          7             0         .677522     .822346     .000000
    4          1             0        1.252875    1.633029     .000000
    5          7             0        -.108935   -1.194593     .000000
    6          6             0         .980752    -.488587     .000000
    7          1             0        1.968248    -.876701     .000000
 ---------------------------------------------------------------------
                    Distance matrix (angstroms):
                    1          2          3          4          5
     1  N     .000000
     2  N    1.277841    .000000
     3  N    2.134731   1.385747    .000000
     4  H    3.067885   2.076433    .994101    .000000
     5  N    1.414825   2.213053   2.164846   3.138467    .000000
     6  C    2.159446   2.206623   1.345546   2.138997   1.298407
     7  H    3.195413   3.229232   2.133713   2.609693   2.101367
                    6          7
     6  C     .000000
     7  H    1.061028    .000000
 Stoichiometry    CH2N4
 Framework group  CS[SG(CH2N4)]
 Deg. of freedom   11
 Full point group                 CS      NOp   2
 Largest Abelian subgroup         CS      NOp   2
 Largest concise Abelian subgroup C1      NOp   1
                         Standard orientation:                         
 ---------------------------------------------------------------------
 Center     Atomic     Atomic              Coordinates (Angstroms)
 Number     Number      Type              X           Y           Z
 ---------------------------------------------------------------------
    1          7             0        -.738270    -.937506     .000000
    2          7             0       -1.138809     .275937     .000000
    3          7             0         .000000    1.065499     .000000
    4          1             0        -.071438    2.057031     .000000
    5          7             0         .675534    -.991248     .000000
    6          6             0        1.067617     .246545     .000000
    7          1             0        2.076552     .574924     .000000
 ---------------------------------------------------------------------
 Rotational constants (GHZ):     10.4723747     10.0760665      5.1351994
 Isotopes: N-14,N-14,N-14,H-1,N-14,C-12,H-1

 **********************************************************************

            Population analysis using the SCF density.

 **********************************************************************

 Orbital Symmetries:
       Occupied  (A') (A') (A') (A') (A') (A') (A') (A') (A') (A')
                 (A') (A") (A') (A') (A') (A') (A") (A")
       Virtual   (A") (A") (A') (A') (A') (A') (A') (A') (A') (A")
                 (A') (A') (A') (A') (A") (A') (A') (A") (A') (A")
                 (A') (A") (A') (A') (A') (A') (A') (A') (A') (A')
                 (A')
  The electronic state is 1-A'.
 Alpha  occ. eigenvalues --  -15.61401 -15.61117 -15.58954 -15.54262 -11.29862
 Alpha  occ. eigenvalues --   -1.51935  -1.25849  -1.23063   -.90575   -.89107
 Alpha  occ. eigenvalues --    -.81340   -.68199   -.67410   -.56650   -.47320
 Alpha  occ. eigenvalues --    -.46303   -.46019   -.43567
 Alpha virt. eigenvalues --     .13527    .18808    .23778    .27108    .36491
 Alpha virt. eigenvalues --     .39662    .51383    .56487    .66045    .93491
 Alpha virt. eigenvalues --     .94209   1.05592   1.09761   1.21977   1.31894
 Alpha virt. eigenvalues --    1.33634   1.37115   1.38346   1.40833   1.45689
 Alpha virt. eigenvalues --    1.47556   1.51081   1.53043   1.66597   1.68315
 Alpha virt. eigenvalues --    1.76212   1.96750   2.39176   2.67806   2.96856
 Alpha virt. eigenvalues --    3.03225
          Condensed to atoms (all electrons):
              1          2          3          4          5          6
  1  N    6.767608    .271476   -.133514    .002577    .277450   -.117376
  2  N     .271476   6.789097    .174817   -.014674   -.115511   -.100793
  3  N    -.133514    .174817   7.266868    .323475   -.086615    .183739
  4  H     .002577   -.014674    .323475    .277274    .002272   -.009969
  5  N     .277450   -.115511   -.086615    .002272   6.959223    .411392
  6  C    -.117376   -.100793    .183739   -.009969    .411392   4.814709
  7  H     .002976    .001123   -.037820    .000814   -.026847    .367196
              7
  1  N     .002976
  2  N     .001123
  3  N    -.037820
  4  H     .000814
  5  N    -.026847
  6  C     .367196
  7  H     .372849
 Total atomic charges:
              1
  1  N    -.071197
  2  N    -.005535
  3  N    -.690950
  4  H     .418231
  5  N    -.421363
  6  C     .451103
  7  H     .319710
 Sum of Mulliken charges=    .00000
 Atomic charges with hydrogens summed into heavy atoms:
              1
  1  N    -.071197
  2  N    -.005535
  3  N    -.272719
  4  H     .000000
  5  N    -.421363
  6  C     .770813
  7  H     .000000
 Sum of Mulliken charges=    .00000
 Electronic spatial extent (au):  <R**2>=   255.3584
 Charge=      .0000 electrons
 Dipole moment (Debye):
    X=     2.7448    Y=     5.1596    Z=      .0000  Tot=     5.8443
 Quadrupole moment (Debye-Ang):
   XX=   -29.2977   YY=   -27.4493   ZZ=   -28.8786
   XY=     2.2611   XZ=      .0000   YZ=      .0000
 Octapole moment (Debye-Ang**2):
  XXX=    13.1245  YYY=    24.1576  ZZZ=      .0000  XYY=     -.7672
  XXY=     5.5855  XXZ=      .0000  XZZ=     -.8176  YZZ=      .3511
  YYZ=      .0000  XYZ=      .0000
 Hexadecapole moment (Debye-Ang**3):
 XXXX=  -142.0433 YYYY=  -116.5884 ZZZZ=   -23.7141 XXXY=     7.3092
 XXXZ=      .0000 YYYX=     -.8926 YYYZ=      .0000 ZZZX=      .0000
 ZZZY=      .0000 XXYY=   -53.5195 XXZZ=   -30.0277 YYZZ=   -28.1416
 XXYZ=      .0000 YYXZ=      .0000 ZZXY=     -.2107
 N-N= 1.655537498666D+02 E-N=-9.282086273081D+02  KE= 2.546222578312D+02
 Symmetry A'   KE= 2.457199931679D+02
 Symmetry A"   KE= 8.902264663310D+00
[...]
 Frc consts  --     1.3031                  .3852                 3.1407
 IR Inten    --    32.1747               172.2971                11.1058
 Raman Activ --      .8928                  .3736                  .3744
 Depolar     --      .7500                  .7500                  .7500
 Atom AN      X      Y      Z        X      Y      Z        X      Y      Z
   1   7      .00    .00   -.05      .00    .00   -.01      .00    .00    .52
   2   7      .00    .00    .26      .00    .00    .02      .00    .00   -.37
   3   7      .00    .00   -.33      .00    .00    .07      .00    .00    .05
   4   1      .00    .00    .01      .00    .00   -.99      .00    .00    .33
   5   7      .00    .00   -.15      .00    .00   -.05      .00    .00   -.43
   6   6      .00    .00    .25      .00    .00    .05      .00    .00    .20
   7   1      .00    .00    .86      .00    .00    .03      .00    .00    .51
                     4                      5                      6
                    A'                     A'                     A"
 Frequencies --   898.5914               981.1591              1076.8442
 Red. masses --    10.9339                 5.5523                 1.4137
 Frc consts  --     5.2018                 3.1492                  .9659
 IR Inten    --    10.0009                23.8887                 5.8578
 Raman Activ --     4.4221                 3.1150                  .7835
 Depolar     --      .2006                  .1563                  .7500
 Atom AN      X      Y      Z        X      Y      Z        X      Y      Z
   1   7      .53   -.15    .00      .00    .00    .00      .00    .00    .01
   2   7      .12   -.04    .00      .38    .26    .00      .00    .00   -.01
   3   7      .08    .02    .00     -.29   -.22    .00      .00    .00    .05
   4   1      .04    .02    .00     -.61   -.26    .00      .00    .00   -.05
   5   7     -.64    .11    .00     -.02   -.02    .00      .00    .00    .03
   6   6     -.12    .10    .00     -.02   -.04    .00      .00    .00   -.18
   7   1      .05   -.48    .00     -.18    .42    .00      .00    .00    .98
                     7                      8                      9
                    A'                     A'                     A'
 Frequencies --  1094.4862              1124.2653              1210.9441
 Red. masses --     5.0402                 5.5086                 2.4119
 Frc consts  --     3.5573                 4.1023                 2.0838
 IR Inten    --     8.6124                10.7484                19.3330
 Raman Activ --     3.2192                 5.2277                 4.1446
 Depolar     --      .7492                  .6776                  .7471
 Atom AN      X      Y      Z        X      Y      Z        X      Y      Z
   1   7      .28    .14    .00     -.09   -.15    .00     -.11   -.16    .00
   2   7     -.12    .15    .00      .27   -.07    .00      .08    .03    .00
   3   7     -.07    .04    .00     -.03    .42    .00      .15   -.05    .00
   4   1      .59    .09    .00     -.44    .43    .00      .60   -.02    .00
   5   7      .13   -.29    .00      .05   -.16    .00     -.01    .02    .00
   6   6     -.28   -.08    .00     -.19   -.05    .00     -.15    .14    .00
   7   1     -.44    .36    .00     -.05   -.52    .00     -.33    .65    .00
                    10                     11                     12
                    A'                     A'                     A'
 Frequencies --  1337.9021              1357.6196              1507.5717
 Red. masses --     4.9234                 2.3339                 2.3724
 Frc consts  --     5.1923                 2.5345                 3.1768
 IR Inten    --    13.1149                 6.2479                 9.2478
 Raman Activ --    10.2693                14.3136                 9.5098
 Depolar     --      .1502                  .1452                  .6882
 Atom AN      X      Y      Z        X      Y      Z        X      Y      Z
   1   7     -.04    .37    .00     -.01    .08    .00      .00    .00    .00
   2   7      .16   -.33    .00      .08   -.05    .00      .05   -.08    .00
   3   7      .10   -.04    .00     -.01   -.10    .00     -.13    .10    .00
   4   1     -.43   -.10    .00      .44   -.08    .00      .73    .18    .00
   5   7     -.09   -.07    .00      .09    .18    .00     -.05    .12    .00
   6   6     -.09    .04    .00     -.21   -.05    .00      .09   -.23    .00
   7   1     -.30    .64    .00      .01   -.83    .00     -.15    .54    .00
                    13                     14                     15
                    A'                     A'                     A'
 Frequencies --  1618.8364              3504.2091              3863.3959
 Red. masses --     2.4991                 1.1034                 1.0853
 Frc consts  --     3.8586                 7.9832                 9.5443
 IR Inten    --    56.3478                 2.7136               176.5354
 Raman Activ --     2.7304                60.2394                62.9359
 Depolar     --      .3694                  .2856                  .3080
 Atom AN      X      Y      Z        X      Y      Z        X      Y      Z
   1   7      .04   -.05    .00      .00    .00    .00      .00    .00    .00
   2   7     -.06    .06    .00      .00    .00    .00      .00    .00    .00
   3   7      .15    .01    .00      .00    .00    .00      .01   -.08    .00
   4   1     -.81   -.06    .00      .01    .02    .00     -.07    .99    .00
   5   7      .04    .15    .00      .00    .00    .00      .00    .00    .00
   6   6     -.11   -.23    .00      .09    .03    .00      .00    .00    .00
   7   1     -.33    .32    .00     -.95   -.31    .00      .02    .00    .00

 -------------------
 - Thermochemistry -
 -------------------
 Temperature   298.150 Kelvin.  Pressure   1.00000 Atm.
 Atom  1 has atomic number  7 and mass  14.00307
 Atom  2 has atomic number  7 and mass  14.00307
 Atom  3 has atomic number  7 and mass  14.00307
 Atom  4 has atomic number  1 and mass   1.00783
 Atom  5 has atomic number  7 and mass  14.00307
 Atom  6 has atomic number  6 and mass  12.00000
 Atom  7 has atomic number  1 and mass   1.00783
 Molecular mass:    70.02795 amu.
 Principal axes and moments of inertia in atomic units:
                           1         2         3
     EIGENVALUES --   172.33352 179.11168 351.44520
           X             .99959   -.02857    .00000
           Y             .02857    .99959    .00000
           Z             .00000    .00000   1.00000
 THIS MOLECULE IS AN ASYMMETRIC TOP.
 ROTATIONAL SYMMETRY NUMBER  1.
 ROTATIONAL TEMPERATURES (KELVIN)       .50259      .48357      .24645
 ROTATIONAL CONSTANTS (GHZ)           10.47237    10.07607     5.13520
 Zero-point vibrational energy     130498.2 (Joules/Mol)
                                   31.18981 (Kcal/Mol)
 VIBRATIONAL TEMPERATURES:   1035.08  1093.17  1097.13  1292.87  1411.66
          (KELVIN)           1549.33  1574.71  1617.56  1742.27  1924.93
                             1953.30  2169.05  2329.13  5041.75  5558.53
 
 Zero-point correction=                            .049704 (Hartree/Particle)
 Thermal correction to Energy=                     .053034
 Thermal correction to Enthalpy=                   .053978
 Thermal correction to Gibbs Free Energy=          .023639
 Sum of electronic and zero-point Energies=           -255.219051
 Sum of electronic and thermal Energies=              -255.215721
 Sum of electronic and thermal Enthalpies=            -255.214777
 Sum of electronic and thermal Free Energies=         -255.245116
 
                     E (Thermal)             CV                S
                      KCAL/MOL        CAL/MOL-KELVIN    CAL/MOL-KELVIN
 TOTAL                   33.279             10.506             63.855
 ELECTRONIC                .000               .000               .000
 TRANSLATIONAL             .889              2.981             38.656
 ROTATIONAL                .889              2.981             23.899
 VIBRATIONAL             31.502              4.544              1.299
                       Q            LOG10(Q)             LN(Q)
 TOTAL BOT        .133943D-10        -10.873079        -25.036190
 TOTAL V=0        .975162D+12         11.989077         27.605870
 VIB (BOT)        .155965D-22        -22.806972        -52.514993
 VIB (V=0)        .113549D+01           .055184           .127066
 ELECTRONIC       .100000D+01           .000000           .000000
 TRANSLATIONAL    .230339D+08          7.362368         16.952478
 ROTATIONAL       .372842D+05          4.571525         10.526325
 ***** Axes restored to original set *****
 -------------------------------------------------------------------
 Center     Atomic                   Forces (Hartrees/Bohr)
 Number     Number              X              Y              Z
 -------------------------------------------------------------------
    1          7            .000024528     .000104363     .000000000
    2          7            .000062404    -.000106532     .000000000
    3          7           -.000199592     .000440057     .000000000
    4          1            .000016019    -.000013964     .000000000
    5          7           -.000176204    -.000140515     .000000000
    6          6            .000319741    -.000322282     .000000000
    7          1           -.000046897     .000038873     .000000000
 -------------------------------------------------------------------
 Cartesian Forces:  Max      .000440057 RMS      .000157553

 GradGradGradGradGradGradGradGradGradGradGradGradGradGradGradGradGradGrad
 Berny optimization.
 Internal  Forces:  Max      .000371848 RMS      .000090931
 Search for a local minimum.
 Step number   1 out of a maximum of  36
 All quantities printed in internal units (Hartrees-Bohrs-Radians)
 Second derivative matrix not updated -- analytic derivatives used.
     Eigenvalues ---     .01294    .03646    .08398    .08816    .11739
     Eigenvalues ---     .12389    .17455    .21324    .35625    .42817
     Eigenvalues ---     .46808    .49945    .53116    .64517    .71208
     Eigenvalues --- 1000.000001000.000001000.000001000.000001000.00000
     Eigenvalues --- 1000.000001000.000001000.000001000.000001000.00000
     Eigenvalues --- 1000.00000
 Angle between quadratic step and forces=  29.97 degrees.
 Linear search not attempted -- first point.
 Iteration  1 RMS(Cart)=   .00017668 RMS(Int)=   .00000003
 Iteration  2 RMS(Cart)=   .00000003 RMS(Int)=   .00000000
 Variable       Old X    -DE/DX   Delta X   Delta X   Delta X     New X
                                 (Linear)    (Quad)   (Total)
    R1        2.41477   -.00004    .00000   -.00018   -.00018   2.41459
    R2        2.67363    .00004    .00000    .00022    .00022   2.67385
    R3        2.61868   -.00009    .00000   -.00049   -.00049   2.61819
    R4        1.87858    .00000    .00000    .00000    .00000   1.87858
    R5        2.54271    .00037    .00000    .00094    .00094   2.54366
    R6        2.45363    .00019    .00000    .00017    .00017   2.45381
    R7        2.00505   -.00006    .00000   -.00015   -.00015   2.00491
    A1        1.92761    .00009    .00000    .00003    .00003   1.92764
    A2        1.85820    .00008    .00000    .00029    .00029   1.85850
    A3        2.10510    .00004    .00000    .00025    .00025   2.10536
    A4        1.88102   -.00004    .00000   -.00007   -.00007   1.88095
    A5        2.29707    .00000    .00000   -.00019   -.00019   2.29688
    A6        1.83956   -.00005    .00000   -.00001   -.00001   1.83955
    A7        1.91838   -.00007    .00000   -.00025   -.00025   1.91814
    A8        2.17259    .00002    .00000   -.00018   -.00018   2.17241
    A9        2.19222    .00005    .00000    .00042    .00042   2.19264
    D1         .00000    .00000    .00000    .00000    .00000    .00000
    D2         .00000    .00000    .00000    .00000    .00000    .00000
    D3        3.14159    .00000    .00000    .00000    .00000   3.14159
    D4         .00000    .00000    .00000    .00000    .00000    .00000
    D5         .00000    .00000    .00000    .00000    .00000    .00000
    D6        3.14159    .00000    .00000    .00000    .00000   3.14159
    D7        3.14159    .00000    .00000    .00000    .00000   3.14159
    D8         .00000    .00000    .00000    .00000    .00000    .00000
    D9         .00000    .00000    .00000    .00000    .00000    .00000
   D10        3.14159    .00000    .00000    .00000    .00000   3.14159
         Item               Value     Threshold  Converged?
 Maximum Force             .000372      .000450     YES
 RMS     Force             .000091      .000300     YES
 Maximum Displacement      .000516      .001800     YES
 RMS     Displacement      .000177      .001200     YES
 Predicted change in Energy=-2.640166D-07
 Optimization completed.
    -- Stationary point found.
                         ----------------------------
                         !   Optimized Parameters   !
                         ! (Angstroms and Degrees)  !
 ------------------------                            -------------------------
 ! Name  Definition              Value          Derivative Info.             !
 -----------------------------------------------------------------------------
 ! R1    R(1,2)                  1.2778         -DE/DX =    0.               !
 ! R2    R(1,5)                  1.4148         -DE/DX =    0.               !
 ! R3    R(2,3)                  1.3857         -DE/DX =   -0.0001           !
 ! R4    R(3,4)                  0.9941         -DE/DX =    0.               !
 ! R5    R(3,6)                  1.3455         -DE/DX =    0.0004           !
 ! R6    R(5,6)                  1.2984         -DE/DX =    0.0002           !
 ! R7    R(6,7)                  1.061          -DE/DX =   -0.0001           !
 ! A1    A(2,1,5)              110.4442         -DE/DX =    0.0001           !
 ! A2    A(1,2,3)              106.4672         -DE/DX =    0.0001           !
 ! A3    A(2,3,4)              120.6135         -DE/DX =    0.               !
 ! A4    A(2,3,6)              107.7742         -DE/DX =    0.               !
 ! A5    A(4,3,6)              131.6122         -DE/DX =    0.               !
 ! A6    A(1,5,6)              105.3992         -DE/DX =   -0.0001           !
 ! A7    A(3,6,5)              109.9152         -DE/DX =   -0.0001           !
 ! A8    A(3,6,7)              124.4801         -DE/DX =    0.               !
 ! A9    A(5,6,7)              125.6047         -DE/DX =    0.0001           !
 ! D1    D(5,1,2,3)              0.             -DE/DX =    0.               !
 ! D2    D(2,1,5,6)              0.             -DE/DX =    0.               !
 ! D3    D(1,2,3,4)            180.             -DE/DX =    0.               !
 ! D4    D(1,2,3,6)              0.             -DE/DX =    0.               !
 ! D5    D(2,3,6,5)              0.             -DE/DX =    0.               !
 ! D6    D(2,3,6,7)            180.             -DE/DX =    0.               !
 ! D7    D(4,3,6,5)            180.             -DE/DX =    0.               !
 ! D8    D(4,3,6,7)              0.             -DE/DX =    0.               !
 ! D9    D(1,5,6,3)              0.             -DE/DX =    0.               !
 ! D10   D(1,5,6,7)            180.             -DE/DX =    0.               !
 -----------------------------------------------------------------------------
 GradGradGradGradGradGradGradGradGradGradGradGradGradGradGradGradGradGrad

 1\1\GINC-PECOS\Freq\RHF\3-21G*\C1H2N4\RUS\05-Apr-2000\0\\#N GEOM=ALLCH
 ECK GUESS=TCHECK RHF/3-21G* FREQ\\1H tetrazole c CH-NH-N=N-N= casno=28
 8948\\0,1\N,-1.1659271852,-0.2541152279,0.\N,-0.703464747,0.9371048897
 ,0.\N,0.6775224244,0.8223457172,0.\H,1.2528751766,1.6330287355,0.\N,-0
 .1089351153,-1.1945930351,0.\C,0.9807515341,-0.488587406,0.\H,1.968247
 9797,-0.8767007066,0.\\Version=IBM-RS6000-G98RevA.7\State=1-A'\HF=-255
 .268755\RMSD=1.136e-09\RMSF=1.576e-04\Dipole=2.1242347,0.8800211,0.\Di
 poleDeriv=0.1225064,-0.1476514,0.,-0.1866123,-0.0558833,0.,0.,0.,-0.15
 1492,0.3056099,0.2818007,0.,0.1859664,-0.2647708,0.,0.,0.,-0.0531588,-
 0.5366339,-0.2974605,0.,-0.2392476,-0.4179717,0.,0.,0.,-0.3796071,0.28
 07656,0.0609626,0.,0.0725449,0.3489935,0.,0.,0.,0.4520723,-0.5706824,0
 .1332949,0.,-0.0743169,-0.1839974,0.,0.,0.,-0.2651186,0.3117856,-0.053
 6671,0.,0.2421261,0.4322659,0.,0.,0.,0.2126581,0.0866488,0.0227208,0.,
 -0.0004607,0.1413637,0.,0.,0.,0.1846461\Polar=33.0120736,0.5618239,31.
 0180599,0.,0.,10.7344081\PolarDeriv=-9.8596035,-3.017153,-0.9862008,0.
 ,0.,-0.2341148,-2.0281837,1.5252757,-3.6853108,0.,0.,0.1508082,0.,0.,0
 .,-2.9735546,-1.5670768,0.,-2.3202816,1.4832038,-2.8151598,0.,0.,0.230
 189,3.5405203,-4.8750351,10.2118185,0.,0.,-0.0068688,0.,0.,0.,-1.55999
 9,3.3455418,0.,1.2408725,0.3514509,0.1081955,0.,0.,-0.3552289,1.085334
 8,1.1976021,-1.0382299,0.,0.,0.133735,0.,0.,0.,1.0112713,1.623637,0.,2
 .6863242,2.6458583,2.4852233,0.,0.,-0.0430943,1.6800546,2.8197604,5.57
 77051,0.,0.,-0.0825089,0.,0.,0.,0.544977,0.7868278,0.,-1.5132386,1.865
 4262,-1.2725629,0.,0.,0.5009499,-2.2256553,-0.6708548,-10.3130003,0.,0
 .,0.248107,0.,0.,0.,-1.6669523,-3.2197886,0.,2.5721477,-0.9292006,1.18
 34049,0.,0.,-0.5957006,-0.4761508,-2.102417,0.8910659,0.,0.,-0.2560726
 ,0.,0.,0.,3.509996,-0.2983218,0.,7.1937792,-2.3995857,1.2970997,0.,0.,
 0.4969996,-1.57592,2.1056686,-1.6440485,0.,0.,-0.1871999,0.,0.,0.,1.13
 42617,-0.6708194,0.\HyperPolar=51.0118471,2.7139336,17.1014091,14.9550
 262,0.,0.,0.,10.2262552,3.2866615,0.\PG=CS [SG(C1H2N4)]\NImag=0\\0.548
 63942,0.13197054,0.45520971,0.,0.,0.13105493,-0.13866109,-0.10900511,0
 .,0.37580082,-0.03920804,-0.33459631,0.,-0.03148278,0.65628167,0.,0.,-
 0.10284478,0.,0.,0.12440182,-0.13185152,-0.11653789,0.,-0.15367646,-0.
 00484125,0.,0.67914741,-0.02830064,-0.07733648,0.,0.05477834,-0.125391
 63,0.,0.25456634,0.99840313,0.,0.,0.02868416,0.,0.,-0.08127095,0.,0.,0
 .13218753,-0.01077193,0.00171609,0.,-0.00517536,-0.03701950,0.,-0.2271
 3200,-0.19824977,0.,0.22412541,0.00928168,0.00382979,0.,0.00438328,0.0
 1370883,0.,-0.20824321,-0.38266785,0.,0.21602616,0.37566035,0.,0.,0.00
 735407,0.,0.,-0.00889449,0.,0.,-0.01962752,0.,0.,0.01972248,-0.1196720
 3,0.02647537,0.,-0.00155357,0.09735116,0.,-0.00683584,-0.13242567,0.,0
 .00089686,0.00210920,0.,0.49083364,-0.03035305,-0.08957253,0.,-0.02067
 712,-0.13370439,0.,0.00214363,-0.10931678,0.,0.00904376,-0.00502739,0.
 ,0.15983063,0.54583916,0.,0.,-0.09499972,0.,0.,0.03609996,0.,0.,0.0303
 6230,0.,0.,0.00818503,0.,0.,0.12321667,-0.14573150,0.06651999,0.,-0.07
 807901,0.01924804,0.,-0.16611822,0.05455797,0.,0.01841346,-0.02442834,
 0.,-0.34726855,-0.13248501,0.,1.08763278,-0.03694266,0.04277154,0.,0.1
 0483242,-0.06965763,0.,0.03357968,-0.29420727,0.,0.00885210,-0.0049883
 1,0.,-0.12970207,-0.22173319,0.,-0.10291367,0.65661608,0.,0.,0.0193247
 4,0.,0.,0.02660850,0.,0.,-0.09369049,0.,0.,-0.00511793,0.,0.,-0.101047
 96,0.,0.,0.20556717,-0.00195135,-0.00113900,0.,0.00134467,-0.00404763,
 0.,0.00646662,-0.00492657,0.,-0.00035645,0.00087123,0.,-0.01640051,0.0
 1249717,0.,-0.36884896,0.12229419,0.,0.37974599,-0.00644783,-0.0003057
 1,0.,-0.00282904,-0.00664054,0.,0.03933270,-0.00948312,0.,-0.00036883,
 -0.00051542,0.,-0.02363863,0.01351511,0.,0.11950102,-0.10880122,0.,-0.
 12554939,0.11223089,0.,0.,0.01142660,0.,0.,0.00589995,0.,0.,0.00335498
 ,0.,0.,-0.00162164,0.,0.,-0.00181628,0.,0.,-0.05164403,0.,0.,0.0344004
 2\\-0.00002453,-0.00010436,0.,-0.00006240,0.00010653,0.,0.00019959,-0.
 00044006,0.,-0.00001602,0.00001396,0.,0.00017620,0.00014051,0.,-0.0003
 1974,0.00032228,0.,0.00004690,-0.00003887,0.\\\@


 THE PROGRESS OF RIVERS TO THE SEA IS NOT AS RAPID
 AS THAT OF MAN TO ERROR.
                                              -- VOLTAIRE
 Job cpu time:  0 days  0 hours  0 minutes 43.8 seconds.
 File lengths (MBytes):  RWF=   10 Int=    0 D2E=    0 Chk=    3 Scr=    1
 Normal termination of Gaussian 98.
