 Entering Gaussian System, Link 0=g98
 Initial command:
 /usr/local/apps/g98a6/g98/l1.exe /wrk/rdj3/Gau-16972.inp -scrdir=/wrk/rdj3/
 Entering Link 1 = /usr/local/apps/g98a6/g98/l1.exe PID=     18660.
  
 Copyright (c) 1988,1990,1992,1993,1995,1998 Gaussian, Inc.
                  All Rights Reserved.
  
 This is part of the Gaussian(R) 98 program.  It is based on
 the Gaussian 94(TM) system (copyright 1995 Gaussian, Inc.),
 the Gaussian 92(TM) system (copyright 1992 Gaussian, Inc.),
 the Gaussian 90(TM) system (copyright 1990 Gaussian, Inc.),
 the Gaussian 88(TM) system (copyright 1988 Gaussian, Inc.),
 the Gaussian 86(TM) system (copyright 1986 Carnegie Mellon
 University), and the Gaussian 82(TM) system (copyright 1983
 Carnegie Mellon University). Gaussian is a federally registered
 trademark of Gaussian, Inc.
  
 This software contains proprietary and confidential information,
 including trade secrets, belonging to Gaussian, Inc.
  
 This software is provided under written license and may be
 used, copied, transmitted, or stored only in accord with that
 written license.
  
 The following legend is applicable only to US Government
 contracts under DFARS:
  
                    RESTRICTED RIGHTS LEGEND
  
 Use, duplication or disclosure by the US Government is subject
 to restrictions as set forth in subparagraph (c)(1)(ii) of the
 Rights in Technical Data and Computer Software clause at DFARS
 252.227-7013.
  
 Gaussian, Inc.
 Carnegie Office Park, Building 6, Pittsburgh, PA 15106 USA
  
 The following legend is applicable only to US Government
 contracts under FAR:
  
                    RESTRICTED RIGHTS LEGEND
  
 Use, reproduction and disclosure by the US Government is subject
 to restrictions as set forth in subparagraph (c) of the
 Commercial Computer Software - Restricted Rights clause at FAR
 52.227-19.
  
 Gaussian, Inc.
 Carnegie Office Park, Building 6, Pittsburgh, PA 15106 USA
  
  
 ---------------------------------------------------------------
 Warning -- This program may not be used in any manner that
 competes with the business of Gaussian, Inc. or will provide
 assistance to any competitor of Gaussian, Inc.  The licensee
 of this program is prohibited from giving any competitor of
 Gaussian, Inc. access to this program.  By using this program,
 the user acknowledges that Gaussian, Inc. is engaged in the
 business of creating and licensing software in the field of
 computational chemistry and represents and warrants to the
 licensee that it is not a competitor of Gaussian, Inc. and that
 it will not use this program in any manner prohibited above.
 ---------------------------------------------------------------
  

 Cite this work as:
 Gaussian 98, Revision A.6,
 M. J. Frisch, G. W. Trucks, H. B. Schlegel, G. E. Scuseria, 
 M. A. Robb, J. R. Cheeseman, V. G. Zakrzewski, J. A. Montgomery, Jr., 
 R. E. Stratmann, J. C. Burant, S. Dapprich, J. M. Millam, 
 A. D. Daniels, K. N. Kudin, M. C. Strain, O. Farkas, J. Tomasi, 
 V. Barone, M. Cossi, R. Cammi, B. Mennucci, C. Pomelli, C. Adamo, 
 S. Clifford, J. Ochterski, G. A. Petersson, P. Y. Ayala, Q. Cui, 
 K. Morokuma, D. K. Malick, A. D. Rabuck, K. Raghavachari, 
 J. B. Foresman, J. Cioslowski, J. V. Ortiz, B. B. Stefanov, G. Liu, 
 A. Liashenko, P. Piskorz, I. Komaromi, R. Gomperts, R. L. Martin, 
 D. J. Fox, T. Keith, M. A. Al-Laham, C. Y. Peng, A. Nanayakkara, 
 C. Gonzalez, M. Challacombe, P. M. W. Gill, B. Johnson, W. Chen, 
 M. W. Wong, J. L. Andres, C. Gonzalez, M. Head-Gordon, 
 E. S. Replogle, and J. A. Pople, 
 Gaussian, Inc., Pittsburgh PA, 1998.

 **********************************************
 Gaussian 98:  IBM-RS6000-G98RevA.6 19-Oct-1998
                  22-Nov-2000 
 **********************************************
 %mem=24000000
 ------
 #CBS-Q
 ------
 1/18=20,38=1/1,3;
 2/9=110,17=6,18=5/2;
 3/5=11,6=6,7=1,11=9,25=1,30=1/1,2,3;
 4//1;
 5/5=2,38=4/2;
 6/7=2,8=2,9=2,10=2,28=1/1;
 7//1,2,3,16;
 1/18=20/3(1);
 99//99;
 2/9=110/2;
 3/5=11,6=6,7=1,11=9,25=1,30=1/1,2,3;
 4/5=5,16=2/1;
 5/5=2,38=4/2;
 7//1,2,3,16;
 1/18=20/3(-5);
 2/9=110/2;
 6/7=2,8=2,9=2,10=2,19=2,28=1/1;
 99/9=1/99;
 ----------------------------------------
 1H tetrazole c CH-NH-N=N-N= casno=288948
 ----------------------------------------
 Symbolic Z-matrix:
 Charge =  0 Multiplicity = 1
 7                    -1.12329  -0.25456   0. 
 7                    -0.67158   0.91328   0. 
 7                     0.65055   0.80984   0. 
 1                     1.224     1.62189   0. 
 7                    -0.13465  -1.16105   0. 
 6                     0.96218  -0.48332   0. 
 1                     1.95569  -0.87454   0. 

 GradGradGradGradGradGradGradGradGradGradGradGradGradGradGradGradGradGrad
 Berny optimization.
 Initialization pass.
                         ----------------------------
                         !    Initial Parameters    !
                         ! (Angstroms and Degrees)  !
 ------------------------                            -------------------------
 ! Name  Definition              Value          Derivative Info.             !
 -----------------------------------------------------------------------------
 ! R1    R(1,2)                  1.2522         estimate D2E/DX2             !
 ! R2    R(1,5)                  1.3413         estimate D2E/DX2             !
 ! R3    R(2,3)                  1.3262         estimate D2E/DX2             !
 ! R4    R(3,4)                  0.9941         estimate D2E/DX2             !
 ! R5    R(3,6)                  1.3302         estimate D2E/DX2             !
 ! R6    R(5,6)                  1.2893         estimate D2E/DX2             !
 ! R7    R(6,7)                  1.0678         estimate D2E/DX2             !
 ! A1    A(2,1,5)              111.3714         estimate D2E/DX2             !
 ! A2    A(1,2,3)              106.673          estimate D2E/DX2             !
 ! A3    A(2,3,4)              120.7559         estimate D2E/DX2             !
 ! A4    A(2,3,6)              108.0227         estimate D2E/DX2             !
 ! A5    A(4,3,6)              131.2214         estimate D2E/DX2             !
 ! A6    A(1,5,6)              105.77           estimate D2E/DX2             !
 ! A7    A(3,6,5)              108.1628         estimate D2E/DX2             !
 ! A8    A(3,6,7)              125.0426         estimate D2E/DX2             !
 ! A9    A(5,6,7)              126.7945         estimate D2E/DX2             !
 ! D1    D(5,1,2,3)              0.             estimate D2E/DX2             !
 ! D2    D(2,1,5,6)              0.             estimate D2E/DX2             !
 ! D3    D(1,2,3,4)            180.             estimate D2E/DX2             !
 ! D4    D(1,2,3,6)              0.             estimate D2E/DX2             !
 ! D5    D(2,3,6,5)              0.             estimate D2E/DX2             !
 ! D6    D(2,3,6,7)            180.             estimate D2E/DX2             !
 ! D7    D(4,3,6,5)            180.             estimate D2E/DX2             !
 ! D8    D(4,3,6,7)              0.             estimate D2E/DX2             !
 ! D9    D(1,5,6,3)              0.             estimate D2E/DX2             !
 ! D10   D(1,5,6,7)            180.             estimate D2E/DX2             !
 -----------------------------------------------------------------------------
 Trust Radius=3.00D-01 FncErr=1.00D-07 GrdErr=1.00D-07
 Number of steps in this run=  36 maximum allowed number of steps= 100.
 GradGradGradGradGradGradGradGradGradGradGradGradGradGradGradGradGradGrad

                          Input orientation:                          
 ---------------------------------------------------------------------
 Center     Atomic     Atomic              Coordinates (Angstroms)
 Number     Number      Type              X           Y           Z
 ---------------------------------------------------------------------
    1          7             0       -1.123293   -0.254560    0.000000
    2          7             0       -0.671576    0.913277    0.000000
    3          7             0        0.650545    0.809842    0.000000
    4          1             0        1.224004    1.621891    0.000000
    5          7             0       -0.134646   -1.161053    0.000000
    6          6             0        0.962183   -0.483316    0.000000
    7          1             0        1.955691   -0.874535    0.000000
 ---------------------------------------------------------------------
                    Distance matrix (angstroms):
                    1          2          3          4          5
     1  N    0.000000
     2  N    1.252155   0.000000
     3  N    2.068684   1.326161   0.000000
     4  H    3.005141   2.023699   0.994122   0.000000
     5  N    1.341325   2.142694   2.121545   3.096887   0.000000
     6  C    2.097985   2.149335   1.330179   2.121426   1.289326
     7  H    3.140782   3.177861   2.130852   2.601444   2.109882
                    6          7
     6  C    0.000000
     7  H    1.067760   0.000000
 Stoichiometry    CH2N4
 Framework group  CS[SG(CH2N4)]
 Deg. of freedom   11
 Full point group                 CS      NOp   2
 Largest Abelian subgroup         CS      NOp   2
 Largest concise Abelian subgroup C1      NOp   1
                         Standard orientation:                         
 ---------------------------------------------------------------------
 Center     Atomic     Atomic              Coordinates (Angstroms)
 Number     Number      Type              X           Y           Z
 ---------------------------------------------------------------------
    1          7             0       -0.716312   -0.901934    0.000000
    2          7             0       -1.095520    0.291420    0.000000
    3          7             0        0.000000    1.038775    0.000000
    4          1             0       -0.061479    2.030994    0.000000
    5          7             0        0.622151   -0.989495    0.000000
    6          6             0        1.052813    0.225779    0.000000
    7          1             0        2.072370    0.542976    0.000000
 ---------------------------------------------------------------------
 Rotational constants (GHZ):     10.9198679     10.7343949      5.4131685
 Isotopes: N-14,N-14,N-14,H-1,N-14,C-12,H-1
 Standard basis: 6-31(d') (6D, 7F)
 There are    59 symmetry adapted basis functions of A'  symmetry.
 There are    20 symmetry adapted basis functions of A"  symmetry.
 Crude estimate of integral set expansion from redundant integrals=1.000.
 Integral buffers will be    262144 words long.
 Raffenetti 1 integral format.
 Two-electron integral symmetry is turned on.
    79 basis functions      148 primitive gaussians
    18 alpha electrons       18 beta electrons
       nuclear repulsion energy       169.8288422228 Hartrees.
 One-electron integrals computed using PRISM.
 NBasis=    79 RedAO= T  NBF=    59    20
 NBsUse=    79 1.00D-04 NBFU=    59    20
 Projected INDO Guess.
 Initial guess orbital symmetries:
       Occupied  (A') (A') (A') (A') (A') (A') (A') (A') (A') (A')
                 (A') (A") (A') (A') (A") (A") (A') (A')
       Virtual   (A") (A') (A") (A') (A') (A') (A') (A') (A') (A')
                 (A') (A') (A') (A') (A') (A') (A') (A') (A') (A')
                 (A') (A') (A') (A') (A') (A') (A') (A') (A') (A')
                 (A') (A') (A') (A') (A') (A') (A') (A') (A') (A')
                 (A') (A') (A') (A') (A') (A') (A") (A") (A") (A")
                 (A") (A") (A") (A") (A") (A") (A") (A") (A") (A")
                 (A")
 Requested convergence on RMS density matrix=1.00D-08 within  64 cycles.
 Requested convergence on MAX density matrix=1.00D-06.
 Keep R1 integrals in memory in canonical form, NReq=     5449697.
 SCF Done:  E(RHF) =  -256.752970321     A.U. after   15 cycles
             Convg  =    0.4133D-08             -V/T =  2.0015
             S**2   =   0.0000

 **********************************************************************

            Population analysis using the SCF density.

 **********************************************************************

 Orbital Symmetries:
       Occupied  (A') (A') (A') (A') (A') (A') (A') (A') (A') (A')
                 (A') (A") (A') (A') (A') (A') (A") (A")
       Virtual   (A") (A') (A") (A') (A') (A') (A') (A') (A') (A')
                 (A") (A') (A') (A') (A") (A') (A') (A") (A') (A")
                 (A') (A') (A") (A') (A') (A') (A') (A') (A") (A')
                 (A") (A') (A') (A") (A') (A") (A") (A') (A') (A')
                 (A') (A') (A") (A') (A") (A') (A") (A") (A') (A')
                 (A') (A") (A') (A') (A') (A') (A') (A') (A') (A')
                 (A')
  The electronic state is 1-A'.
 Alpha  occ. eigenvalues --  -15.68386 -15.65928 -15.63929 -15.59866 -11.33588
 Alpha  occ. eigenvalues --   -1.52276  -1.26759  -1.21111  -0.91523  -0.89732
 Alpha  occ. eigenvalues --   -0.81069  -0.68956  -0.68459  -0.57293  -0.47552
 Alpha  occ. eigenvalues --   -0.46341  -0.45850  -0.42460
 Alpha virt. eigenvalues --    0.15085   0.20071   0.20177   0.25676   0.37777
 Alpha virt. eigenvalues --    0.39616   0.48749   0.51611   0.67131   0.73468
 Alpha virt. eigenvalues --    0.73754   0.82828   0.84465   0.90683   0.91753
 Alpha virt. eigenvalues --    0.91820   0.94309   0.95914   0.96982   1.04921
 Alpha virt. eigenvalues --    1.05160   1.09442   1.09620   1.13264   1.17854
 Alpha virt. eigenvalues --    1.25848   1.31459   1.34335   1.44363   1.50696
 Alpha virt. eigenvalues --    1.51406   1.68876   1.71891   1.79421   1.95325
 Alpha virt. eigenvalues --    1.96193   2.03361   2.08929   2.27712   2.34936
 Alpha virt. eigenvalues --    2.46751   2.52806   2.61196   2.71246   2.72997
 Alpha virt. eigenvalues --    2.79568   2.85980   3.00505   3.02200   3.07276
 Alpha virt. eigenvalues --    3.17355   3.18278   3.25971   3.41897   3.49722
 Alpha virt. eigenvalues --    3.56502   3.65860   4.50068   4.59698   4.98059
 Alpha virt. eigenvalues --    5.04791
          Condensed to atoms (all electrons):
              1          2          3          4          5          6
  1  N    6.669788   0.339213  -0.117470   0.004975   0.300014  -0.128017
  2  N    0.339213   6.714264   0.197977  -0.021130  -0.105717  -0.109757
  3  N   -0.117470   0.197977   6.870803   0.323851  -0.066045   0.317934
  4  H    0.004975  -0.021130   0.323851   0.284433   0.003525  -0.021859
  5  N    0.300014  -0.105717  -0.066045   0.003525   6.697494   0.486741
  6  C   -0.128017  -0.109757   0.317934  -0.021859   0.486741   4.866303
  7  H    0.003472   0.001540  -0.035117   0.000783  -0.022512   0.397787
              7
  1  N    0.003472
  2  N    0.001540
  3  N   -0.035117
  4  H    0.000783
  5  N   -0.022512
  6  C    0.397787
  7  H    0.396540
 Total atomic charges:
              1
  1  N   -0.071976
  2  N   -0.016389
  3  N   -0.491934
  4  H    0.425423
  5  N   -0.293498
  6  C    0.190868
  7  H    0.257508
 Sum of Mulliken charges=   0.00000
 Atomic charges with hydrogens summed into heavy atoms:
              1
  1  N   -0.071976
  2  N   -0.016389
  3  N   -0.066511
  4  H    0.000000
  5  N   -0.293498
  6  C    0.448376
  7  H    0.000000
 Sum of Mulliken charges=   0.00000
 Electronic spatial extent (au):  <R**2>=   244.7108
 Charge=     0.0000 electrons
 Dipole moment (Debye):
    X=     2.7019    Y=     4.9907    Z=     0.0000  Tot=     5.6751
 Quadrupole moment (Debye-Ang):
   XX=   -28.7406   YY=   -26.5601   ZZ=   -28.5307
   XY=     1.9779   XZ=     0.0000   YZ=     0.0000
 Octapole moment (Debye-Ang**2):
  XXX=    12.7837  YYY=    23.0086  ZZZ=     0.0000  XYY=    -0.6011
  XXY=     5.0124  XXZ=     0.0000  XZZ=    -0.5156  YZZ=     0.6066
  YYZ=     0.0000  XYZ=     0.0000
 Hexadecapole moment (Debye-Ang**3):
 XXXX=  -137.4375 YYYY=  -116.0391 ZZZZ=   -25.3377 XXXY=     6.8040
 XXXZ=     0.0000 YYYX=    -0.1849 YYYZ=     0.0000 ZZZX=     0.0000
 ZZZY=     0.0000 XXYY=   -52.0856 XXZZ=   -29.5683 YYZZ=   -28.1419
 XXYZ=     0.0000 YYXZ=     0.0000 ZZXY=     0.0240
 N-N= 1.698288422228D+02 E-N=-9.409191776034D+02  KE= 2.563771492125D+02
 Symmetry A'   KE= 2.473505456577D+02
 Symmetry A"   KE= 9.026603554782D+00
 ***** Axes restored to original set *****
 -------------------------------------------------------------------
 Center     Atomic                   Forces (Hartrees/Bohr)
 Number     Number              X              Y              Z
 -------------------------------------------------------------------
    1          7           0.003369022    0.002358364    0.000000000
    2          7           0.000535883   -0.003797244    0.000000000
    3          7          -0.000764121    0.003076749    0.000000000
    4          1          -0.000899336   -0.001246491    0.000000000
    5          7          -0.001243377    0.000536748    0.000000000
    6          6          -0.002996974   -0.000210260    0.000000000
    7          1           0.001998903   -0.000717867    0.000000000
 -------------------------------------------------------------------
 Cartesian Forces:  Max     0.003797244 RMS     0.001681869

 GradGradGradGradGradGradGradGradGradGradGradGradGradGradGradGradGradGrad
 Berny optimization.
 Internal  Forces:  Max     0.003209701 RMS     0.001070055
 Search for a local minimum.
 Step number   1 out of a maximum of  36
 All quantities printed in internal units (Hartrees-Bohrs-Radians)
 Second derivative matrix not updated -- first step.
     Eigenvalues ---    0.02505   0.02639   0.02674   0.02834   0.16000
     Eigenvalues ---    0.16000   0.22605   0.24688   0.37515   0.48737
     Eigenvalues ---    0.50885   0.56605   0.58506   0.66912   0.78894
     Eigenvalues --- 1000.000001000.000001000.000001000.000001000.00000
     Eigenvalues --- 1000.000001000.000001000.000001000.000001000.00000
     Eigenvalues --- 1000.00000
 RFO step:  Lambda=-5.72875531D-05.
 Linear search not attempted -- first point.
 Iteration  1 RMS(Cart)=  0.00173055 RMS(Int)=  0.00000240
 Iteration  2 RMS(Cart)=  0.00000170 RMS(Int)=  0.00000105
 Iteration  3 RMS(Cart)=  0.00000000 RMS(Int)=  0.00000105
 Variable       Old X    -DE/DX   Delta X   Delta X   Delta X     New X
                                 (Linear)    (Quad)   (Total)
    R1        2.36623  -0.00321   0.00000  -0.00425  -0.00425   2.36198
    R2        2.53474  -0.00177   0.00000  -0.00340  -0.00340   2.53134
    R3        2.50608  -0.00205   0.00000  -0.00343  -0.00343   2.50265
    R4        1.87862  -0.00154   0.00000  -0.00315  -0.00315   1.87547
    R5        2.51367   0.00081   0.00000   0.00184   0.00183   2.51551
    R6        2.43647  -0.00058   0.00000  -0.00055  -0.00055   2.43592
    R7        2.01777   0.00212   0.00000   0.00566   0.00566   2.02343
    A1        1.94380   0.00133   0.00000   0.00333   0.00333   1.94713
    A2        1.86179   0.00059   0.00000   0.00098   0.00098   1.86278
    A3        2.10759   0.00043   0.00000   0.00130   0.00130   2.10889
    A4        1.88535  -0.00089   0.00000  -0.00278  -0.00279   1.88257
    A5        2.29025   0.00046   0.00000   0.00148   0.00148   2.29173
    A6        1.84604  -0.00098   0.00000  -0.00338  -0.00338   1.84265
    A7        1.88780  -0.00005   0.00000   0.00186   0.00186   1.88965
    A8        2.18241  -0.00004   0.00000  -0.00134  -0.00133   2.18107
    A9        2.21298   0.00009   0.00000  -0.00052  -0.00052   2.21246
    D1        0.00000   0.00000   0.00000   0.00000   0.00000   0.00000
    D2        0.00000   0.00000   0.00000   0.00000   0.00000   0.00000
    D3        3.14159   0.00000   0.00000   0.00000   0.00000   3.14159
    D4        0.00000   0.00000   0.00000   0.00000   0.00000   0.00000
    D5        0.00000   0.00000   0.00000   0.00000   0.00000   0.00000
    D6        3.14159   0.00000   0.00000   0.00000   0.00000   3.14159
    D7        3.14159   0.00000   0.00000   0.00000   0.00000   3.14159
    D8        0.00000   0.00000   0.00000   0.00000   0.00000   0.00000
    D9        0.00000   0.00000   0.00000   0.00000   0.00000   0.00000
   D10        3.14159   0.00000   0.00000   0.00000   0.00000   3.14159
         Item               Value     Threshold  Converged?
 Maximum Force            0.003210     0.000450     NO 
 RMS     Force            0.001070     0.000300     NO 
 Maximum Displacement     0.005110     0.001800     NO 
 RMS     Displacement     0.001731     0.001200     NO 
 Predicted change in Energy=-2.863098D-05
 GradGradGradGradGradGradGradGradGradGradGradGradGradGradGradGradGradGrad

                          Input orientation:                          
 ---------------------------------------------------------------------
 Center     Atomic     Atomic              Coordinates (Angstroms)
 Number     Number      Type              X           Y           Z
 ---------------------------------------------------------------------
    1          7             0       -1.120589   -0.253608    0.000000
    2          7             0       -0.670365    0.912396    0.000000
    3          7             0        0.650106    0.811169    0.000000
    4          1             0        1.222389    1.622006    0.000000
    5          7             0       -0.135757   -1.161593    0.000000
    6          6             0        0.960392   -0.483312    0.000000
    7          1             0        1.956731   -0.875514    0.000000
 ---------------------------------------------------------------------
                    Distance matrix (angstroms):
                    1          2          3          4          5
     1  N    0.000000
     2  N    1.249907   0.000000
     3  N    2.066183   1.324345   0.000000
     4  H    3.001246   2.021401   0.992453   0.000000
     5  N    1.339526   2.141783   2.123528   3.097254   0.000000
     6  C    2.093620   2.146478   1.331149   2.121558   1.289034
     7  H    3.139533   3.177775   2.133581   2.603242   2.111953
                    6          7
     6  C    0.000000
     7  H    1.070754   0.000000
 Stoichiometry    CH2N4
 Framework group  CS[SG(CH2N4)]
 Deg. of freedom   11
 Full point group                 CS      NOp   2
 Largest Abelian subgroup         CS      NOp   2
 Largest concise Abelian subgroup C1      NOp   1
                         Standard orientation:                         
 ---------------------------------------------------------------------
 Center     Atomic     Atomic              Coordinates (Angstroms)
 Number     Number      Type              X           Y           Z
 ---------------------------------------------------------------------
    1          7             0       -0.715860   -0.898878    0.000000
    2          7             0       -1.093711    0.292548    0.000000
    3          7             0        0.000000    1.039332    0.000000
    4          1             0       -0.060497    2.029940    0.000000
    5          7             0        0.620458   -0.991530    0.000000
    6          6             0        1.051648    0.223247    0.000000
    7          1             0        2.074393    0.540272    0.000000
 ---------------------------------------------------------------------
 Rotational constants (GHZ):     10.9405640     10.7443208      5.4207772
 Isotopes: N-14,N-14,N-14,H-1,N-14,C-12,H-1
 Standard basis: 6-31(d') (6D, 7F)
 There are    59 symmetry adapted basis functions of A'  symmetry.
 There are    20 symmetry adapted basis functions of A"  symmetry.
 Crude estimate of integral set expansion from redundant integrals=1.000.
 Integral buffers will be    262144 words long.
 Raffenetti 1 integral format.
 Two-electron integral symmetry is turned on.
    79 basis functions      148 primitive gaussians
    18 alpha electrons       18 beta electrons
       nuclear repulsion energy       169.9531404569 Hartrees.
 One-electron integrals computed using PRISM.
 NBasis=    79 RedAO= T  NBF=    59    20
 NBsUse=    79 1.00D-04 NBFU=    59    20
 Initial guess read from the read-write file:
 Initial guess orbital symmetries:
       Occupied  (A') (A') (A') (A') (A') (A') (A') (A') (A') (A')
                 (A') (A") (A') (A') (A') (A') (A") (A")
       Virtual   (A") (A') (A") (A') (A') (A') (A') (A') (A') (A')
                 (A") (A') (A') (A') (A") (A') (A') (A") (A') (A")
                 (A') (A') (A") (A') (A') (A') (A') (A') (A") (A')
                 (A") (A') (A') (A") (A') (A") (A") (A') (A') (A')
                 (A') (A') (A") (A') (A") (A') (A") (A") (A') (A')
                 (A') (A") (A') (A') (A') (A') (A') (A') (A') (A')
                 (A')
 Requested convergence on RMS density matrix=1.00D-08 within  64 cycles.
 Requested convergence on MAX density matrix=1.00D-06.
 Keep R1 integrals in memory in canonical form, NReq=     5449697.
 SCF Done:  E(RHF) =  -256.752993046     A.U. after   11 cycles
             Convg  =    0.2805D-08             -V/T =  2.0014
             S**2   =   0.0000
 ***** Axes restored to original set *****
 -------------------------------------------------------------------
 Center     Atomic                   Forces (Hartrees/Bohr)
 Number     Number              X              Y              Z
 -------------------------------------------------------------------
    1          7          -0.001096652    0.000337992    0.000000000
    2          7          -0.000182019   -0.000640474    0.000000000
    3          7          -0.000223716   -0.000245926    0.000000000
    4          1           0.000159486    0.000059567    0.000000000
    5          7           0.000350620    0.001119247    0.000000000
    6          6           0.001190252   -0.000804930    0.000000000
    7          1          -0.000197971    0.000174523    0.000000000
 -------------------------------------------------------------------
 Cartesian Forces:  Max     0.001190252 RMS     0.000507545

 GradGradGradGradGradGradGradGradGradGradGradGradGradGradGradGradGradGrad
 Berny optimization.
 Internal  Forces:  Max     0.001015580 RMS     0.000373048
 Search for a local minimum.
 Step number   2 out of a maximum of  36
 All quantities printed in internal units (Hartrees-Bohrs-Radians)
 Update second derivatives using information from points  1  2
 Trust test= 7.94D-01 RLast= 1.13D-02 DXMaxT set to 3.00D-01
     Eigenvalues ---    0.02505   0.02640   0.02674   0.02834   0.15939
     Eigenvalues ---    0.16005   0.23213   0.26833   0.39797   0.49116
     Eigenvalues ---    0.50959   0.56685   0.63214   0.67601   0.73176
     Eigenvalues --- 1000.000001000.000001000.000001000.000001000.00000
     Eigenvalues --- 1000.000001000.000001000.000001000.000001000.00000
     Eigenvalues --- 1000.00000
 RFO step:  Lambda=-7.50009210D-06.
 Quartic linear search produced a step of -0.17142.
 Iteration  1 RMS(Cart)=  0.00103812 RMS(Int)=  0.00000091
 Iteration  2 RMS(Cart)=  0.00000081 RMS(Int)=  0.00000025
 Variable       Old X    -DE/DX   Delta X   Delta X   Delta X     New X
                                 (Linear)    (Quad)   (Total)
    R1        2.36198  -0.00046   0.00073  -0.00178  -0.00105   2.36093
    R2        2.53134   0.00038   0.00058  -0.00050   0.00008   2.53142
    R3        2.50265   0.00050   0.00059  -0.00036   0.00023   2.50288
    R4        1.87547   0.00014   0.00054  -0.00072  -0.00017   1.87529
    R5        2.51551  -0.00007  -0.00031   0.00050   0.00018   2.51569
    R6        2.43592  -0.00008   0.00009  -0.00023  -0.00014   2.43578
    R7        2.02343  -0.00025  -0.00097   0.00117   0.00020   2.02363
    A1        1.94713  -0.00084  -0.00057  -0.00190  -0.00247   1.94466
    A2        1.86278   0.00039  -0.00017   0.00151   0.00134   1.86412
    A3        2.10889  -0.00002  -0.00022   0.00038   0.00016   2.10905
    A4        1.88257   0.00022   0.00048   0.00012   0.00060   1.88316
    A5        2.29173  -0.00020  -0.00025  -0.00050  -0.00075   2.29098
    A6        1.84265   0.00102   0.00058   0.00244   0.00302   1.84568
    A7        1.88965  -0.00078  -0.00032  -0.00218  -0.00249   1.88716
    A8        2.18107   0.00030   0.00023   0.00049   0.00072   2.18179
    A9        2.21246   0.00048   0.00009   0.00168   0.00177   2.21423
    D1        0.00000   0.00000   0.00000   0.00000   0.00000   0.00000
    D2        0.00000   0.00000   0.00000   0.00000   0.00000   0.00000
    D3        3.14159   0.00000   0.00000   0.00000   0.00000   3.14159
    D4        0.00000   0.00000   0.00000   0.00000   0.00000   0.00000
    D5        0.00000   0.00000   0.00000   0.00000   0.00000   0.00000
    D6        3.14159   0.00000   0.00000   0.00000   0.00000   3.14159
    D7        3.14159   0.00000   0.00000   0.00000   0.00000   3.14159
    D8        0.00000   0.00000   0.00000   0.00000   0.00000   0.00000
    D9        0.00000   0.00000   0.00000   0.00000   0.00000   0.00000
   D10        3.14159   0.00000   0.00000   0.00000   0.00000   3.14159
         Item               Value     Threshold  Converged?
 Maximum Force            0.001016     0.000450     NO 
 RMS     Force            0.000373     0.000300     NO 
 Maximum Displacement     0.003094     0.001800     NO 
 RMS     Displacement     0.001038     0.001200     YES
 Predicted change in Energy=-4.765932D-06
 GradGradGradGradGradGradGradGradGradGradGradGradGradGradGradGradGradGrad

                          Input orientation:                          
 ---------------------------------------------------------------------
 Center     Atomic     Atomic              Coordinates (Angstroms)
 Number     Number      Type              X           Y           Z
 ---------------------------------------------------------------------
    1          7             0       -1.122100   -0.253404    0.000000
    2          7             0       -0.670762    0.911572    0.000000
    3          7             0        0.649851    0.810619    0.000000
    4          1             0        1.222033    1.621414    0.000000
    5          7             0       -0.136019   -1.160099    0.000000
    6          6             0        0.961208   -0.483704    0.000000
    7          1             0        1.957677   -0.875857    0.000000
 ---------------------------------------------------------------------
                    Distance matrix (angstroms):
                    1          2          3          4          5
     1  N    0.000000
     2  N    1.249350   0.000000
     3  N    2.066871   1.324466   0.000000
     4  H    3.001650   2.021521   0.992361   0.000000
     5  N    1.339571   2.139572   2.121632   3.095339   0.000000
     6  C    2.095998   2.147119   1.331246   2.121215   1.288960
     7  H    3.142049   3.178615   2.134153   2.603370   2.112902
                    6          7
     6  C    0.000000
     7  H    1.070857   0.000000
 Stoichiometry    CH2N4
 Framework group  CS[SG(CH2N4)]
 Deg. of freedom   11
 Full point group                 CS      NOp   2
 Largest Abelian subgroup         CS      NOp   2
 Largest concise Abelian subgroup C1      NOp   1
                         Standard orientation:                         
 ---------------------------------------------------------------------
 Center     Atomic     Atomic              Coordinates (Angstroms)
 Number     Number      Type              X           Y           Z
 ---------------------------------------------------------------------
    1          7             0       -0.716609   -0.899701    0.000000
    2          7             0       -1.093380    0.291483    0.000000
    3          7             0        0.000000    1.038965    0.000000
    4          1             0       -0.060908    2.029455    0.000000
    5          7             0        0.619910   -0.990082    0.000000
    6          6             0        1.052680    0.224054    0.000000
    7          1             0        2.075381    0.541570    0.000000
 ---------------------------------------------------------------------
 Rotational constants (GHZ):     10.9341468     10.7527043      5.4213333
 Isotopes: N-14,N-14,N-14,H-1,N-14,C-12,H-1
 Standard basis: 6-31(d') (6D, 7F)
 There are    59 symmetry adapted basis functions of A'  symmetry.
 There are    20 symmetry adapted basis functions of A"  symmetry.
 Crude estimate of integral set expansion from redundant integrals=1.000.
 Integral buffers will be    262144 words long.
 Raffenetti 1 integral format.
 Two-electron integral symmetry is turned on.
    79 basis functions      148 primitive gaussians
    18 alpha electrons       18 beta electrons
       nuclear repulsion energy       169.9621016498 Hartrees.
 One-electron integrals computed using PRISM.
 NBasis=    79 RedAO= T  NBF=    59    20
 NBsUse=    79 1.00D-04 NBFU=    59    20
 Initial guess read from the read-write file:
 Initial guess orbital symmetries:
       Occupied  (A') (A') (A') (A') (A') (A') (A') (A') (A') (A')
                 (A') (A") (A') (A') (A') (A') (A") (A")
       Virtual   (A") (A') (A") (A') (A') (A') (A') (A') (A') (A')
                 (A") (A') (A') (A') (A") (A') (A') (A") (A') (A")
                 (A') (A') (A") (A') (A') (A') (A') (A') (A") (A')
                 (A") (A') (A') (A") (A') (A") (A") (A') (A') (A')
                 (A') (A') (A") (A') (A") (A') (A") (A") (A') (A')
                 (A') (A") (A') (A') (A') (A') (A') (A') (A') (A')
                 (A')
 Requested convergence on RMS density matrix=1.00D-08 within  64 cycles.
 Requested convergence on MAX density matrix=1.00D-06.
 Keep R1 integrals in memory in canonical form, NReq=     5449697.
 SCF Done:  E(RHF) =  -256.752994973     A.U. after   10 cycles
             Convg  =    0.3103D-08             -V/T =  2.0014
             S**2   =   0.0000
 ***** Axes restored to original set *****
 -------------------------------------------------------------------
 Center     Atomic                   Forces (Hartrees/Bohr)
 Number     Number              X              Y              Z
 -------------------------------------------------------------------
    1          7           0.000393744   -0.000118602    0.000000000
    2          7          -0.000043897    0.000833638    0.000000000
    3          7          -0.000205275   -0.000006873    0.000000000
    4          1           0.000090784    0.000228851    0.000000000
    5          7           0.000210034   -0.000803180    0.000000000
    6          6          -0.000085809   -0.000258362    0.000000000
    7          1          -0.000359581    0.000124528    0.000000000
 -------------------------------------------------------------------
 Cartesian Forces:  Max     0.000833638 RMS     0.000298959

 GradGradGradGradGradGradGradGradGradGradGradGradGradGradGradGradGradGrad
 Berny optimization.
 Internal  Forces:  Max     0.000583525 RMS     0.000262495
 Search for a local minimum.
 Step number   3 out of a maximum of  36
 All quantities printed in internal units (Hartrees-Bohrs-Radians)
 Update second derivatives using information from points  1  2  3
 Trust test= 4.04D-01 RLast= 5.40D-03 DXMaxT set to 3.00D-01
     Eigenvalues ---    0.02505   0.02640   0.02674   0.02834   0.15875
     Eigenvalues ---    0.16026   0.23029   0.39368   0.41435   0.49420
     Eigenvalues ---    0.50805   0.57868   0.63234   0.67613   0.82498
     Eigenvalues --- 1000.000001000.000001000.000001000.000001000.00000
     Eigenvalues --- 1000.000001000.000001000.000001000.000001000.00000
     Eigenvalues --- 1000.00000
 RFO step:  Lambda=-7.55836204D-07.
 Quartic linear search produced a step of -0.37331.
 Iteration  1 RMS(Cart)=  0.00043809 RMS(Int)=  0.00000015
 Iteration  2 RMS(Cart)=  0.00000013 RMS(Int)=  0.00000006
 Variable       Old X    -DE/DX   Delta X   Delta X   Delta X     New X
                                 (Linear)    (Quad)   (Total)
    R1        2.36093   0.00047   0.00039   0.00008   0.00048   2.36140
    R2        2.53142   0.00021  -0.00003   0.00041   0.00038   2.53180
    R3        2.50288  -0.00018  -0.00009   0.00009   0.00000   2.50288
    R4        1.87529   0.00024   0.00007   0.00034   0.00041   1.87570
    R5        2.51569   0.00043  -0.00007   0.00036   0.00030   2.51599
    R6        2.43578  -0.00014   0.00005  -0.00016  -0.00011   2.43567
    R7        2.02363  -0.00038  -0.00007  -0.00073  -0.00081   2.02282
    A1        1.94466   0.00058   0.00092   0.00019   0.00111   1.94577
    A2        1.86412  -0.00046  -0.00050  -0.00044  -0.00094   1.86318
    A3        2.10905  -0.00009  -0.00006  -0.00023  -0.00029   2.10875
    A4        1.88316   0.00008  -0.00022   0.00048   0.00026   1.88342
    A5        2.29098   0.00002   0.00028  -0.00025   0.00003   2.29101
    A6        1.84568  -0.00057  -0.00113   0.00011  -0.00102   1.84466
    A7        1.88716   0.00037   0.00093  -0.00035   0.00058   1.88774
    A8        2.18179  -0.00017  -0.00027   0.00003  -0.00024   2.18155
    A9        2.21423  -0.00020  -0.00066   0.00032  -0.00034   2.21389
    D1        0.00000   0.00000   0.00000   0.00000   0.00000   0.00000
    D2        0.00000   0.00000   0.00000   0.00000   0.00000   0.00000
    D3        3.14159   0.00000   0.00000   0.00000   0.00000   3.14159
    D4        0.00000   0.00000   0.00000   0.00000   0.00000   0.00000
    D5        0.00000   0.00000   0.00000   0.00000   0.00000   0.00000
    D6        3.14159   0.00000   0.00000   0.00000   0.00000   3.14159
    D7        3.14159   0.00000   0.00000   0.00000   0.00000   3.14159
    D8        0.00000   0.00000   0.00000   0.00000   0.00000   0.00000
    D9        0.00000   0.00000   0.00000   0.00000   0.00000   0.00000
   D10        3.14159   0.00000   0.00000   0.00000   0.00000   3.14159
         Item               Value     Threshold  Converged?
 Maximum Force            0.000584     0.000450     NO 
 RMS     Force            0.000262     0.000300     YES
 Maximum Displacement     0.001259     0.001800     YES
 RMS     Displacement     0.000438     0.001200     YES
 Predicted change in Energy=-1.438242D-06
 GradGradGradGradGradGradGradGradGradGradGradGradGradGradGradGradGradGrad

                          Input orientation:                          
 ---------------------------------------------------------------------
 Center     Atomic     Atomic              Coordinates (Angstroms)
 Number     Number      Type              X           Y           Z
 ---------------------------------------------------------------------
    1          7             0       -1.121388   -0.253532    0.000000
    2          7             0       -0.670645    0.911944    0.000000
    3          7             0        0.649934    0.810529    0.000000
    4          1             0        1.222287    1.621466    0.000000
    5          7             0       -0.135635   -1.160881    0.000000
    6          6             0        0.961210   -0.483974    0.000000
    7          1             0        1.957342   -0.875819    0.000000
 ---------------------------------------------------------------------
                    Distance matrix (angstroms):
                    1          2          3          4          5
     1  N    0.000000
     2  N    1.249602   0.000000
     3  N    2.066351   1.324467   0.000000
     4  H    3.001405   2.021537   0.992575   0.000000
     5  N    1.339772   2.140756   2.122163   3.096030   0.000000
     6  C    2.095309   2.147450   1.331402   2.121565   1.288904
     7  H    3.140990   3.178429   2.133796   2.603217   2.112301
                    6          7
     6  C    0.000000
     7  H    1.070430   0.000000
 Stoichiometry    CH2N4
 Framework group  CS[SG(CH2N4)]
 Deg. of freedom   11
 Full point group                 CS      NOp   2
 Largest Abelian subgroup         CS      NOp   2
 Largest concise Abelian subgroup C1      NOp   1
                         Standard orientation:                         
 ---------------------------------------------------------------------
 Center     Atomic     Atomic              Coordinates (Angstroms)
 Number     Number      Type              X           Y           Z
 ---------------------------------------------------------------------
    1          7             0       -0.716425   -0.899262    0.000000
    2          7             0       -1.093770    0.292004    0.000000
    3          7             0        0.000000    1.038919    0.000000
    4          1             0       -0.060694    2.029637    0.000000
    5          7             0        0.620231   -0.990586    0.000000
    6          6             0        1.052591    0.223637    0.000000
    7          1             0        2.074891    0.541008    0.000000
 ---------------------------------------------------------------------
 Rotational constants (GHZ):     10.9382769     10.7456823      5.4205621
 Isotopes: N-14,N-14,N-14,H-1,N-14,C-12,H-1
 Standard basis: 6-31(d') (6D, 7F)
 There are    59 symmetry adapted basis functions of A'  symmetry.
 There are    20 symmetry adapted basis functions of A"  symmetry.
 Crude estimate of integral set expansion from redundant integrals=1.000.
 Integral buffers will be    262144 words long.
 Raffenetti 1 integral format.
 Two-electron integral symmetry is turned on.
    79 basis functions      148 primitive gaussians
    18 alpha electrons       18 beta electrons
       nuclear repulsion energy       169.9502740681 Hartrees.
 One-electron integrals computed using PRISM.
 NBasis=    79 RedAO= T  NBF=    59    20
 NBsUse=    79 1.00D-04 NBFU=    59    20
 Initial guess read from the read-write file:
 Initial guess orbital symmetries:
       Occupied  (A') (A') (A') (A') (A') (A') (A') (A') (A') (A')
                 (A') (A") (A') (A') (A') (A') (A") (A")
       Virtual   (A") (A') (A") (A') (A') (A') (A') (A') (A') (A')
                 (A") (A') (A') (A') (A") (A') (A') (A") (A') (A")
                 (A') (A') (A") (A') (A') (A') (A') (A') (A") (A')
                 (A") (A') (A') (A") (A') (A") (A") (A') (A') (A')
                 (A') (A') (A") (A') (A") (A') (A") (A") (A') (A')
                 (A') (A") (A') (A') (A') (A') (A') (A') (A') (A')
                 (A')
 Requested convergence on RMS density matrix=1.00D-08 within  64 cycles.
 Requested convergence on MAX density matrix=1.00D-06.
 Keep R1 integrals in memory in canonical form, NReq=     5449697.
 SCF Done:  E(RHF) =  -256.752996345     A.U. after    9 cycles
             Convg  =    0.4924D-08             -V/T =  2.0014
             S**2   =   0.0000
 ***** Axes restored to original set *****
 -------------------------------------------------------------------
 Center     Atomic                   Forces (Hartrees/Bohr)
 Number     Number              X              Y              Z
 -------------------------------------------------------------------
    1          7          -0.000180826   -0.000033053    0.000000000
    2          7           0.000127155   -0.000090695    0.000000000
    3          7           0.000075270    0.000166038    0.000000000
    4          1           0.000022137    0.000013669    0.000000000
    5          7           0.000061802   -0.000043897    0.000000000
    6          6          -0.000088427   -0.000040044    0.000000000
    7          1          -0.000017111    0.000027981    0.000000000
 -------------------------------------------------------------------
 Cartesian Forces:  Max     0.000180826 RMS     0.000071827

 GradGradGradGradGradGradGradGradGradGradGradGradGradGradGradGradGradGrad
 Berny optimization.
 Internal  Forces:  Max     0.000132611 RMS     0.000050542
 Search for a local minimum.
 Step number   4 out of a maximum of  36
 All quantities printed in internal units (Hartrees-Bohrs-Radians)
 Update second derivatives using information from points  1  2  3  4
 Trust test= 9.54D-01 RLast= 2.26D-03 DXMaxT set to 3.00D-01
     Eigenvalues ---    0.02505   0.02640   0.02674   0.02834   0.15793
     Eigenvalues ---    0.16031   0.26019   0.38894   0.43833   0.49171
     Eigenvalues ---    0.51243   0.58505   0.62643   0.69916   0.79476
     Eigenvalues --- 1000.000001000.000001000.000001000.000001000.00000
     Eigenvalues --- 1000.000001000.000001000.000001000.000001000.00000
     Eigenvalues --- 1000.00000
 RFO step:  Lambda=-2.06902989D-07.
 Quartic linear search produced a step of -0.04420.
 Iteration  1 RMS(Cart)=  0.00018101 RMS(Int)=  0.00000002
 Iteration  2 RMS(Cart)=  0.00000002 RMS(Int)=  0.00000000
 Variable       Old X    -DE/DX   Delta X   Delta X   Delta X     New X
                                 (Linear)    (Quad)   (Total)
    R1        2.36140   0.00007  -0.00002   0.00015   0.00013   2.36153
    R2        2.53180   0.00004  -0.00002   0.00014   0.00013   2.53193
    R3        2.50288  -0.00002   0.00000  -0.00002  -0.00002   2.50286
    R4        1.87570   0.00002  -0.00002   0.00012   0.00010   1.87579
    R5        2.51599   0.00003  -0.00001   0.00011   0.00009   2.51608
    R6        2.43567   0.00002   0.00000   0.00000   0.00001   2.43568
    R7        2.02282  -0.00003   0.00004  -0.00021  -0.00017   2.02265
    A1        1.94577  -0.00010  -0.00005  -0.00018  -0.00023   1.94554
    A2        1.86318   0.00013   0.00004   0.00035   0.00040   1.86358
    A3        2.10875   0.00006   0.00001   0.00023   0.00024   2.10900
    A4        1.88342  -0.00011  -0.00001  -0.00040  -0.00041   1.88301
    A5        2.29101   0.00004   0.00000   0.00017   0.00016   2.29117
    A6        1.84466   0.00000   0.00004  -0.00013  -0.00009   1.84457
    A7        1.88774   0.00008  -0.00003   0.00036   0.00033   1.88808
    A8        2.18155  -0.00006   0.00001  -0.00030  -0.00028   2.18127
    A9        2.21389  -0.00002   0.00002  -0.00006  -0.00005   2.21384
    D1        0.00000   0.00000   0.00000   0.00000   0.00000   0.00000
    D2        0.00000   0.00000   0.00000   0.00000   0.00000   0.00000
    D3        3.14159   0.00000   0.00000   0.00000   0.00000   3.14159
    D4        0.00000   0.00000   0.00000   0.00000   0.00000   0.00000
    D5        0.00000   0.00000   0.00000   0.00000   0.00000   0.00000
    D6        3.14159   0.00000   0.00000   0.00000   0.00000   3.14159
    D7        3.14159   0.00000   0.00000   0.00000   0.00000   3.14159
    D8        0.00000   0.00000   0.00000   0.00000   0.00000   0.00000
    D9        0.00000   0.00000   0.00000   0.00000   0.00000   0.00000
   D10        3.14159   0.00000   0.00000   0.00000   0.00000   3.14159
         Item               Value     Threshold  Converged?
 Maximum Force            0.000133     0.000450     YES
 RMS     Force            0.000051     0.000300     YES
 Maximum Displacement     0.000358     0.001800     YES
 RMS     Displacement     0.000181     0.001200     YES
 Predicted change in Energy=-1.063921D-07
 Optimization completed.
    -- Stationary point found.
                         ----------------------------
                         !   Optimized Parameters   !
                         ! (Angstroms and Degrees)  !
 ------------------------                            -------------------------
 ! Name  Definition              Value          Derivative Info.             !
 -----------------------------------------------------------------------------
 ! R1    R(1,2)                  1.2496         -DE/DX =    0.0001           !
 ! R2    R(1,5)                  1.3398         -DE/DX =    0.               !
 ! R3    R(2,3)                  1.3245         -DE/DX =    0.               !
 ! R4    R(3,4)                  0.9926         -DE/DX =    0.               !
 ! R5    R(3,6)                  1.3314         -DE/DX =    0.               !
 ! R6    R(5,6)                  1.2889         -DE/DX =    0.               !
 ! R7    R(6,7)                  1.0704         -DE/DX =    0.               !
 ! A1    A(2,1,5)              111.4846         -DE/DX =   -0.0001           !
 ! A2    A(1,2,3)              106.7523         -DE/DX =    0.0001           !
 ! A3    A(2,3,4)              120.8227         -DE/DX =    0.0001           !
 ! A4    A(2,3,6)              107.9121         -DE/DX =   -0.0001           !
 ! A5    A(4,3,6)              131.2652         -DE/DX =    0.               !
 ! A6    A(1,5,6)              105.6912         -DE/DX =    0.               !
 ! A7    A(3,6,5)              108.1597         -DE/DX =    0.0001           !
 ! A8    A(3,6,7)              124.9937         -DE/DX =   -0.0001           !
 ! A9    A(5,6,7)              126.8466         -DE/DX =    0.               !
 ! D1    D(5,1,2,3)              0.             -DE/DX =    0.               !
 ! D2    D(2,1,5,6)              0.             -DE/DX =    0.               !
 ! D3    D(1,2,3,4)            180.             -DE/DX =    0.               !
 ! D4    D(1,2,3,6)              0.             -DE/DX =    0.               !
 ! D5    D(2,3,6,5)              0.             -DE/DX =    0.               !
 ! D6    D(2,3,6,7)            180.             -DE/DX =    0.               !
 ! D7    D(4,3,6,5)            180.             -DE/DX =    0.               !
 ! D8    D(4,3,6,7)              0.             -DE/DX =    0.               !
 ! D9    D(1,5,6,3)              0.             -DE/DX =    0.               !
 ! D10   D(1,5,6,7)            180.             -DE/DX =    0.               !
 -----------------------------------------------------------------------------
 GradGradGradGradGradGradGradGradGradGradGradGradGradGradGradGradGradGrad

                          Input orientation:                          
 ---------------------------------------------------------------------
 Center     Atomic     Atomic              Coordinates (Angstroms)
 Number     Number      Type              X           Y           Z
 ---------------------------------------------------------------------
    1          7             0       -1.121464   -0.253483    0.000000
    2          7             0       -0.670722    0.911993    0.000000
    3          7             0        0.649857    0.810579    0.000000
    4          1             0        1.222210    1.621515    0.000000
    5          7             0       -0.135712   -1.160831    0.000000
    6          6             0        0.961134   -0.483925    0.000000
    7          1             0        1.957266   -0.875770    0.000000
 ---------------------------------------------------------------------
                    Distance matrix (angstroms):
                    1          2          3          4          5
     1  N    0.000000
     2  N    1.249602   0.000000
     3  N    2.066351   1.324467   0.000000
     4  H    3.001405   2.021537   0.992575   0.000000
     5  N    1.339772   2.140756   2.122163   3.096030   0.000000
     6  C    2.095309   2.147450   1.331402   2.121565   1.288904
     7  H    3.140990   3.178429   2.133796   2.603217   2.112301
                    6          7
     6  C    0.000000
     7  H    1.070430   0.000000
 Stoichiometry    CH2N4
 Framework group  CS[SG(CH2N4)]
 Deg. of freedom   11
 Full point group                 CS      NOp   2
 Largest Abelian subgroup         CS      NOp   2
 Largest concise Abelian subgroup C1      NOp   1
                         Standard orientation:                         
 ---------------------------------------------------------------------
 Center     Atomic     Atomic              Coordinates (Angstroms)
 Number     Number      Type              X           Y           Z
 ---------------------------------------------------------------------
    1          7             0       -0.716425   -0.899262    0.000000
    2          7             0       -1.093770    0.292004    0.000000
    3          7             0        0.000000    1.038919    0.000000
    4          1             0       -0.060694    2.029637    0.000000
    5          7             0        0.620231   -0.990586    0.000000
    6          6             0        1.052591    0.223637    0.000000
    7          1             0        2.074891    0.541008    0.000000
 ---------------------------------------------------------------------
 Rotational constants (GHZ):     10.9382769     10.7456823      5.4205621
 Isotopes: N-14,N-14,N-14,H-1,N-14,C-12,H-1

 **********************************************************************

            Population analysis using the SCF density.

 **********************************************************************

 Orbital Symmetries:
       Occupied  (A') (A') (A') (A') (A') (A') (A') (A') (A') (A')
                 (A') (A") (A') (A') (A') (A') (A") (A")
       Virtual   (A") (A') (A") (A') (A') (A') (A') (A') (A') (A')
                 (A") (A') (A') (A') (A") (A') (A') (A") (A') (A")
                 (A') (A') (A") (A') (A') (A') (A') (A') (A") (A')
                 (A") (A') (A') (A") (A') (A") (A") (A') (A') (A')
                 (A') (A') (A") (A') (A") (A') (A") (A") (A') (A')
                 (A') (A") (A') (A') (A') (A') (A') (A') (A') (A')
                 (A')
  The electronic state is 1-A'.
 Alpha  occ. eigenvalues --  -15.68360 -15.65881 -15.63855 -15.59860 -11.33607
 Alpha  occ. eigenvalues --   -1.52424  -1.26836  -1.21153  -0.91575  -0.89736
 Alpha  occ. eigenvalues --   -0.81079  -0.69024  -0.68473  -0.57305  -0.47577
 Alpha  occ. eigenvalues --   -0.46257  -0.45878  -0.42485
 Alpha virt. eigenvalues --    0.15130   0.20110   0.20247   0.25630   0.37820
 Alpha virt. eigenvalues --    0.39693   0.48781   0.51727   0.67333   0.73474
 Alpha virt. eigenvalues --    0.73762   0.82783   0.84451   0.90718   0.91720
 Alpha virt. eigenvalues --    0.91825   0.94315   0.95892   0.97141   1.04925
 Alpha virt. eigenvalues --    1.05028   1.09460   1.09639   1.13309   1.17902
 Alpha virt. eigenvalues --    1.25824   1.31542   1.34365   1.44336   1.50680
 Alpha virt. eigenvalues --    1.51433   1.68865   1.71920   1.79374   1.95266
 Alpha virt. eigenvalues --    1.96270   2.03414   2.08887   2.27757   2.35122
 Alpha virt. eigenvalues --    2.46895   2.52936   2.61138   2.71499   2.73049
 Alpha virt. eigenvalues --    2.79836   2.86091   3.00717   3.02261   3.07343
 Alpha virt. eigenvalues --    3.17384   3.18641   3.26141   3.41829   3.49641
 Alpha virt. eigenvalues --    3.56979   3.66074   4.50225   4.59758   4.98090
 Alpha virt. eigenvalues --    5.04910
          Condensed to atoms (all electrons):
              1          2          3          4          5          6
  1  N    6.669976   0.340421  -0.118159   0.005005   0.300138  -0.128499
  2  N    0.340421   6.713067   0.197960  -0.021220  -0.105995  -0.110115
  3  N   -0.118159   0.197960   6.869991   0.324252  -0.065981   0.318410
  4  H    0.005005  -0.021220   0.324252   0.284368   0.003508  -0.021834
  5  N    0.300138  -0.105995  -0.065981   0.003508   6.696134   0.487267
  6  C   -0.128499  -0.110115   0.318410  -0.021834   0.487267   4.867888
  7  H    0.003489   0.001551  -0.035067   0.000781  -0.022458   0.397418
              7
  1  N    0.003489
  2  N    0.001551
  3  N   -0.035067
  4  H    0.000781
  5  N   -0.022458
  6  C    0.397418
  7  H    0.396833
 Total atomic charges:
              1
  1  N   -0.072372
  2  N   -0.015669
  3  N   -0.491405
  4  H    0.425140
  5  N   -0.292613
  6  C    0.189466
  7  H    0.257453
 Sum of Mulliken charges=   0.00000
 Atomic charges with hydrogens summed into heavy atoms:
              1
  1  N   -0.072372
  2  N   -0.015669
  3  N   -0.066265
  4  H    0.000000
  5  N   -0.292613
  6  C    0.446919
  7  H    0.000000
 Sum of Mulliken charges=   0.00000
 Electronic spatial extent (au):  <R**2>=   244.4790
 Charge=     0.0000 electrons
 Dipole moment (Debye):
    X=     2.7059    Y=     4.9844    Z=     0.0000  Tot=     5.6716
 Quadrupole moment (Debye-Ang):
   XX=   -28.7311   YY=   -26.5670   ZZ=   -28.5209
   XY=     1.9658   XZ=     0.0000   YZ=     0.0000
 Octapole moment (Debye-Ang**2):
  XXX=    12.7873  YYY=    22.9723  ZZZ=     0.0000  XYY=    -0.6037
  XXY=     5.0002  XXZ=     0.0000  XZZ=    -0.5307  YZZ=     0.6027
  YYZ=     0.0000  XYZ=     0.0000
 Hexadecapole moment (Debye-Ang**3):
 XXXX=  -137.2085 YYYY=  -115.9621 ZZZZ=   -25.3234 XXXY=     6.8078
 XXXZ=     0.0000 YYYX=    -0.1300 YYYZ=     0.0000 ZZZX=     0.0000
 ZZZY=     0.0000 XXYY=   -52.0313 XXZZ=   -29.5423 YYZZ=   -28.1109
 XXYZ=     0.0000 YYXZ=     0.0000 ZZXY=     0.0327
 N-N= 1.699502740681D+02 E-N=-9.411718262690D+02  KE= 2.563925708080D+02
 Symmetry A'   KE= 2.473625759487D+02
 Symmetry A"   KE= 9.029994859299D+00
 1\1\GINC-INDIUM\FOpt\RHF\6-31(d')\C1H2N4\RDJ3\22-Nov-2000\0\\#CBS-Q\\1
 H tetrazole c CH-NH-N=N-N= casno=288948\\0,1\N,-1.1214643191,-0.253483
 16,0.\N,-0.6707215716,0.9119934061,0.\N,0.6498574504,0.810578664,0.\H,
 1.2222103892,1.6215152011,0.\N,-0.1357115248,-1.1608313465,0.\C,0.9611
 339223,-0.4839247712,0.\H,1.9572658336,-0.8757695191,0.\\Version=IBM-R
 S6000-G98RevA.6\State=1-A'\HF=-256.7529963\RMSD=4.924e-09\RMSF=7.183e-
 05\Dipole=2.0572516,0.8640963,0.\PG=CS [SG(C1H2N4)]\\@


 NO SCIENCE HAS EVER MADE MORE RAPID PROGRESS IN A
 SHORTER TIME THAN CHEMISTRY.
   -- MARTIN HEINRICH KLOPROTH, 1791
 (FIRST PROFESSOR OF CHEMISTRY AT THE UNIVERSITY OF BERLIN)
 Job cpu time:  0 days  0 hours  2 minutes  4.1 seconds.
 File lengths (MBytes):  RWF=    6 Int=    0 D2E=    0 Chk=    3 Scr=    1
 Normal termination of Gaussian 98.
 Link1:  Proceeding to internal job step number  2.
 -----------------------------------------------
 #N Geom=AllCheck Guess=TCheck HF/6-31G(d') Freq
 -----------------------------------------------
 1/10=4,29=7,30=1,38=1/1,3;
 2//2;
 3/5=11,6=6,7=1,11=9,25=1,30=1/1,2,3;
 4/5=101/1;
 5/5=2/2;
 8/6=4,11=11/1;
 10/13=10/2;
 11/6=2,8=1,9=11,15=111,16=11/1,2,10;
 10/6=1/2;
 6/7=2,8=2,9=2,10=2,18=1,28=1/1;
 7/8=1,10=1,25=1/1,2,3,16;
 1/10=4,30=1/3;
 99//99;
 ----------------------------------------
 1H tetrazole c CH-NH-N=N-N= casno=288948
 ----------------------------------------
 Redundant internal coordinates taken from checkpointfile:
 /wrk/rdj3/Gau-18660.chk
 Charge =  0 Multiplicity = 1
 N,0,-1.1214643191,-0.25348316,0.
 N,0,-0.6707215716,0.9119934061,0.
 N,0,0.6498574504,0.810578664,0.
 H,0,1.2222103892,1.6215152011,0.
 N,0,-0.1357115248,-1.1608313465,0.
 C,0,0.9611339223,-0.4839247712,0.
 H,0,1.9572658336,-0.8757695191,0.
 Recover connectivity data from disk.

 GradGradGradGradGradGradGradGradGradGradGradGradGradGradGradGradGradGrad
 Berny optimization.
 Initialization pass.
                         ----------------------------
                         !    Initial Parameters    !
                         ! (Angstroms and Degrees)  !
 ------------------------                            -------------------------
 ! Name  Definition              Value          Derivative Info.             !
 -----------------------------------------------------------------------------
 ! R1    R(1,2)                  1.2496         calculate D2E/DX2 analyticall!
 ! R2    R(1,5)                  1.3398         calculate D2E/DX2 analyticall!
 ! R3    R(2,3)                  1.3245         calculate D2E/DX2 analyticall!
 ! R4    R(3,4)                  0.9926         calculate D2E/DX2 analyticall!
 ! R5    R(3,6)                  1.3314         calculate D2E/DX2 analyticall!
 ! R6    R(5,6)                  1.2889         calculate D2E/DX2 analyticall!
 ! R7    R(6,7)                  1.0704         calculate D2E/DX2 analyticall!
 ! A1    A(2,1,5)              111.4846         calculate D2E/DX2 analyticall!
 ! A2    A(1,2,3)              106.7523         calculate D2E/DX2 analyticall!
 ! A3    A(2,3,4)              120.8227         calculate D2E/DX2 analyticall!
 ! A4    A(2,3,6)              107.9121         calculate D2E/DX2 analyticall!
 ! A5    A(4,3,6)              131.2652         calculate D2E/DX2 analyticall!
 ! A6    A(1,5,6)              105.6912         calculate D2E/DX2 analyticall!
 ! A7    A(3,6,5)              108.1597         calculate D2E/DX2 analyticall!
 ! A8    A(3,6,7)              124.9937         calculate D2E/DX2 analyticall!
 ! A9    A(5,6,7)              126.8466         calculate D2E/DX2 analyticall!
 ! D1    D(5,1,2,3)              0.             calculate D2E/DX2 analyticall!
 ! D2    D(2,1,5,6)              0.             calculate D2E/DX2 analyticall!
 ! D3    D(1,2,3,4)            180.             calculate D2E/DX2 analyticall!
 ! D4    D(1,2,3,6)              0.             calculate D2E/DX2 analyticall!
 ! D5    D(2,3,6,5)              0.             calculate D2E/DX2 analyticall!
 ! D6    D(2,3,6,7)            180.             calculate D2E/DX2 analyticall!
 ! D7    D(4,3,6,5)            180.             calculate D2E/DX2 analyticall!
 ! D8    D(4,3,6,7)              0.             calculate D2E/DX2 analyticall!
 ! D9    D(1,5,6,3)              0.             calculate D2E/DX2 analyticall!
 ! D10   D(1,5,6,7)            180.             calculate D2E/DX2 analyticall!
 -----------------------------------------------------------------------------
 Trust Radius=3.00D-01 FncErr=1.00D-07 GrdErr=1.00D-07
 Number of steps in this run=  36 maximum allowed number of steps= 100.
 GradGradGradGradGradGradGradGradGradGradGradGradGradGradGradGradGradGrad

                          Input orientation:                          
 ---------------------------------------------------------------------
 Center     Atomic     Atomic              Coordinates (Angstroms)
 Number     Number      Type              X           Y           Z
 ---------------------------------------------------------------------
    1          7             0       -1.121464   -0.253483    0.000000
    2          7             0       -0.670722    0.911993    0.000000
    3          7             0        0.649857    0.810579    0.000000
    4          1             0        1.222210    1.621515    0.000000
    5          7             0       -0.135712   -1.160831    0.000000
    6          6             0        0.961134   -0.483925    0.000000
    7          1             0        1.957266   -0.875770    0.000000
 ---------------------------------------------------------------------
                    Distance matrix (angstroms):
                    1          2          3          4          5
     1  N    0.000000
     2  N    1.249602   0.000000
     3  N    2.066351   1.324467   0.000000
     4  H    3.001405   2.021537   0.992575   0.000000
     5  N    1.339772   2.140756   2.122163   3.096030   0.000000
     6  C    2.095309   2.147450   1.331402   2.121565   1.288904
     7  H    3.140990   3.178429   2.133796   2.603217   2.112301
                    6          7
     6  C    0.000000
     7  H    1.070430   0.000000
                           Interatomic angles:
       N1-N2-N3=106.7523       N1-N2-H4=131.6911       N1-N3-H4=156.2081
       N2-N3-H4=120.8227       N2-N1-N5=111.4846       N3-N1-N5= 73.6223
       N2-N3-N5= 72.6651       H4-N1-N5= 81.2891       H4-N2-N5= 96.0748
       H4-N3-N5=166.5122       N2-N1-C6= 75.1704       N1-N3-C6= 72.5267
       N2-N3-C6=107.9121       N1-C6-H4= 90.7545       N2-H4-C6= 62.384 
       H4-N3-C6=131.2652       N1-N5-C6=105.6912       N2-N5-C6= 72.7922
       N3-C6-N5=108.1597       H4-C6-N5=128.749        N1-N3-H7= 96.7921
       N2-N3-H7=132.1775       N1-H4-H7= 67.7407       N2-H4-H7= 85.854 
       H4-N3-H7=106.9998       N1-N5-H7=129.6157       N2-N5-H7= 96.7166
       N3-N5-H7= 60.5178       H4-H7-N5= 81.3546       N1-C6-H7=164.8411
       N2-C6-H7=160.9287       N3-C6-H7=124.9937       H4-C6-H7=104.4044
       N5-C6-H7=126.8466
 Stoichiometry    CH2N4
 Framework group  CS[SG(CH2N4)]
 Deg. of freedom   11
 Full point group                 CS      NOp   2
 Largest Abelian subgroup         CS      NOp   2
 Largest concise Abelian subgroup C1      NOp   1
                         Standard orientation:                         
 ---------------------------------------------------------------------
 Center     Atomic     Atomic              Coordinates (Angstroms)
 Number     Number      Type              X           Y           Z
 ---------------------------------------------------------------------
    1          7             0       -0.716425   -0.899262    0.000000
    2          7             0       -1.093770    0.292004    0.000000
    3          7             0        0.000000    1.038919    0.000000
    4          1             0       -0.060694    2.029637    0.000000
    5          7             0        0.620231   -0.990586    0.000000
    6          6             0        1.052591    0.223637    0.000000
    7          1             0        2.074891    0.541008    0.000000
 ---------------------------------------------------------------------
 Rotational constants (GHZ):     10.9382769     10.7456823      5.4205621
 Isotopes: N-14,N-14,N-14,H-1,N-14,C-12,H-1
 Standard basis: 6-31(d') (6D, 7F)
 There are    59 symmetry adapted basis functions of A'  symmetry.
 There are    20 symmetry adapted basis functions of A"  symmetry.
 Crude estimate of integral set expansion from redundant integrals=1.000.
 Integral buffers will be    262144 words long.
 Raffenetti 1 integral format.
 Two-electron integral symmetry is turned on.
    79 basis functions      148 primitive gaussians
    18 alpha electrons       18 beta electrons
       nuclear repulsion energy       169.9502740681 Hartrees.
 One-electron integrals computed using PRISM.
 NBasis=    79 RedAO= T  NBF=    59    20
 NBsUse=    79 1.00D-04 NBFU=    59    20
 Initial guess read from the checkpoint file:
 /wrk/rdj3/Gau-18660.chk
 Initial guess orbital symmetries:
       Occupied  (A') (A') (A') (A') (A') (A') (A') (A') (A') (A')
                 (A') (A") (A') (A') (A') (A') (A") (A")
       Virtual   (A") (A') (A") (A') (A') (A') (A') (A') (A') (A')
                 (A") (A') (A') (A') (A") (A') (A') (A") (A') (A")
                 (A') (A') (A") (A') (A') (A') (A') (A') (A") (A')
                 (A") (A') (A') (A") (A') (A") (A") (A') (A') (A')
                 (A') (A') (A") (A') (A") (A') (A") (A") (A') (A')
                 (A') (A") (A') (A') (A') (A') (A') (A') (A') (A')
                 (A')
 Requested convergence on RMS density matrix=1.00D-08 within  64 cycles.
 Requested convergence on MAX density matrix=1.00D-06.
 Keep R1 integrals in memory in canonical form, NReq=     5449697.
 SCF Done:  E(RHF) =  -256.752996345     A.U. after    1 cycles
             Convg  =    0.1754D-08             -V/T =  2.0014
             S**2   =   0.0000
 Range of M.O.s used for correlation:     1    79
 NBasis=    79 NAE=    18 NBE=    18 NFC=     0 NFV=     0
 NROrb=     79 NOA=    18 NOB=    18 NVA=    61 NVB=    61
          Differentiating once with respect to electric field.
                with respect to dipole field.
          Store integrals in memory, NReq=     5434724.
          There are   3 degrees of freedom in the 1st order CPHF.
   3 vectors were produced by pass  0.
 AX will form   3 AO Fock derivatives at one time.
   3 vectors were produced by pass  1.
   3 vectors were produced by pass  2.
   3 vectors were produced by pass  3.
   3 vectors were produced by pass  4.
   3 vectors were produced by pass  5.
   3 vectors were produced by pass  6.
   3 vectors were produced by pass  7.
   3 vectors were produced by pass  8.
   3 vectors were produced by pass  9.
   2 vectors were produced by pass 10.
   1 vectors were produced by pass 11.
 Inv2:  IOpt= 1 Iter= 1 AM= 4.24D-16 Conv= 1.00D-12.
 Inverted reduced A of dimension  33 with in-core refinement.
 G2DrvN: will do    7 atoms at a time, making    1 passes doing MaxLOS=2.
 FoFDir used for L=0 through L=2.
          Differentiating once with respect to electric field.
                with respect to dipole field.
          Differentiating once with respect to nuclear coordinates.
          Store integrals in memory, NReq=     5434786.
          There are  24 degrees of freedom in the 1st order CPHF.
  21 vectors were produced by pass  0.
 AX will form  21 AO Fock derivatives at one time.
  21 vectors were produced by pass  1.
  21 vectors were produced by pass  2.
  21 vectors were produced by pass  3.
  21 vectors were produced by pass  4.
  21 vectors were produced by pass  5.
  20 vectors were produced by pass  6.
  10 vectors were produced by pass  7.
   2 vectors were produced by pass  8.
 Inv2:  IOpt= 1 Iter= 1 AM= 1.72D-15 Conv= 1.00D-12.
 Inverted reduced A of dimension 158 with in-core refinement.

 **********************************************************************

            Population analysis using the SCF density.

 **********************************************************************

 Orbital Symmetries:
       Occupied  (A') (A') (A') (A') (A') (A') (A') (A') (A') (A')
                 (A') (A") (A') (A') (A') (A') (A") (A")
       Virtual   (A") (A') (A") (A') (A') (A') (A') (A') (A') (A')
                 (A") (A') (A') (A') (A") (A') (A') (A") (A') (A")
                 (A') (A') (A") (A') (A') (A') (A') (A') (A") (A')
                 (A") (A') (A') (A") (A') (A") (A") (A') (A') (A')
                 (A') (A') (A") (A') (A") (A') (A") (A") (A') (A')
                 (A') (A") (A') (A') (A') (A') (A') (A') (A') (A')
                 (A')
  The electronic state is 1-A'.
 Alpha  occ. eigenvalues --  -15.68360 -15.65881 -15.63855 -15.59860 -11.33607
 Alpha  occ. eigenvalues --   -1.52424  -1.26836  -1.21153  -0.91575  -0.89736
 Alpha  occ. eigenvalues --   -0.81079  -0.69024  -0.68473  -0.57305  -0.47577
 Alpha  occ. eigenvalues --   -0.46257  -0.45878  -0.42485
 Alpha virt. eigenvalues --    0.15130   0.20110   0.20247   0.25630   0.37820
 Alpha virt. eigenvalues --    0.39693   0.48781   0.51727   0.67333   0.73474
 Alpha virt. eigenvalues --    0.73762   0.82783   0.84451   0.90718   0.91720
 Alpha virt. eigenvalues --    0.91825   0.94315   0.95892   0.97141   1.04925
 Alpha virt. eigenvalues --    1.05028   1.09460   1.09639   1.13309   1.17902
 Alpha virt. eigenvalues --    1.25824   1.31542   1.34365   1.44336   1.50680
 Alpha virt. eigenvalues --    1.51433   1.68865   1.71920   1.79374   1.95266
 Alpha virt. eigenvalues --    1.96270   2.03414   2.08887   2.27757   2.35122
 Alpha virt. eigenvalues --    2.46895   2.52936   2.61138   2.71499   2.73049
 Alpha virt. eigenvalues --    2.79836   2.86091   3.00717   3.02261   3.07343
 Alpha virt. eigenvalues --    3.17384   3.18641   3.26141   3.41829   3.49641
 Alpha virt. eigenvalues --    3.56979   3.66074   4.50225   4.59758   4.98090
 Alpha virt. eigenvalues --    5.04910
          Condensed to atoms (all electrons):
              1          2          3          4          5          6
  1  N    6.669976   0.340421  -0.118159   0.005005   0.300138  -0.128499
  2  N    0.340421   6.713067   0.197960  -0.021220  -0.105995  -0.110115
  3  N   -0.118159   0.197960   6.869991   0.324252  -0.065981   0.318410
  4  H    0.005005  -0.021220   0.324252   0.284368   0.003508  -0.021834
  5  N    0.300138  -0.105995  -0.065981   0.003508   6.696134   0.487267
  6  C   -0.128499  -0.110115   0.318410  -0.021834   0.487267   4.867888
  7  H    0.003489   0.001551  -0.035067   0.000781  -0.022458   0.397418
              7
  1  N    0.003489
  2  N    0.001551
  3  N   -0.035067
  4  H    0.000781
  5  N   -0.022458
  6  C    0.397418
  7  H    0.396833
 Total atomic charges:
              1
  1  N   -0.072372
  2  N   -0.015669
  3  N   -0.491405
  4  H    0.425140
  5  N   -0.292613
  6  C    0.189466
  7  H    0.257453
 Sum of Mulliken charges=   0.00000
 Atomic charges with hydrogens summed into heavy atoms:
              1
  1  N   -0.072372
  2  N   -0.015669
  3  N   -0.066265
  4  H    0.000000
  5  N   -0.292613
  6  C    0.446919
  7  H    0.000000
 Sum of Mulliken charges=   0.00000
 Electronic spatial extent (au):  <R**2>=   244.4790
 Charge=     0.0000 electrons
 Dipole moment (Debye):
    X=     2.7059    Y=     4.9844    Z=     0.0000  Tot=     5.6716
 Quadrupole moment (Debye-Ang):
   XX=   -28.7311   YY=   -26.5670   ZZ=   -28.5209
   XY=     1.9658   XZ=     0.0000   YZ=     0.0000
 Octapole moment (Debye-Ang**2):
  XXX=    12.7873  YYY=    22.9723  ZZZ=     0.0000  XYY=    -0.6037
  XXY=     5.0002  XXZ=     0.0000  XZZ=    -0.5307  YZZ=     0.6027
  YYZ=     0.0000  XYZ=     0.0000
 Hexadecapole moment (Debye-Ang**3):
 XXXX=  -137.2085 YYYY=  -115.9621 ZZZZ=   -25.3234 XXXY=     6.8078
 XXXZ=     0.0000 YYYX=    -0.1300 YYYZ=     0.0000 ZZZX=     0.0000
 ZZZY=     0.0000 XXYY=   -52.0313 XXZZ=   -29.5423 YYZZ=   -28.1109
 XXYZ=     0.0000 YYXZ=     0.0000 ZZXY=     0.0327
 N-N= 1.699502740681D+02 E-N=-9.411718256864D+02  KE= 2.563925705942D+02
 Symmetry A'   KE= 2.473625757780D+02
 Symmetry A"   KE= 9.029994816206D+00
  Exact polarizability:  34.201   0.693  34.496   0.000   0.000  14.983
 Approx polarizability:  35.119   0.243  37.526   0.000   0.000  16.409
 Full mass-weighted force constant matrix:
 Low frequencies ---  -10.1947   -5.4069    0.0006    0.0007    0.0008    6.6663
 Low frequencies ---  630.0676  752.7669  817.6766
 Harmonic frequencies (cm**-1), IR intensities (KM/Mole),
 Raman scattering activities (A**4/AMU), Raman depolarization ratios,
 reduced masses (AMU), force constants (mDyne/A) and normal coordinates:
                     1                      2                      3
                    A"                     A"                     A"
 Frequencies --   630.0676               752.7669               817.6766
 Red. masses --     1.6455                 2.0613                 9.2830
 Frc consts  --     0.3849                 0.6882                 3.6568
 IR Inten    --   132.5973                 8.2505                 8.7128
 Raman Activ --     0.5783                 0.3246                 0.0822
 Depolar     --     0.7500                 0.7500                 0.7500
 Atom AN      X      Y      Z        X      Y      Z        X      Y      Z
   1   7     0.00   0.00   0.00     0.00   0.00   0.03     0.00   0.00   0.53
   2   7     0.00   0.00  -0.07     0.00   0.00   0.11     0.00   0.00  -0.45
   3   7     0.00   0.00   0.20     0.00   0.00  -0.11     0.00   0.00   0.14
   4   1     0.00   0.00  -0.95     0.00   0.00  -0.79     0.00   0.00   0.58
   5   7     0.00   0.00   0.03     0.00   0.00  -0.17     0.00   0.00  -0.35
   6   6     0.00   0.00  -0.07     0.00   0.00   0.18     0.00   0.00   0.09
   7   1     0.00   0.00  -0.23     0.00   0.00   0.54     0.00   0.00   0.15
                     4                      5                      6
                    A"                     A'                     A'
 Frequencies --  1003.3222              1092.9524              1114.8602
 Red. masses --     1.3769                 4.7235                 7.1875
 Frc consts  --     0.8167                 3.3244                 5.2635
 IR Inten    --     8.5971                 2.0993                 1.4608
 Raman Activ --     0.3548                 2.2661                 2.7028
 Depolar     --     0.7500                 0.5654                 0.6390
 Atom AN      X      Y      Z        X      Y      Z        X      Y      Z
   1   7     0.00   0.00   0.01     0.03   0.19   0.00     0.24  -0.10   0.00
   2   7     0.00   0.00   0.00    -0.16   0.13   0.00     0.25  -0.02   0.00
   3   7     0.00   0.00   0.03    -0.09  -0.01   0.00    -0.02   0.38   0.00
   4   1     0.00   0.00   0.04     0.44   0.02   0.00    -0.07   0.41   0.00
   5   7     0.00   0.00   0.03     0.32  -0.26   0.00    -0.11  -0.22   0.00
   6   6     0.00   0.00  -0.18    -0.13  -0.12   0.00    -0.39  -0.04   0.00
   7   1     0.00   0.00   0.98    -0.36   0.62   0.00    -0.29  -0.50   0.00
                     7                      8                      9
                    A'                     A'                     A'
 Frequencies --  1180.0715              1202.9647              1260.4449
 Red. masses --     3.4032                 2.7886                 2.4584
 Frc consts  --     2.7923                 2.3777                 2.3011
 IR Inten    --    25.2664                33.7143                18.4717
 Raman Activ --     4.9125                 2.0846                 7.8164
 Depolar     --     0.1849                 0.6759                 0.7105
 Atom AN      X      Y      Z        X      Y      Z        X      Y      Z
   1   7     0.14   0.03   0.00     0.19   0.00   0.00     0.21   0.14   0.00
   2   7     0.20   0.15   0.00    -0.20  -0.06   0.00    -0.08   0.05   0.00
   3   7    -0.08  -0.25   0.00     0.15  -0.05   0.00    -0.15  -0.06   0.00
   4   1    -0.13  -0.27   0.00     0.92  -0.01   0.00    -0.39  -0.08   0.00
   5   7    -0.16  -0.01   0.00    -0.13   0.04   0.00    -0.03   0.02   0.00
   6   6    -0.07   0.04   0.00    -0.09   0.07   0.00     0.07  -0.11   0.00
   7   1    -0.32   0.79   0.00    -0.07   0.02   0.00     0.28  -0.81   0.00
                    10                     11                     12
                    A'                     A'                     A'
 Frequencies --  1425.5864              1550.4862              1628.5039
 Red. masses --     2.8036                 5.5970                 3.3200
 Frc consts  --     3.3571                 7.9276                 5.1876
 IR Inten    --     1.4892                39.4699                11.9870
 Raman Activ --    10.2913                16.5798                 7.5922
 Depolar     --     0.1299                 0.1246                 0.6070
 Atom AN      X      Y      Z        X      Y      Z        X      Y      Z
   1   7    -0.08  -0.01   0.00    -0.03   0.39   0.00     0.02   0.03   0.00
   2   7     0.12   0.04   0.00     0.07  -0.35   0.00     0.07  -0.11   0.00
   3   7    -0.04  -0.13   0.00     0.19  -0.05   0.00    -0.17   0.12   0.00
   4   1     0.60  -0.11   0.00    -0.71  -0.13   0.00     0.67   0.19   0.00
   5   7     0.15   0.19   0.00    -0.01   0.07   0.00    -0.06   0.16   0.00
   6   6    -0.22  -0.03   0.00    -0.17  -0.07   0.00     0.12  -0.30   0.00
   7   1    -0.05  -0.70   0.00    -0.29   0.18   0.00    -0.13   0.55   0.00
                    13                     14                     15
                    A'                     A'                     A'
 Frequencies --  1722.2919              3479.2461              3935.6021
 Red. masses --     3.6964                 1.1047                 1.0852
 Frc consts  --     6.4601                 7.8788                 9.9037
 IR Inten    --    25.4268                 0.3720               137.6433
 Raman Activ --     1.6397                62.6694                62.6758
 Depolar     --     0.7069                 0.2762                 0.2868
 Atom AN      X      Y      Z        X      Y      Z        X      Y      Z
   1   7     0.07  -0.16   0.00     0.00   0.00   0.00     0.00   0.00   0.00
   2   7    -0.13   0.15   0.00     0.00   0.00   0.00     0.00   0.00   0.00
   3   7     0.18   0.02   0.00     0.00   0.00   0.00     0.01  -0.08   0.00
   4   1    -0.77  -0.04   0.00     0.01   0.02   0.00    -0.06   0.99   0.00
   5   7     0.06   0.19   0.00     0.00   0.00   0.00     0.00   0.00   0.00
   6   6    -0.11  -0.25   0.00     0.09   0.03   0.00     0.00   0.00   0.00
   7   1    -0.33   0.27   0.00    -0.95  -0.29   0.00     0.01   0.00   0.00

 -------------------
 - Thermochemistry -
 -------------------
 Temperature   298.150 Kelvin.  Pressure   1.00000 Atm.
 Atom  1 has atomic number  7 and mass  14.00307
 Atom  2 has atomic number  7 and mass  14.00307
 Atom  3 has atomic number  7 and mass  14.00307
 Atom  4 has atomic number  1 and mass   1.00783
 Atom  5 has atomic number  7 and mass  14.00307
 Atom  6 has atomic number  6 and mass  12.00000
 Atom  7 has atomic number  1 and mass   1.00783
 Molecular mass:    70.02795 amu.
 Principal axes and moments of inertia in atomic units:
                           1         2         3
     EIGENVALUES --   164.99319 167.95036 332.94354
           X            0.92224   0.38661   0.00000
           Y           -0.38661   0.92224   0.00000
           Z            0.00000   0.00000   1.00000
 THIS MOLECULE IS AN ASYMMETRIC TOP.
 ROTATIONAL SYMMETRY NUMBER  1.
 ROTATIONAL TEMPERATURES (KELVIN)      0.52495     0.51571     0.26014
 ROTATIONAL CONSTANTS (GHZ)           10.93828    10.74568     5.42056
 Zero-point vibrational energy     136355.4 (Joules/Mol)
[...]
 File lengths (MBytes):  RWF=  641 Int=    0 D2E=    0 Chk=    3 Scr=    1
 Normal termination of Gaussian 98.
 Link1:  Proceeding to internal job step number  6.
 ---------------------------------------------------------------
 #N Geom=AllCheck Guess=TCheck MP2/CBSB3 CBSExtrap=(NMin=10,Pop)
 ---------------------------------------------------------------
 1/29=7,38=1/1;
 2//2;
 3/5=12,11=9,25=1,30=1/1,2,3;
 4/5=101/1;
 5/5=2/2;
 8/10=1,41=10,43=2/1,4,3;
 6/7=2,8=2,9=2,10=2/1;
 99/5=1,9=1/99;
 ----------------------------------------
 1H tetrazole c CH-NH-N=N-N= casno=288948
 ----------------------------------------
 Redundant internal coordinates taken from checkpointfile:
 /wrk/rdj3/Gau-18660.chk
 Charge =  0 Multiplicity = 1
 N,0,-1.1493345031,-0.2763272022,0.
 N,0,-0.675335022,0.9528212908,0.
 N,0,0.6622883846,0.822657682,0.
 H,0,1.2507341118,1.6464672265,0.
 N,0,-0.14291092,-1.1902618892,0.
 C,0,0.9824496385,-0.488262325,0.
 H,0,1.9916124802,-0.8791224459,0.
 Recover connectivity data from disk.
                          Input orientation:                          
 ---------------------------------------------------------------------
 Center     Atomic     Atomic              Coordinates (Angstroms)
 Number     Number      Type              X           Y           Z
 ---------------------------------------------------------------------
    1          7             0       -1.149335   -0.276327    0.000000
    2          7             0       -0.675335    0.952821    0.000000
    3          7             0        0.662288    0.822658    0.000000
    4          1             0        1.250734    1.646467    0.000000
    5          7             0       -0.142911   -1.190262    0.000000
    6          6             0        0.982450   -0.488262    0.000000
    7          1             0        1.991612   -0.879122    0.000000
 ---------------------------------------------------------------------
                    Distance matrix (angstroms):
                    1          2          3          4          5
     1  N    0.000000
     2  N    1.317377   0.000000
     3  N    2.118902   1.343942   0.000000
     4  H    3.075300   2.047166   1.012389   0.000000
     5  N    1.359472   2.208230   2.167992   3.160582   0.000000
     6  C    2.142293   2.196582   1.349450   2.151522   1.326363
     7  H    3.198267   3.235526   2.159435   2.632015   2.157081
                    6          7
     6  C    0.000000
     7  H    1.082211   0.000000
                           Interatomic angles:
       N1-N2-N3=105.5303       N1-N2-H4=130.894        N1-N3-H4=156.7804
       N2-N3-H4=119.9802       N2-N1-N5=111.1544       N3-N1-N5= 73.4849
       N2-N3-N5= 73.7557       H4-N2-N5= 95.8537       H4-N3-N5=166.264 
       N2-N1-C6= 74.5893       N1-N3-C6= 72.4822       N2-N3-C6=109.2824
       N1-C6-H4= 91.4856       N2-H4-C6= 63.0311       H4-N3-C6=130.7374
       N1-N5-C6=105.8015       N2-C6-N5= 72.9558       N3-C6-N5=108.2314
       H4-C6-N5=129.1191       N1-N3-H7= 96.7525       N2-N3-H7=133.5527
       N2-H4-H7= 86.5432       H4-N3-H7=106.4671       N1-N5-H7=129.464 
       N2-N5-H7= 95.6587       N3-H7-N5= 60.2986       H4-H7-N5= 81.9443
       N1-C6-H7=164.5056       N2-C6-H7=160.1721       N3-C6-H7=124.8964
       H4-C6-H7=104.0088       N5-C6-H7=126.8722
 Stoichiometry    CH2N4
 Framework group  CS[SG(CH2N4)]
 Deg. of freedom   11
 Full point group                 CS      NOp   2
 Largest Abelian subgroup         CS      NOp   2
 Largest concise Abelian subgroup C1      NOp   1
                         Standard orientation:                         
 ---------------------------------------------------------------------
 Center     Atomic     Atomic              Coordinates (Angstroms)
 Number     Number      Type              X           Y           Z
 ---------------------------------------------------------------------
    1          7             0       -0.721982   -0.935985    0.000000
    2          7             0       -1.123557    0.318694    0.000000
    3          7             0        0.000000    1.056121    0.000000
    4          1             0       -0.058242    2.066833    0.000000
    5          7             0        0.635088   -1.016764    0.000000
    6          6             0        1.071459    0.235761    0.000000
    7          1             0        2.102645    0.564145    0.000000
 ---------------------------------------------------------------------
 Rotational constants (GHZ):     10.4590529     10.2175430      5.1684438
 Isotopes: N-14,N-14,N-14,H-1,N-14,C-12,H-1
 Standard basis: CBSB3 (5D, 7F)
 There are   131 symmetry adapted basis functions of A'  symmetry.
 There are    59 symmetry adapted basis functions of A"  symmetry.
 Crude estimate of integral set expansion from redundant integrals=1.000.
 Integral buffers will be    262144 words long.
 Raffenetti 1 integral format.
 Two-electron integral symmetry is turned on.
   190 basis functions      284 primitive gaussians
    18 alpha electrons       18 beta electrons
       nuclear repulsion energy       165.9004746929 Hartrees.
 One-electron integrals computed using PRISM.
 NBasis=   190 RedAO= T  NBF=   131    59
 NBsUse=   190 1.00D-04 NBFU=   131    59
 Initial guess read from the checkpoint file:
 /wrk/rdj3/Gau-18660.chk
 Initial guess orbital symmetries:
       Occupied  (A') (A') (A') (A') (A') (A') (A') (A') (A') (A')
                 (A') (A') (A") (A') (A') (A') (A") (A")
       Virtual   (A') (A') (A') (A') (A') (A') (A') (A') (A') (A')
                 (A') (A') (A') (A') (A') (A') (A') (A') (A') (A')
                 (A') (A') (A') (A') (A') (A') (A') (A') (A') (A')
                 (A') (A') (A') (A') (A') (A') (A') (A') (A') (A')
                 (A') (A') (A') (A') (A') (A') (A') (A') (A') (A')
                 (A') (A') (A') (A') (A') (A') (A') (A') (A') (A')
                 (A') (A') (A') (A') (A') (A') (A') (A') (A') (A')
                 (A') (A') (A') (A') (A') (A') (A') (A') (A') (A')
                 (A') (A') (A') (A') (A') (A') (A') (A') (A') (A')
                 (A') (A') (A') (A') (A') (A') (A') (A') (A') (A')
                 (A') (A') (A') (A') (A') (A') (A') (A') (A') (A')
                 (A') (A') (A') (A') (A') (A') (A") (A") (A") (A")
                 (A") (A") (A") (A") (A") (A") (A") (A") (A") (A")
                 (A") (A") (A") (A") (A") (A") (A") (A") (A") (A")
                 (A") (A") (A") (A") (A") (A") (A") (A") (A") (A")
                 (A") (A") (A") (A") (A") (A") (A") (A") (A") (A")
                 (A") (A") (A") (A") (A") (A") (A") (A") (A") (A")
                 (A") (A")
 Requested convergence on RMS density matrix=1.00D-08 within  64 cycles.
 Requested convergence on MAX density matrix=1.00D-06.
 SCF Done:  E(RHF) =  -256.832223360     A.U. after   13 cycles
             Convg  =    0.5380D-08             -V/T =  2.0024
             S**2   =   0.0000
 Range of M.O.s used for correlation:     6   190
 NBasis=   190 NAE=    18 NBE=    18 NFC=     5 NFV=     0
 NROrb=    185 NOA=    13 NOB=    13 NVA=   172 NVB=   172

 **** Warning!!: The largest alpha MO coefficient is  0.42460277D+02

 Semi-Direct transformation.
 ModeAB=           2 MOrb=            13 LenV=      23248619
 LASXX=      6324253 LTotXX=     6324253 LenRXX=     6324253
 LTotAB=     6565351 MaxLAS=    55844100 LenRXY=    55844100
 NonZer=    56938375 LenScr=   108656182 LnRSAI=           0
 LnScr1=           0 MaxDsk=          -1 Total=    170824535
 SrtSym=           F ITran=            3
 JobTyp=0 Pass  1:  I=   1 to  13.
 Spin components of T(2) and E(2):
     alpha-alpha T2 =       0.4295866064D-01 E2=     -0.1289362275D+00
     alpha-beta  T2 =       0.2171631301D+00 E2=     -0.7023144342D+00
     beta-beta   T2 =       0.4295866064D-01 E2=     -0.1289362275D+00
 ANorm=    0.1141525493D+01
 E2=       -0.9601868892D+00 EUMP2=       -0.25779241024929D+03

 Complete Basis Set (CBS) Extrapolation:
 M. R. Nyden and G. A. Petersson, JCP 75, 1843 (1981)
 G. A. Petersson and M. A. Al-Laham, JCP 94, 6081 (1991)
 G. A. Petersson, T. Tensfeldt, and J. A. Montgomery, JCP 94, 6091 (1991)
 J. A. Montgomery, J. W. Ochterski, and G. A. Petersson, JCP 101, 5900 (1994)
 
 Minimum Number of PNO for Extrapolation =  10
 Absolute Overlaps: IRadAn =     99302
 LocTrn: ILocal=1 LocCor=F DoCore=F.
 LocMO: Using population method
 Initial Trace= 0.13000000D+02 Initial TraceA= 0.31116792D+01
 RMSG= 0.14083908D-08
 E2(CBS)=      -1.050580 CBS-Int=       0.028953 OIii=       6.848167

 **********************************************************************

            Population analysis using the SCF density.

 **********************************************************************

 Orbital Symmetries:
       Occupied  (A') (A') (A') (A') (A') (A') (A') (A') (A') (A')
                 (A') (A') (A") (A') (A') (A') (A") (A")
       Virtual   (A') (A') (A") (A') (A') (A") (A') (A') (A") (A')
                 (A') (A") (A") (A') (A') (A') (A') (A") (A') (A")
                 (A') (A') (A') (A') (A') (A') (A') (A') (A') (A')
                 (A') (A') (A") (A") (A') (A') (A') (A') (A') (A")
                 (A') (A') (A") (A') (A") (A") (A') (A') (A') (A")
                 (A") (A") (A') (A') (A') (A") (A') (A') (A') (A')
                 (A") (A") (A') (A') (A") (A') (A') (A") (A') (A')
                 (A") (A') (A') (A') (A") (A') (A') (A") (A') (A')
                 (A') (A') (A') (A') (A') (A") (A") (A') (A') (A")
                 (A") (A') (A') (A") (A') (A") (A') (A") (A") (A')
                 (A") (A') (A') (A") (A') (A") (A') (A') (A') (A')
                 (A") (A') (A") (A') (A") (A') (A") (A") (A') (A')
                 (A') (A') (A') (A") (A') (A') (A') (A') (A") (A")
                 (A') (A") (A") (A') (A') (A") (A") (A") (A') (A')
                 (A") (A") (A') (A") (A') (A") (A") (A') (A") (A')
                 (A") (A') (A') (A") (A') (A') (A') (A') (A') (A')
                 (A') (A') (A') (A') (A') (A') (A') (A') (A') (A')
                 (A') (A')
  The electronic state is 1-A'.
 Alpha  occ. eigenvalues --  -15.68796 -15.66743 -15.65274 -15.61069 -11.34227
 Alpha  occ. eigenvalues --   -1.48788  -1.25940  -1.18663  -0.91052  -0.88984
 Alpha  occ. eigenvalues --   -0.79772  -0.67676  -0.67555  -0.56896  -0.48740
 Alpha  occ. eigenvalues --   -0.47429  -0.45882  -0.41461
 Alpha virt. eigenvalues --    0.02416   0.04953   0.08679   0.09523   0.11411
 Alpha virt. eigenvalues --    0.12468   0.14886   0.16729   0.16784   0.18814
 Alpha virt. eigenvalues --    0.19567   0.20210   0.21770   0.22935   0.24410
 Alpha virt. eigenvalues --    0.27411   0.27837   0.28270   0.29961   0.30140
 Alpha virt. eigenvalues --    0.31284   0.32277   0.33532   0.39049   0.40050
 Alpha virt. eigenvalues --    0.41536   0.42159   0.44647   0.53941   0.57694
 Alpha virt. eigenvalues --    0.63626   0.65873   0.67391   0.72848   0.74313
 Alpha virt. eigenvalues --    0.76338   0.81541   0.84440   0.87426   0.88881
 Alpha virt. eigenvalues --    0.93797   0.94023   0.95396   0.97359   0.97838
 Alpha virt. eigenvalues --    0.98946   1.01312   1.03999   1.04658   1.05422
 Alpha virt. eigenvalues --    1.06632   1.12262   1.12632   1.18082   1.20938
 Alpha virt. eigenvalues --    1.22274   1.23251   1.30506   1.35658   1.37433
 Alpha virt. eigenvalues --    1.43418   1.48913   1.50982   1.53534   1.61362
 Alpha virt. eigenvalues --    1.61582   1.68863   1.72099   1.76047   1.84234
 Alpha virt. eigenvalues --    1.94222   1.95408   1.96925   2.00246   2.01653
 Alpha virt. eigenvalues --    2.07747   2.11402   2.12413   2.16818   2.25190
 Alpha virt. eigenvalues --    2.26942   2.37367   2.42451   2.54647   2.87576
 Alpha virt. eigenvalues --    3.06964   3.07520   3.18645   3.21854   3.22892
 Alpha virt. eigenvalues --    3.33720   3.36438   3.46269   3.50207   3.55097
 Alpha virt. eigenvalues --    3.57059   3.59278   3.62285   3.62616   3.68244
 Alpha virt. eigenvalues --    3.72404   3.74428   3.76919   3.82980   3.85311
 Alpha virt. eigenvalues --    3.89982   3.94516   4.00651   4.02989   4.09588
 Alpha virt. eigenvalues --    4.15843   4.18870   4.18920   4.20052   4.21070
 Alpha virt. eigenvalues --    4.24570   4.26494   4.27457   4.28734   4.38416
 Alpha virt. eigenvalues --    4.41825   4.44750   4.50492   4.50701   4.56476
 Alpha virt. eigenvalues --    4.59336   4.69048   4.73982   4.94790   5.14490
 Alpha virt. eigenvalues --    5.18298   5.23986   5.26226   5.27020   5.30472
 Alpha virt. eigenvalues --    5.30532   5.37340   5.37968   5.38981   5.46771
 Alpha virt. eigenvalues --    5.46885   5.50671   5.51557   5.57026   5.58392
 Alpha virt. eigenvalues --    5.58393   5.64995   5.69191   5.70852   5.75603
 Alpha virt. eigenvalues --    5.81408   5.86891   5.90031   5.93345   6.04868
 Alpha virt. eigenvalues --    6.09317   6.16394   6.23882   6.31616   6.32587
 Alpha virt. eigenvalues --    6.41983   6.55968   6.66496   6.85233   6.96614
 Alpha virt. eigenvalues --    7.12833   7.45165  25.78042  37.11718  37.29288
 Alpha virt. eigenvalues --   37.32209  37.35669
          Condensed to atoms (all electrons):
              1          2          3          4          5          6
  1  N    6.304212   0.438610  -0.063656   0.001919   0.319514   0.001979
  2  N    0.438610   6.518976   0.212811  -0.022509   0.009963  -0.131276
  3  N   -0.063656   0.212811   6.351374   0.414777  -0.024275   0.270359
  4  H    0.001919  -0.022509   0.414777   0.433567   0.006159  -0.055176
  5  N    0.319514   0.009963  -0.024275   0.006159   6.730642   0.289878
  6  C    0.001979  -0.131276   0.270359  -0.055176   0.289878   5.109622
  7  H   -0.001234   0.017669  -0.037620  -0.001139  -0.018481   0.411095
              7
  1  N   -0.001234
  2  N    0.017669
  3  N   -0.037620
  4  H   -0.001139
  5  N   -0.018481
  6  C    0.411095
  7  H    0.472875
 Total atomic charges:
              1
  1  N   -0.001344
  2  N   -0.044244
  3  N   -0.123770
  4  H    0.222403
  5  N   -0.313400
  6  C    0.103520
  7  H    0.156835
 Sum of Mulliken charges=   0.00000
 Atomic charges with hydrogens summed into heavy atoms:
              1
  1  N   -0.001344
  2  N   -0.044244
  3  N    0.098633
  4  H    0.000000
  5  N   -0.313400
  6  C    0.260355
  7  H    0.000000
 Sum of Mulliken charges=   0.00000
 Electronic spatial extent (au):  <R**2>=   254.0453
 Charge=     0.0000 electrons
 Dipole moment (Debye):
    X=     2.7490    Y=     4.9669    Z=     0.0000  Tot=     5.6769
 Quadrupole moment (Debye-Ang):
   XX=   -29.0713   YY=   -26.7043   ZZ=   -29.2757
   XY=     2.1091   XZ=     0.0000   YZ=     0.0000
 Octapole moment (Debye-Ang**2):
  XXX=    13.5041  YYY=    24.0013  ZZZ=     0.0000  XYY=    -0.6440
  XXY=     5.2884  XXZ=     0.0000  XZZ=    -0.4773  YZZ=     0.8231
  YYZ=     0.0000  XYZ=     0.0000
 Hexadecapole moment (Debye-Ang**3):
 XXXX=  -145.9630 YYYY=  -124.5272 ZZZZ=   -28.4789 XXXY=     8.3405
 XXXZ=     0.0000 YYYX=     0.3407 YYYZ=     0.0000 ZZZX=     0.0000
 ZZZY=     0.0000 XXYY=   -55.9520 XXZZ=   -32.2422 YYZZ=   -30.7454
 XXYZ=     0.0000 YYXZ=     0.0000 ZZXY=     0.2087
 N-N= 1.659004746929D+02 E-N=-9.331808449129D+02  KE= 2.562144005712D+02
 Symmetry A'   KE= 2.473129473159D+02
 Symmetry A"   KE= 8.901453255281D+00
 1\1\GINC-INDIUM\SP\RMP2-FC\CBSB3\C1H2N4\RDJ3\22-Nov-2000\0\\#N GEOM=AL
 LCHECK GUESS=TCHECK MP2/CBSB3 CBSEXTRAP=(NMIN=10,POP)\\1H tetrazole c 
 CH-NH-N=N-N= casno=288948\\0,1\N,-1.1493345031,-0.2763272022,0.\N,-0.6
 75335022,0.9528212908,0.\N,0.6622883846,0.822657682,0.\H,1.2507341118,
 1.6464672265,0.\N,-0.14291092,-1.1902618892,0.\C,0.9824496385,-0.48826
 2325,0.\H,1.9916124802,-0.8791224459,0.\\Version=IBM-RS6000-G98RevA.6\
 State=1-A'\HF=-256.8322234\MP2=-257.7924102\E2(CBS)=-1.0505799\CBS-Int
 =-1.0216265\OIii=6.8481669\RMSD=5.380e-09\PG=CS [SG(C1H2N4)]\\@


 ... IT IS NO ONE DREAME THAT
     CAN PLEASE THESE ALL ...

                -- BEN JONSON

 Complete Basis Set (CBS) Extrapolation:
 M. R. Nyden and G. A. Petersson, JCP 75, 1843 (1981)
 G. A. Petersson and M. A. Al-Laham, JCP 94, 6081 (1991)
 G. A. Petersson, T. Tensfeldt, and J. A. Montgomery, JCP 94, 6091 (1991)
 J. A. Montgomery, J. W. Ochterski, and G. A. Petersson, JCP 101, 5900 (1994)

 Temperature=            298.150000 Pressure=                    1.000000
 E(ZPE)=                   0.047699 E(Thermal)=                  0.051130
 E(SCF)=                -256.832223 DE(MP2)=                    -0.960187
 DE(CBS)=                 -0.090393 DE(MP34)=                   -0.005403
 DE(QCI)=                 -0.037709 DE(Int)=                     0.028953
 DE(Empirical)=           -0.036501
 CBS-Q (0 K)=           -257.885763 CBS-Q Energy=             -257.882332
 CBS-Q Enthalpy=        -257.881388 CBS-Q Free Energy=        -257.911794
 1\1\GINC-INDIUM\Mixed\CBS-Q\CBS-Q\C1H2N4\RDJ3\22-Nov-2000\0\\#CBS-Q\\1
 H tetrazole c CH-NH-N=N-N= casno=288948\\0,1\N,-1.1493345031,-0.276327
 2022,0.\N,-0.675335022,0.9528212908,0.\N,0.6622883846,0.822657682,0.\H
 ,1.2507341118,1.6464672265,0.\N,-0.14291092,-1.1902618892,0.\C,0.98244
 96385,-0.488262325,0.\H,1.9916124802,-0.8791224459,0.\\Version=IBM-RS6
 000-G98RevA.6\State=1-A'\HF/CbsB3=-256.8322234\MP2/CbsB3=-257.7924102\
 E2(CBS)/CbsB3=-1.0505799\CBS-Int/CbsB3=0.0289534\OIii/CbsB3=6.8481669\
 MP2/CbsB4=-257.570685\MP4(SDQ)/CbsB4=-257.5760879\MP4(SDQ)/6-31+G(d')=
 -257.5594695\QCISD(T)/6-31+G(d')=-257.5971785\CBSQ=-257.8857634\FreqCo
 ord=-2.1192602691,-0.4790137152,0.,-1.267479985,1.723417641,0.,1.22805
 25128,1.5317715671,0.,2.309642736,3.0642194165,0.,-0.2564575954,-2.193
 6531638,0.,1.8162797514,-0.9144852166,0.,3.6986961123,-1.6549644203,0.
 \PG=CS [SG(C1H2N4)]\NImag=0\\0.69666531,0.13835773,0.68893876,0.,0.,0.
 15275154,-0.19495601,-0.15884971,0.,0.55742610,-0.10202673,-0.49190568
 ,0.,0.00009890,0.84531997,0.,0.,-0.12021231,0.,0.,0.14205290,-0.131180
 61,-0.13570236,0.,-0.29100860,0.02381229,0.,0.82699322,-0.03334662,-0.
 08379231,0.,0.07618182,-0.14811696,0.,0.22645019,1.09817649,0.,0.,0.03
 442639,0.,0.,-0.08358944,0.,0.,0.10982724,-0.01314807,0.00032812,0.,-0
 .00632650,-0.03937242,0.,-0.23352527,-0.19978661,0.,0.23208390,0.00827
 167,0.00422921,0.,0.00115254,0.01600882,0.,-0.21262725,-0.39873613,0.,
 0.22392764,0.39097491,0.,0.,0.00887494,0.,0.,-0.01410500,0.,0.,-0.0078
 8109,0.,0.,0.01589399,-0.21638980,0.07240697,0.,0.01320066,0.11587162,
 0.,-0.00809446,-0.14636793,0.,0.00198145,0.00105781,0.,0.61746590,0.04
 110248,-0.17572990,0.,-0.02561893,-0.14539326,0.,0.00896116,-0.0960101
 5,0.,0.00965493,-0.00719691,0.,0.12366741,0.66765490,0.,0.,-0.10888612
 ,0.,0.,0.04398172,0.,0.,0.02537842,0.,0.,0.00903155,0.,0.,0.13258227,-
 0.13735865,0.08501225,0.,-0.07886173,0.00463255,0.,-0.16994987,0.07964
 845,0.,0.01946181,-0.02254781,0.,-0.39197989,-0.17027536,0.,1.11973076
 ,-0.04530871,0.05927814,0.,0.10841293,-0.06835905,0.,0.05155196,-0.367
 20950,0.,0.00552638,-0.00483139,0.,-0.14685367,-0.26145939,0.,-0.09145
 697,0.75852270,0.,0.,0.02198829,0.,0.,0.02455103,0.,0.,-0.07748993,0.,
 0.,-0.01056692,0.,0.,-0.09800917,0.,0.,0.18265315,-0.00363217,-0.00155
 299,0.,0.00052608,-0.00301621,0.,0.00676560,-0.00277930,0.,-0.00052733
 ,0.00076539,0.,-0.01618386,0.01250830,0.,-0.36104243,0.11812808,0.,0.3
 7409412,-0.00704981,-0.00101823,0.,-0.00137755,-0.00755384,0.,0.037554
 01,-0.00431144,0.,-0.00027804,-0.00044851,0.,-0.01978222,0.01813470,0.
 ,0.11498689,-0.11594151,0.,-0.12405327,0.11113882,0.,0.,0.01105727,0.,
 0.,0.00732111,0.,0.,-0.00067158,0.,0.,-0.00124747,0.,0.,-0.00407867,0.
 ,0.,-0.04312645,0.,0.,0.03074580\\0.00018082,0.00003303,0.,-0.00012714
 ,0.00009071,0.,-0.00007527,-0.00016602,0.,-0.00002214,-0.00001367,0.,-
 0.00006180,0.00004390,0.,0.00008842,0.00004003,0.,0.00001711,-0.000027
 98,0.\\\@
 Job cpu time:  0 days  0 hours 34 minutes 20.2 seconds.
 File lengths (MBytes):  RWF= 1326 Int=    0 D2E=    0 Chk=    4 Scr=    1
 Normal termination of Gaussian 98.
