 Entering Link 1 = C:\G03W\l1.exe PID=      5864.
  
 Copyright (c) 1988,1990,1992,1993,1995,1998,2003, Gaussian, Inc.
                  All Rights Reserved.
  
 This is the Gaussian(R) 03 program.  It is based on the
 the Gaussian(R) 98 system (copyright 1998, Gaussian, Inc.),
 the Gaussian(R) 94 system (copyright 1995, Gaussian, Inc.),
 the Gaussian 92(TM) system (copyright 1992, Gaussian, Inc.),
 the Gaussian 90(TM) system (copyright 1990, Gaussian, Inc.),
 the Gaussian 88(TM) system (copyright 1988, Gaussian, Inc.),
 the Gaussian 86(TM) system (copyright 1986, Carnegie Mellon
 University), and the Gaussian 82(TM) system (copyright 1983,
 Carnegie Mellon University). Gaussian is a federally registered
 trademark of Gaussian, Inc.
  
 This software contains proprietary and confidential information,
 including trade secrets, belonging to Gaussian, Inc.
  
 This software is provided under written license and may be
 used, copied, transmitted, or stored only in accord with that
 written license.
  
 The following legend is applicable only to US Government
 contracts under DFARS:
  
                    RESTRICTED RIGHTS LEGEND
  
 Use, duplication or disclosure by the US Government is subject
 to restrictions as set forth in subparagraph (c)(1)(ii) of the
 Rights in Technical Data and Computer Software clause at DFARS
 252.227-7013.
  
 Gaussian, Inc.
 Carnegie Office Park, Building 6, Pittsburgh, PA 15106 USA
  
 The following legend is applicable only to US Government
 contracts under FAR:
  
                    RESTRICTED RIGHTS LEGEND
  
 Use, reproduction and disclosure by the US Government is subject
 to restrictions as set forth in subparagraph (c) of the
 Commercial Computer Software - Restricted Rights clause at FAR
 52.227-19.
  
 Gaussian, Inc.
 Carnegie Office Park, Building 6, Pittsburgh, PA 15106 USA
  
  
 ---------------------------------------------------------------
 Warning -- This program may not be used in any manner that
 competes with the business of Gaussian, Inc. or will provide
 assistance to any competitor of Gaussian, Inc.  The licensee
 of this program is prohibited from giving any competitor of
 Gaussian, Inc. access to this program.  By using this program,
 the user acknowledges that Gaussian, Inc. is engaged in the
 business of creating and licensing software in the field of
 computational chemistry and represents and warrants to the
 licensee that it is not a competitor of Gaussian, Inc. and that
 it will not use this program in any manner prohibited above.
 ---------------------------------------------------------------
  

 Cite this work as:
 Gaussian 03, Revision B.05,
 M. J. Frisch, G. W. Trucks, H. B. Schlegel, G. E. Scuseria, 
 M. A. Robb, J. R. Cheeseman, J. A. Montgomery, Jr., T. Vreven, 
 K. N. Kudin, J. C. Burant, J. M. Millam, S. S. Iyengar, J. Tomasi, 
 V. Barone, B. Mennucci, M. Cossi, G. Scalmani, N. Rega, 
 G. A. Petersson, H. Nakatsuji, M. Hada, M. Ehara, K. Toyota, 
 R. Fukuda, J. Hasegawa, M. Ishida, T. Nakajima, Y. Honda, O. Kitao, 
 H. Nakai, M. Klene, X. Li, J. E. Knox, H. P. Hratchian, J. B. Cross, 
 C. Adamo, J. Jaramillo, R. Gomperts, R. E. Stratmann, O. Yazyev, 
 A. J. Austin, R. Cammi, C. Pomelli, J. W. Ochterski, P. Y. Ayala, 
 K. Morokuma, G. A. Voth, P. Salvador, J. J. Dannenberg, 
 V. G. Zakrzewski, S. Dapprich, A. D. Daniels, M. C. Strain, 
 O. Farkas, D. K. Malick, A. D. Rabuck, K. Raghavachari, 
 J. B. Foresman, J. V. Ortiz, Q. Cui, A. G. Baboul, S. Clifford, 
 J. Cioslowski, B. B. Stefanov, G. Liu, A. Liashenko, P. Piskorz, 
 I. Komaromi, R. L. Martin, D. J. Fox, T. Keith, M. A. Al-Laham, 
 C. Y. Peng, A. Nanayakkara, M. Challacombe, P. M. W. Gill, 
 B. Johnson, W. Chen, M. W. Wong, C. Gonzalez, and J. A. Pople, 
 Gaussian, Inc., Pittsburgh PA, 2003.
 
 **********************************************
 Gaussian 03:  x86-Win32-G03RevB.05  8-Nov-2003
                  09-Dec-2004 
 **********************************************
 %mem=24000000
 Default route:  MaxDisk=200GB
 ------------------------------
 #mPW1PW91/aug-cc-pVDZ opt freq
 ------------------------------
 1/14=-1,18=20,26=3,38=1/1,3;
 2/9=110,17=6,18=5,40=1/2;
 3/5=16,7=10,11=2,16=1,25=1,30=1,74=-7/1,2,3;
 4//1;
 5/5=2,38=5/2;
 6/7=2,8=2,9=2,10=2,28=1/1;
 7//1,2,3,16;
 1/14=-1,18=20/3(1);
 99//99;
 2/9=110/2;
 3/5=16,7=10,11=2,16=1,25=1,30=1,74=-7/1,2,3;
 4/5=5,16=3/1;
 5/5=2,38=5/2;
 7//1,2,3,16;
 1/14=-1,18=20/3(-5);
 2/9=110/2;
 6/7=2,8=2,9=2,10=2,19=2,28=1/1;
 99/9=1/99;
 -----------------------------------------------------------
 1H tetrazole c CH-NH-N=N-N= casno=288948 method=25 basis=17
 -----------------------------------------------------------
 Symbolic Z-matrix:
 Charge =  0 Multiplicity = 1
 7                    -1.12329  -0.25456   0. 
 7                    -0.67158   0.91328   0. 
 7                     0.65055   0.80984   0. 
 1                     1.224     1.62189   0. 
 7                    -0.13465  -1.16105   0. 
 6                     0.96218  -0.48332   0. 
 1                     1.95569  -0.87454   0. 
 

 GradGradGradGradGradGradGradGradGradGradGradGradGradGradGradGradGradGrad
 Berny optimization.
 Initialization pass.
                           ----------------------------
                           !    Initial Parameters    !
                           ! (Angstroms and Degrees)  !
 --------------------------                            --------------------------
 ! Name  Definition              Value          Derivative Info.                !
 --------------------------------------------------------------------------------
 ! R1    R(1,2)                  1.2522         estimate D2E/DX2                !
 ! R2    R(1,5)                  1.3413         estimate D2E/DX2                !
 ! R3    R(2,3)                  1.3262         estimate D2E/DX2                !
 ! R4    R(3,4)                  0.9941         estimate D2E/DX2                !
 ! R5    R(3,6)                  1.3302         estimate D2E/DX2                !
 ! R6    R(5,6)                  1.2893         estimate D2E/DX2                !
 ! R7    R(6,7)                  1.0678         estimate D2E/DX2                !
 ! A1    A(2,1,5)              111.3714         estimate D2E/DX2                !
 ! A2    A(1,2,3)              106.673          estimate D2E/DX2                !
 ! A3    A(2,3,4)              120.7559         estimate D2E/DX2                !
 ! A4    A(2,3,6)              108.0227         estimate D2E/DX2                !
 ! A5    A(4,3,6)              131.2214         estimate D2E/DX2                !
 ! A6    A(1,5,6)              105.77           estimate D2E/DX2                !
 ! A7    A(3,6,5)              108.1628         estimate D2E/DX2                !
 ! A8    A(3,6,7)              125.0426         estimate D2E/DX2                !
 ! A9    A(5,6,7)              126.7945         estimate D2E/DX2                !
 ! D1    D(5,1,2,3)              0.0            estimate D2E/DX2                !
 ! D2    D(2,1,5,6)              0.0            estimate D2E/DX2                !
 ! D3    D(1,2,3,4)            180.0            estimate D2E/DX2                !
 ! D4    D(1,2,3,6)              0.0            estimate D2E/DX2                !
 ! D5    D(2,3,6,5)              0.0            estimate D2E/DX2                !
 ! D6    D(2,3,6,7)            180.0            estimate D2E/DX2                !
 ! D7    D(4,3,6,5)            180.0            estimate D2E/DX2                !
 ! D8    D(4,3,6,7)              0.0            estimate D2E/DX2                !
 ! D9    D(1,5,6,3)              0.0            estimate D2E/DX2                !
 ! D10   D(1,5,6,7)            180.0            estimate D2E/DX2                !
 --------------------------------------------------------------------------------
 Trust Radius=3.00D-01 FncErr=1.00D-07 GrdErr=1.00D-06
 Number of steps in this run=  36 maximum allowed number of steps= 100.
 GradGradGradGradGradGradGradGradGradGradGradGradGradGradGradGradGradGrad

                          Input orientation:                          
 ---------------------------------------------------------------------
 Center     Atomic     Atomic              Coordinates (Angstroms)
 Number     Number      Type              X           Y           Z
 ---------------------------------------------------------------------
    1          7             0       -1.123293   -0.254560    0.000000
    2          7             0       -0.671576    0.913277    0.000000
    3          7             0        0.650545    0.809842    0.000000
    4          1             0        1.224004    1.621891    0.000000
    5          7             0       -0.134646   -1.161053    0.000000
    6          6             0        0.962183   -0.483316    0.000000
    7          1             0        1.955691   -0.874535    0.000000
 ---------------------------------------------------------------------
                    Distance matrix (angstroms):
                    1          2          3          4          5
     1  N    0.000000
     2  N    1.252155   0.000000
     3  N    2.068684   1.326161   0.000000
     4  H    3.005141   2.023699   0.994122   0.000000
     5  N    1.341325   2.142694   2.121545   3.096887   0.000000
     6  C    2.097985   2.149335   1.330179   2.121426   1.289326
     7  H    3.140782   3.177861   2.130852   2.601444   2.109882
                    6          7
     6  C    0.000000
     7  H    1.067760   0.000000
 Stoichiometry    CH2N4
 Framework group  CS[SG(CH2N4)]
 Deg. of freedom    11
 Full point group                 CS      NOp   2
 Largest Abelian subgroup         CS      NOp   2
 Largest concise Abelian subgroup C1      NOp   1
                         Standard orientation:                         
 ---------------------------------------------------------------------
 Center     Atomic     Atomic              Coordinates (Angstroms)
 Number     Number      Type              X           Y           Z
 ---------------------------------------------------------------------
    1          7             0       -0.716312   -0.901934    0.000000
    2          7             0       -1.095520    0.291420    0.000000
    3          7             0        0.000000    1.038775    0.000000
    4          1             0       -0.061479    2.030994    0.000000
    5          7             0        0.622151   -0.989495    0.000000
    6          6             0        1.052813    0.225779    0.000000
    7          1             0        2.072370    0.542976    0.000000
 ---------------------------------------------------------------------
 Rotational constants (GHZ):     10.9198664     10.7343935      5.4131678
 Standard basis: Aug-CC-pVDZ (5D, 7F)
 There are    94 symmetry adapted basis functions of A'  symmetry.
 There are    39 symmetry adapted basis functions of A"  symmetry.
 Integral buffers will be    262144 words long.
 Raffenetti 2 integral format.
 Two-electron integral symmetry is turned on.
   133 basis functions,   237 primitive gaussians,   143 cartesian basis functions
    18 alpha electrons       18 beta electrons
       nuclear repulsion energy       169.8288291610 Hartrees.
 NAtoms=    7 NActive=    7 NUniq=    7 SFac= 1.00D+00 NAtFMM=   60 Big=F
 One-electron integrals computed using PRISM.
 NBasis=   133 RedAO= T  NBF=    94    39
 NBsUse=   133 1.00D-06 NBFU=    94    39
 Harris functional with IExCor=  908 diagonalized for initial guess.
 ExpMin= 2.97D-02 ExpMax= 9.05D+03 ExpMxC= 3.09D+02 IAcc=3 IRadAn=         5 AccDes= 0.00D+00
 HarFok:  IExCor= 908 AccDes= 0.00D+00 IRadAn=         5 IDoV=1
 ScaDFX=  1.000000  1.000000  1.000000  1.000000
 Initial guess orbital symmetries:
       Occupied  (A') (A') (A') (A') (A') (A') (A') (A') (A') (A')
                 (A') (A') (A") (A') (A") (A') (A") (A')
       Virtual   (A") (A") (A') (A') (A') (A") (A') (A') (A') (A')
                 (A') (A") (A') (A") (A') (A') (A') (A') (A") (A")
                 (A') (A') (A') (A') (A') (A") (A') (A') (A') (A')
                 (A") (A') (A') (A') (A') (A") (A') (A") (A') (A')
                 (A') (A') (A") (A') (A") (A') (A") (A') (A") (A')
                 (A') (A") (A") (A') (A') (A') (A") (A') (A') (A')
                 (A") (A') (A") (A') (A') (A") (A") (A') (A') (A")
                 (A') (A") (A') (A") (A') (A') (A') (A") (A') (A')
                 (A') (A") (A') (A") (A') (A') (A") (A") (A') (A')
                 (A") (A') (A') (A') (A') (A') (A") (A') (A') (A")
                 (A") (A') (A') (A") (A') (A') (A') (A") (A') (A')
                 (A') (A') (A') (A') (A')
 The electronic state of the initial guess is 1-A'.
 Requested convergence on RMS density matrix=1.00D-08 within 128 cycles.
 Requested convergence on MAX density matrix=1.00D-06.
 Requested convergence on             energy=1.00D-06.
 No special actions if energy rises.
 SCF Done:  E(RmPW+HF-PW91) =  -258.230531824     A.U. after   12 cycles
             Convg  =    0.5058D-08             -V/T =  2.0045
             S**2   =   0.0000

 **********************************************************************

            Population analysis using the SCF density.

 **********************************************************************

 Orbital symmetries:
       Occupied  (A') (A') (A') (A') (A') (A') (A') (A') (A') (A')
                 (A') (A") (A') (A') (A") (A") (A') (A')
       Virtual   (A') (A") (A') (A") (A') (A") (A') (A') (A') (A')
                 (A') (A") (A") (A') (A') (A') (A') (A") (A") (A')
                 (A') (A') (A') (A') (A') (A") (A') (A') (A') (A")
                 (A') (A') (A') (A') (A") (A') (A') (A") (A') (A')
                 (A') (A') (A") (A') (A') (A") (A') (A") (A") (A')
                 (A') (A") (A") (A') (A') (A") (A') (A') (A') (A")
                 (A') (A') (A") (A') (A") (A') (A") (A') (A') (A")
                 (A') (A") (A') (A") (A') (A') (A') (A") (A') (A')
                 (A') (A") (A") (A') (A') (A') (A") (A') (A") (A')
                 (A") (A') (A') (A') (A') (A') (A") (A') (A') (A")
                 (A') (A") (A') (A") (A') (A') (A') (A") (A') (A')
                 (A') (A') (A') (A') (A')
 The electronic state is 1-A'.
 Alpha  occ. eigenvalues --  -14.52614 -14.49199 -14.47457 -14.44451 -10.33918
 Alpha  occ. eigenvalues --   -1.21066  -0.99522  -0.94478  -0.71695  -0.70420
 Alpha  occ. eigenvalues --   -0.63311  -0.53726  -0.52864  -0.41035  -0.35842
 Alpha  occ. eigenvalues --   -0.33760  -0.32663  -0.31219
 Alpha virt. eigenvalues --   -0.02227  -0.01951   0.01075   0.01289   0.03803
 Alpha virt. eigenvalues --    0.04678   0.06062   0.07547   0.09272   0.09423
 Alpha virt. eigenvalues --    0.11199   0.11322   0.12668   0.14116   0.15110
 Alpha virt. eigenvalues --    0.17775   0.18122   0.18551   0.19848   0.20512
 Alpha virt. eigenvalues --    0.20900   0.22806   0.24932   0.25699   0.26994
 Alpha virt. eigenvalues --    0.28479   0.30378   0.31202   0.32050   0.34675
 Alpha virt. eigenvalues --    0.38121   0.40617   0.43895   0.44049   0.46038
 Alpha virt. eigenvalues --    0.47328   0.48111   0.49282   0.52798   0.54817
 Alpha virt. eigenvalues --    0.56901   0.58624   0.60378   0.61618   0.64796
 Alpha virt. eigenvalues --    0.64914   0.67407   0.67694   0.72420   0.72686
 Alpha virt. eigenvalues --    0.79097   0.82489   0.83018   0.83129   0.85365
 Alpha virt. eigenvalues --    0.86683   0.87299   0.90250   0.92722   0.96172
 Alpha virt. eigenvalues --    0.96352   0.99962   1.03822   1.04112   1.12719
 Alpha virt. eigenvalues --    1.12852   1.14408   1.17692   1.22240   1.30089
 Alpha virt. eigenvalues --    1.33120   1.37383   1.40048   1.43249   1.49080
 Alpha virt. eigenvalues --    1.53009   1.57627   1.62380   1.64354   1.71338
 Alpha virt. eigenvalues --    1.78176   1.79706   1.85035   1.85240   1.88815
 Alpha virt. eigenvalues --    1.93907   1.96797   2.03020   2.05079   2.09153
 Alpha virt. eigenvalues --    2.12147   2.14057   2.17131   2.25874   2.28978
 Alpha virt. eigenvalues --    2.31355   2.36875   2.39509   2.43139   2.51555
 Alpha virt. eigenvalues --    2.55907   2.57478   2.61932   2.63347   2.64426
 Alpha virt. eigenvalues --    2.75667   2.77061   2.87864   2.98639   3.00718
 Alpha virt. eigenvalues --    3.11526   3.19887   3.23611   3.60290   3.84297
          Condensed to atoms (all electrons):
              1          2          3          4          5          6
     1  N    8.934254  -1.076027   0.283907   0.040017  -0.899351  -0.024628
     2  N   -1.076027   8.897860  -0.707643  -0.236768   0.509678  -0.322407
     3  N    0.283907  -0.707643   7.036771   0.534589  -0.357348   0.311079
     4  H    0.040017  -0.236768   0.534589   0.882037  -0.016657  -0.153683
     5  N   -0.899351   0.509678  -0.357348  -0.016657   7.828311   0.274351
     6  C   -0.024628  -0.322407   0.311079  -0.153683   0.274351   4.940211
     7  H    0.001840   0.021044  -0.093260   0.008934  -0.044745   0.086598
              7
     1  N    0.001840
     2  N    0.021044
     3  N   -0.093260
     4  H    0.008934
     5  N   -0.044745
     6  C    0.086598
     7  H    1.201516
 Mulliken atomic charges:
              1
     1  N   -0.260013
     2  N   -0.085737
     3  N   -0.008095
     4  H   -0.058468
     5  N   -0.294238
     6  C    0.888479
     7  H   -0.181927
 Sum of Mulliken charges=   0.00000
 Atomic charges with hydrogens summed into heavy atoms:
              1
     1  N   -0.260013
     2  N   -0.085737
     3  N   -0.066563
     4  H    0.000000
     5  N   -0.294238
     6  C    0.706552
     7  H    0.000000
 Sum of Mulliken charges=   0.00000
 Electronic spatial extent (au):  <R**2>=   244.9085
 Charge=     0.0000 electrons
 Dipole moment (field-independent basis, Debye):
    X=     2.4948    Y=     4.7319    Z=     0.0000  Tot=     5.3493
 Quadrupole moment (field-independent basis, Debye-Ang):
   XX=   -29.0098   YY=   -26.5985   ZZ=   -28.4884
   XY=     1.8252   XZ=     0.0000   YZ=     0.0000
 Traceless Quadrupole moment (field-independent basis, Debye-Ang):
   XX=    -0.9776   YY=     1.4338   ZZ=    -0.4562
   XY=     1.8252   XZ=     0.0000   YZ=     0.0000
 Octapole moment (field-independent basis, Debye-Ang**2):
  XXX=    12.0868  YYY=    22.3329  ZZZ=     0.0000  XYY=    -0.6339
  XXY=     4.6731  XXZ=     0.0000  XZZ=    -0.4586  YZZ=     0.7803
  YYZ=     0.0000  XYZ=     0.0000
 Hexadecapole moment (field-independent basis, Debye-Ang**3):
 XXXX=  -142.8749 YYYY=  -121.5160 ZZZZ=   -27.2688 XXXY=     6.9179
 XXXZ=     0.0000 YYYX=    -0.1068 YYYZ=     0.0000 ZZZX=     0.0000
 ZZZY=     0.0000 XXYY=   -54.0772 XXZZ=   -30.8590 YYZZ=   -29.3226
 XXYZ=     0.0000 YYXZ=     0.0000 ZZXY=     0.0728
 N-N= 1.698288291610D+02 E-N=-9.422404857040D+02  KE= 2.570806200050D+02
 Symmetry A'   KE= 2.476625244780D+02
 Symmetry A"   KE= 9.418095526980D+00
 ***** Axes restored to original set *****
 -------------------------------------------------------------------
 Center     Atomic                   Forces (Hartrees/Bohr)
 Number     Number              X              Y              Z
 -------------------------------------------------------------------
    1          7          -0.026745052   -0.027694549    0.000000000
    2          7          -0.001959858    0.041199015    0.000000000
    3          7           0.004511268    0.003556878    0.000000000
    4          1           0.008025706    0.011195127    0.000000000
    5          7          -0.012717915   -0.027392954    0.000000000
    6          6           0.018699497    0.003050749    0.000000000
    7          1           0.010186354   -0.003914266    0.000000000
 -------------------------------------------------------------------
 Cartesian Forces:  Max     0.041199015 RMS     0.015112928

 GradGradGradGradGradGradGradGradGradGradGradGradGradGradGradGradGradGrad
 Berny optimization.
 Internal  Forces:  Max     0.040726989 RMS     0.012035824
 Search for a local minimum.
 Step number   1 out of a maximum of  36
 All quantities printed in internal units (Hartrees-Bohrs-Radians)
 Second derivative matrix not updated -- first step.
     Eigenvalues ---    0.02505   0.02639   0.02674   0.02834   0.16000
     Eigenvalues ---    0.16000   0.22605   0.24688   0.37515   0.48737
     Eigenvalues ---    0.50885   0.56605   0.58506   0.66912   0.78894
     Eigenvalues --- 1000.000001000.000001000.000001000.000001000.00000
     Eigenvalues --- 1000.000001000.000001000.000001000.000001000.00000
     Eigenvalues --- 1000.00000
 RFO step:  Lambda=-5.47976811D-03.
 Linear search not attempted -- first point.
 Iteration  1 RMS(Cart)=  0.01927234 RMS(Int)=  0.00001891
 Iteration  2 RMS(Cart)=  0.00001667 RMS(Int)=  0.00001158
 Iteration  3 RMS(Cart)=  0.00000000 RMS(Int)=  0.00001158
 Variable       Old X    -DE/DX   Delta X   Delta X   Delta X     New X
                                 (Linear)    (Quad)   (Total)
    R1        2.36623   0.04073   0.00000   0.05034   0.05036   2.41659
    R2        2.53474   0.01568   0.00000   0.02878   0.02879   2.56353
    R3        2.50608   0.01701   0.00000   0.02761   0.02760   2.53368
    R4        1.87862   0.01377   0.00000   0.02795   0.02795   1.90656
    R5        2.51367   0.01853   0.00000   0.02895   0.02893   2.54260
    R6        2.43647   0.02996   0.00000   0.04157   0.04156   2.47803
    R7        2.01777   0.01091   0.00000   0.02867   0.02867   2.04645
    A1        1.94380  -0.00205   0.00000  -0.00007  -0.00003   1.94376
    A2        1.86179  -0.00167   0.00000  -0.00324  -0.00324   1.85856
    A3        2.10759  -0.00102   0.00000  -0.00132  -0.00131   2.10628
    A4        1.88535   0.00219   0.00000   0.00364   0.00362   1.88897
    A5        2.29025  -0.00118   0.00000  -0.00232  -0.00231   2.28794
    A6        1.84604  -0.00076   0.00000  -0.00296  -0.00295   1.84309
    A7        1.88780   0.00228   0.00000   0.00263   0.00261   1.89040
    A8        2.18241  -0.00124   0.00000  -0.00193  -0.00192   2.18049
    A9        2.21298  -0.00104   0.00000  -0.00070  -0.00069   2.21229
    D1        0.00000   0.00000   0.00000   0.00000   0.00000   0.00000
    D2        0.00000   0.00000   0.00000   0.00000   0.00000   0.00000
    D3        3.14159   0.00000   0.00000   0.00000   0.00000   3.14159
    D4        0.00000   0.00000   0.00000   0.00000   0.00000   0.00000
    D5        0.00000   0.00000   0.00000   0.00000   0.00000   0.00000
    D6        3.14159   0.00000   0.00000   0.00000   0.00000   3.14159
    D7        3.14159   0.00000   0.00000   0.00000   0.00000   3.14159
    D8        0.00000   0.00000   0.00000   0.00000   0.00000   0.00000
    D9        0.00000   0.00000   0.00000   0.00000   0.00000   0.00000
   D10        3.14159   0.00000   0.00000   0.00000   0.00000   3.14159
         Item               Value     Threshold  Converged?
 Maximum Force            0.040727     0.000450     NO 
 RMS     Force            0.012036     0.000300     NO 
 Maximum Displacement     0.040640     0.001800     NO 
 RMS     Displacement     0.019268     0.001200     NO 
 Predicted change in Energy=-2.762522D-03
 GradGradGradGradGradGradGradGradGradGradGradGradGradGradGradGradGradGrad

                          Input orientation:                          
 ---------------------------------------------------------------------
 Center     Atomic     Atomic              Coordinates (Angstroms)
 Number     Number      Type              X           Y           Z
 ---------------------------------------------------------------------
    1          7             0       -1.144799   -0.263934    0.000000
    2          7             0       -0.682952    0.928557    0.000000
    3          7             0        0.653336    0.819077    0.000000
    4          1             0        1.237268    1.641831    0.000000
    5          7             0       -0.145287   -1.181123    0.000000
    6          6             0        0.968489   -0.488981    0.000000
    7          1             0        1.976854   -0.883881    0.000000
 ---------------------------------------------------------------------
                    Distance matrix (angstroms):
                    1          2          3          4          5
     1  N    0.000000
     2  N    1.278803   0.000000
     3  N    2.099095   1.340765   0.000000
     4  H    3.050603   2.048415   1.008910   0.000000
     5  N    1.356561   2.177116   2.153741   3.143330   0.000000
     6  C    2.125237   2.176390   1.345488   2.147696   1.311320
     7  H    3.182616   3.218617   2.156795   2.631768   2.142857
                    6          7
     6  C    0.000000
     7  H    1.082933   0.000000
 Stoichiometry    CH2N4
 Framework group  CS[SG(CH2N4)]
 Deg. of freedom    11
 Full point group                 CS      NOp   2
 Largest Abelian subgroup         CS      NOp   2
 Largest concise Abelian subgroup C1      NOp   1
                         Standard orientation:                         
 ---------------------------------------------------------------------
 Center     Atomic     Atomic              Coordinates (Angstroms)
 Number     Number      Type              X           Y           Z
 ---------------------------------------------------------------------
    1          7             0       -0.723610   -0.917750    0.000000
    2          7             0       -1.110354    0.301170    0.000000
    3          7             0        0.000000    1.052679    0.000000
    4          1             0       -0.060013    2.059803    0.000000
    5          7             0        0.630022   -1.006853    0.000000
    6          6             0        1.064880    0.230264    0.000000
    7          1             0        2.098326    0.553889    0.000000
 ---------------------------------------------------------------------
 Rotational constants (GHZ):     10.6057406     10.4426185      5.2617737
 Standard basis: Aug-CC-pVDZ (5D, 7F)
 There are    94 symmetry adapted basis functions of A'  symmetry.
 There are    39 symmetry adapted basis functions of A"  symmetry.
 Integral buffers will be    262144 words long.
 Raffenetti 2 integral format.
 Two-electron integral symmetry is turned on.
   133 basis functions,   237 primitive gaussians,   143 cartesian basis functions
    18 alpha electrons       18 beta electrons
       nuclear repulsion energy       167.4147061405 Hartrees.
 NAtoms=    7 NActive=    7 NUniq=    7 SFac= 1.00D+00 NAtFMM=   60 Big=F
 One-electron integrals computed using PRISM.
 NBasis=   133 RedAO= T  NBF=    94    39
 NBsUse=   133 1.00D-06 NBFU=    94    39
 Initial guess read from the read-write file:
 Initial guess orbital symmetries:
       Occupied  (A') (A') (A') (A') (A') (A') (A') (A') (A') (A')
                 (A') (A") (A') (A') (A") (A") (A') (A')
       Virtual   (A') (A") (A') (A") (A') (A") (A') (A') (A') (A')
                 (A') (A") (A") (A') (A') (A') (A') (A") (A") (A')
                 (A') (A') (A') (A') (A') (A") (A') (A') (A') (A")
                 (A') (A') (A') (A') (A") (A') (A') (A") (A') (A')
                 (A') (A') (A") (A') (A') (A") (A') (A") (A") (A')
                 (A') (A") (A") (A') (A') (A") (A') (A') (A') (A")
                 (A') (A') (A") (A') (A") (A') (A") (A') (A') (A")
                 (A') (A") (A') (A") (A') (A') (A') (A") (A') (A')
                 (A') (A") (A") (A') (A') (A') (A") (A') (A") (A')
                 (A") (A') (A') (A') (A') (A') (A") (A') (A') (A")
                 (A') (A") (A') (A") (A') (A') (A') (A") (A') (A')
                 (A') (A') (A') (A') (A')
 Harris functional with IExCor=  908 diagonalized for initial guess.
 ExpMin= 2.97D-02 ExpMax= 9.05D+03 ExpMxC= 3.09D+02 IAcc=3 IRadAn=         5 AccDes= 0.00D+00
 HarFok:  IExCor= 908 AccDes= 0.00D+00 IRadAn=         5 IDoV=1
 ScaDFX=  1.000000  1.000000  1.000000  1.000000
 Requested convergence on RMS density matrix=1.00D-08 within 128 cycles.
 Requested convergence on MAX density matrix=1.00D-06.
 Requested convergence on             energy=1.00D-06.
 No special actions if energy rises.
 SCF Done:  E(RmPW+HF-PW91) =  -258.233357639     A.U. after   11 cycles
             Convg  =    0.3934D-08             -V/T =  2.0058
             S**2   =   0.0000
 ***** Axes restored to original set *****
 -------------------------------------------------------------------
 Center     Atomic                   Forces (Hartrees/Bohr)
 Number     Number              X              Y              Z
 -------------------------------------------------------------------
    1          7          -0.001083272   -0.006399887    0.000000000
    2          7           0.001479956    0.008272130    0.000000000
    3          7          -0.000938422   -0.004145645    0.000000000
    4          1          -0.000083515   -0.000152615    0.000000000
    5          7          -0.001285861   -0.000126959    0.000000000
    6          6           0.002467576    0.002349111    0.000000000
    7          1          -0.000556463    0.000203864    0.000000000
 -------------------------------------------------------------------
 Cartesian Forces:  Max     0.008272130 RMS     0.002622937

 GradGradGradGradGradGradGradGradGradGradGradGradGradGradGradGradGradGrad
 Berny optimization.
 Internal  Forces:  Max     0.006041423 RMS     0.001458122
 Search for a local minimum.
 Step number   2 out of a maximum of  36
 All quantities printed in internal units (Hartrees-Bohrs-Radians)
 Update second derivatives using D2CorX and points  1  2
 Trust test= 1.02D+00 RLast= 9.13D-02 DXMaxT set to 3.00D-01
     Eigenvalues ---    0.02505   0.02639   0.02675   0.02834   0.16000
     Eigenvalues ---    0.16000   0.22506   0.24581   0.37878   0.48905
     Eigenvalues ---    0.50864   0.56623   0.61065   0.67569   0.71668
     Eigenvalues --- 1000.000001000.000001000.000001000.000001000.00000
     Eigenvalues --- 1000.000001000.000001000.000001000.000001000.00000
     Eigenvalues --- 1000.00000
 RFO step:  Lambda=-9.83109207D-05.
 Quartic linear search produced a step of  0.05981.
 Iteration  1 RMS(Cart)=  0.00286014 RMS(Int)=  0.00000953
 Iteration  2 RMS(Cart)=  0.00000872 RMS(Int)=  0.00000431
 Iteration  3 RMS(Cart)=  0.00000000 RMS(Int)=  0.00000431
 Variable       Old X    -DE/DX   Delta X   Delta X   Delta X     New X
                                 (Linear)    (Quad)   (Total)
    R1        2.41659   0.00604   0.00301   0.00635   0.00937   2.42596
    R2        2.56353  -0.00048   0.00172  -0.00141   0.00030   2.56383
    R3        2.53368   0.00004   0.00165  -0.00103   0.00063   2.53431
    R4        1.90656  -0.00017   0.00167  -0.00141   0.00026   1.90682
    R5        2.54260  -0.00173   0.00173  -0.00496  -0.00323   2.53937
    R6        2.47803   0.00118   0.00249  -0.00019   0.00229   2.48033
    R7        2.04645  -0.00059   0.00171  -0.00269  -0.00097   2.04547
    A1        1.94376  -0.00018   0.00000   0.00248   0.00248   1.94624
    A2        1.85856  -0.00241  -0.00019  -0.00842  -0.00861   1.84995
    A3        2.10628  -0.00114  -0.00008  -0.00420  -0.00428   2.10199
    A4        1.88897   0.00229   0.00022   0.00850   0.00873   1.89770
    A5        2.28794  -0.00116  -0.00014  -0.00430  -0.00444   2.28350
    A6        1.84309   0.00024  -0.00018   0.00063   0.00044   1.84353
    A7        1.89040   0.00006   0.00016  -0.00319  -0.00304   1.88736
    A8        2.18049  -0.00003  -0.00011   0.00163   0.00152   2.18201
    A9        2.21229  -0.00003  -0.00004   0.00156   0.00152   2.21382
    D1        0.00000   0.00000   0.00000   0.00000   0.00000   0.00000
    D2        0.00000   0.00000   0.00000   0.00000   0.00000   0.00000
    D3        3.14159   0.00000   0.00000   0.00000   0.00000   3.14159
    D4        0.00000   0.00000   0.00000   0.00000   0.00000   0.00000
    D5        0.00000   0.00000   0.00000   0.00000   0.00000   0.00000
    D6        3.14159   0.00000   0.00000   0.00000   0.00000   3.14159
    D7        3.14159   0.00000   0.00000   0.00000   0.00000   3.14159
    D8        0.00000   0.00000   0.00000   0.00000   0.00000   0.00000
    D9        0.00000   0.00000   0.00000   0.00000   0.00000   0.00000
   D10        3.14159   0.00000   0.00000   0.00000   0.00000   3.14159
         Item               Value     Threshold  Converged?
 Maximum Force            0.006041     0.000450     NO 
 RMS     Force            0.001458     0.000300     NO 
 Maximum Displacement     0.010120     0.001800     NO 
 RMS     Displacement     0.002861     0.001200     NO 
 Predicted change in Energy=-5.703185D-05
 GradGradGradGradGradGradGradGradGradGradGradGradGradGradGradGradGradGrad

                          Input orientation:                          
 ---------------------------------------------------------------------
 Center     Atomic     Atomic              Coordinates (Angstroms)
 Number     Number      Type              X           Y           Z
 ---------------------------------------------------------------------
    1          7             0       -1.144763   -0.264451    0.000000
    2          7             0       -0.684366    0.933912    0.000000
    3          7             0        0.651583    0.816520    0.000000
    4          1             0        1.236924    1.638440    0.000000
    5          7             0       -0.144927   -1.181522    0.000000
    6          6             0        0.970028   -0.488980    0.000000
    7          1             0        1.978428   -0.882372    0.000000
 ---------------------------------------------------------------------
                    Distance matrix (angstroms):
                    1          2          3          4          5
     1  N    0.000000
     2  N    1.283760   0.000000
     3  N    2.096511   1.341097   0.000000
     4  H    3.048512   2.046390   1.009047   0.000000
     5  N    1.356721   2.183130   2.150953   3.140334   0.000000
     6  C    2.126677   2.182118   1.343777   2.144096   1.312531
     7  H    3.183732   3.223253   2.155633   2.627607   2.144324
                    6          7
     6  C    0.000000
     7  H    1.082418   0.000000
 Stoichiometry    CH2N4
 Framework group  CS[SG(CH2N4)]
 Deg. of freedom    11
 Full point group                 CS      NOp   2
 Largest Abelian subgroup         CS      NOp   2
 Largest concise Abelian subgroup C1      NOp   1
                         Standard orientation:                         
 ---------------------------------------------------------------------
 Center     Atomic     Atomic              Coordinates (Angstroms)
 Number     Number      Type              X           Y           Z
 ---------------------------------------------------------------------
    1          7             0       -0.722322   -0.918650    0.000000
    2          7             0       -1.114601    0.303707    0.000000
    3          7             0        0.000000    1.049499    0.000000
    4          1             0       -0.058993    2.056820    0.000000
    5          7             0        0.631542   -1.006652    0.000000
    6          6             0        1.066331    0.231774    0.000000
    7          1             0        2.098667    0.557212    0.000000
 ---------------------------------------------------------------------
 Rotational constants (GHZ):     10.6138429     10.4097360      5.2553993
 Standard basis: Aug-CC-pVDZ (5D, 7F)
 There are    94 symmetry adapted basis functions of A'  symmetry.
 There are    39 symmetry adapted basis functions of A"  symmetry.
 Integral buffers will be    262144 words long.
 Raffenetti 2 integral format.
 Two-electron integral symmetry is turned on.
   133 basis functions,   237 primitive gaussians,   143 cartesian basis functions
    18 alpha electrons       18 beta electrons
       nuclear repulsion energy       167.3040016493 Hartrees.
 NAtoms=    7 NActive=    7 NUniq=    7 SFac= 1.00D+00 NAtFMM=   60 Big=F
 One-electron integrals computed using PRISM.
 NBasis=   133 RedAO= T  NBF=    94    39
 NBsUse=   133 1.00D-06 NBFU=    94    39
 Initial guess read from the read-write file:
 Initial guess orbital symmetries:
       Occupied  (A') (A') (A') (A') (A') (A') (A') (A') (A') (A')
                 (A') (A") (A') (A') (A") (A") (A') (A')
       Virtual   (A") (A') (A") (A') (A') (A") (A') (A') (A') (A')
                 (A') (A") (A") (A') (A') (A') (A') (A") (A") (A')
                 (A') (A') (A') (A') (A') (A") (A') (A') (A') (A")
                 (A') (A') (A') (A') (A") (A') (A') (A") (A') (A')
                 (A') (A') (A") (A') (A") (A') (A') (A") (A") (A')
                 (A') (A") (A') (A") (A') (A") (A') (A') (A') (A")
                 (A') (A') (A') (A") (A') (A") (A") (A') (A') (A")
                 (A') (A") (A') (A") (A') (A') (A') (A") (A') (A')
                 (A') (A") (A") (A') (A') (A') (A") (A') (A") (A')
                 (A') (A") (A') (A') (A') (A') (A') (A") (A') (A")
                 (A') (A") (A') (A") (A') (A') (A') (A") (A') (A')
                 (A') (A') (A') (A') (A')
 Requested convergence on RMS density matrix=1.00D-08 within 128 cycles.
 Requested convergence on MAX density matrix=1.00D-06.
 Requested convergence on             energy=1.00D-06.
 No special actions if energy rises.
 SCF Done:  E(RmPW+HF-PW91) =  -258.233416117     A.U. after   10 cycles
             Convg  =    0.9183D-08             -V/T =  2.0058
             S**2   =   0.0000
 ***** Axes restored to original set *****
 -------------------------------------------------------------------
 Center     Atomic                   Forces (Hartrees/Bohr)
 Number     Number              X              Y              Z
 -------------------------------------------------------------------
    1          7          -0.000723778   -0.003629870    0.000000000
    2          7           0.002521479    0.000682559    0.000000000
    3          7           0.000264616   -0.000083583    0.000000000
    4          1           0.000069392   -0.000201145    0.000000000
    5          7          -0.001957010    0.001224300    0.000000000
    6          6           0.000061706    0.001879151    0.000000000
    7          1          -0.000236404    0.000128587    0.000000000
 -------------------------------------------------------------------
 Cartesian Forces:  Max     0.003629870 RMS     0.001186874

 GradGradGradGradGradGradGradGradGradGradGradGradGradGradGradGradGradGrad
 Berny optimization.
 Internal  Forces:  Max     0.002209403 RMS     0.000842730
 Search for a local minimum.
 Step number   3 out of a maximum of  36
 All quantities printed in internal units (Hartrees-Bohrs-Radians)
 Update second derivatives using D2CorX and points  1  2  3
 Trust test= 1.03D+00 RLast= 1.77D-02 DXMaxT set to 3.00D-01
     Eigenvalues ---    0.02505   0.02638   0.02674   0.02834   0.15948
     Eigenvalues ---    0.16000   0.22615   0.33832   0.37338   0.39044
     Eigenvalues ---    0.49215   0.52726   0.60262   0.67666   0.71712
     Eigenvalues --- 1000.000001000.000001000.000001000.000001000.00000
     Eigenvalues --- 1000.000001000.000001000.000001000.000001000.00000
     Eigenvalues --- 1000.00000
 RFO step:  Lambda=-4.18870195D-05.
 Quartic linear search produced a step of  0.01826.
 Iteration  1 RMS(Cart)=  0.00197277 RMS(Int)=  0.00000189
 Iteration  2 RMS(Cart)=  0.00000124 RMS(Int)=  0.00000118
 Iteration  3 RMS(Cart)=  0.00000000 RMS(Int)=  0.00000118
 Variable       Old X    -DE/DX   Delta X   Delta X   Delta X     New X
                                 (Linear)    (Quad)   (Total)
    R1        2.42596   0.00221   0.00017   0.00631   0.00648   2.43244
    R2        2.56383  -0.00208   0.00001  -0.00331  -0.00331   2.56053
    R3        2.53431  -0.00085   0.00001  -0.00100  -0.00099   2.53332
    R4        1.90682  -0.00012   0.00000   0.00003   0.00003   1.90685
    R5        2.53937  -0.00151  -0.00006  -0.00362  -0.00368   2.53569
    R6        2.48033   0.00116   0.00004   0.00263   0.00267   2.48300
    R7        2.04547  -0.00027  -0.00002  -0.00083  -0.00085   2.04462
    A1        1.94624  -0.00140   0.00005  -0.00410  -0.00405   1.94219
    A2        1.84995   0.00110  -0.00016   0.00227   0.00211   1.85206
    A3        2.10199   0.00053  -0.00008   0.00152   0.00145   2.10344
    A4        1.89770  -0.00076   0.00016  -0.00101  -0.00085   1.89685
    A5        2.28350   0.00022  -0.00008  -0.00052  -0.00060   2.28290
    A6        1.84353   0.00048   0.00001   0.00191   0.00192   1.84545
    A7        1.88736   0.00057  -0.00006   0.00092   0.00087   1.88823
    A8        2.18201  -0.00033   0.00003  -0.00076  -0.00073   2.18128
    A9        2.21382  -0.00024   0.00003  -0.00017  -0.00014   2.21368
    D1        0.00000   0.00000   0.00000   0.00000   0.00000   0.00000
    D2        0.00000   0.00000   0.00000   0.00000   0.00000   0.00000
    D3        3.14159   0.00000   0.00000   0.00000   0.00000   3.14159
    D4        0.00000   0.00000   0.00000   0.00000   0.00000   0.00000
    D5        0.00000   0.00000   0.00000   0.00000   0.00000   0.00000
    D6        3.14159   0.00000   0.00000   0.00000   0.00000   3.14159
    D7        3.14159   0.00000   0.00000   0.00000   0.00000   3.14159
    D8        0.00000   0.00000   0.00000   0.00000   0.00000   0.00000
    D9        0.00000   0.00000   0.00000   0.00000   0.00000   0.00000
   D10        3.14159   0.00000   0.00000   0.00000   0.00000   3.14159
         Item               Value     Threshold  Converged?
 Maximum Force            0.002209     0.000450     NO 
 RMS     Force            0.000843     0.000300     NO 
 Maximum Displacement     0.005357     0.001800     NO 
 RMS     Displacement     0.001973     0.001200     NO 
 Predicted change in Energy=-2.095878D-05
 GradGradGradGradGradGradGradGradGradGradGradGradGradGradGradGradGradGrad

                          Input orientation:                          
 ---------------------------------------------------------------------
 Center     Atomic     Atomic              Coordinates (Angstroms)
 Number     Number      Type              X           Y           Z
 ---------------------------------------------------------------------
    1          7             0       -1.146786   -0.267286    0.000000
    2          7             0       -0.682949    0.933428    0.000000
    3          7             0        0.652510    0.816445    0.000000
    4          1             0        1.238825    1.637691    0.000000
    5          7             0       -0.146214   -1.180961    0.000000
    6          6             0        0.969740   -0.487347    0.000000
    7          1             0        1.977782   -0.880424    0.000000
 ---------------------------------------------------------------------
                    Distance matrix (angstroms):
                    1          2          3          4          5
     1  N    0.000000
     2  N    1.287190   0.000000
     3  N    2.100461   1.340573   0.000000
     4  H    3.052880   2.046754   1.009064   0.000000
     5  N    1.354972   2.181451   2.151184   3.140563   0.000000
     6  C    2.127936   2.179446   1.341831   2.142007   1.313946
     7  H    3.184158   3.220178   2.153070   2.624302   2.145153
                    6          7
     6  C    0.000000
     7  H    1.081969   0.000000
 Stoichiometry    CH2N4
 Framework group  CS[SG(CH2N4)]
 Deg. of freedom    11
 Full point group                 CS      NOp   2
 Largest Abelian subgroup         CS      NOp   2
 Largest concise Abelian subgroup C1      NOp   1
                         Standard orientation:                         
 ---------------------------------------------------------------------
 Center     Atomic     Atomic              Coordinates (Angstroms)
 Number     Number      Type              X           Y           Z
 ---------------------------------------------------------------------
    1          7             0       -0.721441   -0.922340    0.000000
    2          7             0       -1.113414    0.303717    0.000000
    3          7             0        0.000000    1.050339    0.000000
    4          1             0       -0.058551    2.057703    0.000000
    5          7             0        0.630930   -1.006241    0.000000
    6          6             0        1.064916    0.233965    0.000000
    7          1             0        2.096535    0.560183    0.000000
 ---------------------------------------------------------------------
 Rotational constants (GHZ):     10.5860883     10.4330254      5.2544998
 Standard basis: Aug-CC-pVDZ (5D, 7F)
 There are    94 symmetry adapted basis functions of A'  symmetry.
 There are    39 symmetry adapted basis functions of A"  symmetry.
 Integral buffers will be    262144 words long.
 Raffenetti 2 integral format.
 Two-electron integral symmetry is turned on.
   133 basis functions,   237 primitive gaussians,   143 cartesian basis functions
    18 alpha electrons       18 beta electrons
       nuclear repulsion energy       167.2820919521 Hartrees.
 NAtoms=    7 NActive=    7 NUniq=    7 SFac= 1.00D+00 NAtFMM=   60 Big=F
 One-electron integrals computed using PRISM.
 NBasis=   133 RedAO= T  NBF=    94    39
 NBsUse=   133 1.00D-06 NBFU=    94    39
 Initial guess read from the read-write file:
 Initial guess orbital symmetries:
       Occupied  (A') (A') (A') (A') (A') (A') (A') (A') (A') (A')
                 (A') (A") (A') (A') (A") (A") (A') (A')
       Virtual   (A") (A') (A") (A') (A') (A") (A') (A') (A') (A')
                 (A') (A") (A") (A') (A') (A') (A') (A") (A") (A')
                 (A') (A') (A') (A') (A') (A") (A') (A') (A') (A")
                 (A') (A') (A') (A') (A") (A') (A') (A") (A') (A')
                 (A') (A') (A") (A') (A") (A') (A') (A") (A") (A')
                 (A') (A") (A') (A") (A') (A") (A') (A') (A') (A")
                 (A') (A') (A') (A") (A') (A") (A") (A') (A') (A")
                 (A') (A") (A') (A") (A') (A') (A') (A") (A') (A')
                 (A') (A") (A") (A') (A') (A') (A") (A') (A") (A')
                 (A') (A") (A') (A') (A') (A') (A') (A") (A') (A")
                 (A') (A") (A') (A") (A') (A') (A') (A") (A') (A')
                 (A') (A') (A') (A') (A')
 Requested convergence on RMS density matrix=1.00D-08 within 128 cycles.
 Requested convergence on MAX density matrix=1.00D-06.
 Requested convergence on             energy=1.00D-06.
 No special actions if energy rises.
 SCF Done:  E(RmPW+HF-PW91) =  -258.233432865     A.U. after    9 cycles
             Convg  =    0.8734D-08             -V/T =  2.0058
             S**2   =   0.0000
 ***** Axes restored to original set *****
 -------------------------------------------------------------------
 Center     Atomic                   Forces (Hartrees/Bohr)
 Number     Number              X              Y              Z
 -------------------------------------------------------------------
    1          7           0.002147537   -0.000063630    0.000000000
    2          7           0.000194075   -0.000125194    0.000000000
    3          7          -0.001172158    0.000001598    0.000000000
    4          1          -0.000127855   -0.000107284    0.000000000
    5          7          -0.000774801    0.000680497    0.000000000
    6          6          -0.000276460   -0.000237124    0.000000000
    7          1           0.000009663   -0.000148862    0.000000000
 -------------------------------------------------------------------
 Cartesian Forces:  Max     0.002147537 RMS     0.000589165

 GradGradGradGradGradGradGradGradGradGradGradGradGradGradGradGradGradGrad
 Berny optimization.
 Internal  Forces:  Max     0.001281861 RMS     0.000442434
 Search for a local minimum.
 Step number   4 out of a maximum of  36
 All quantities printed in internal units (Hartrees-Bohrs-Radians)
 Update second derivatives using D2CorX and points  1  2  3  4
 Trust test= 7.99D-01 RLast= 1.02D-02 DXMaxT set to 3.00D-01
     Eigenvalues ---    0.02505   0.02638   0.02675   0.02834   0.15879
     Eigenvalues ---    0.16075   0.23553   0.26209   0.37671   0.48072
     Eigenvalues ---    0.50151   0.52986   0.59821   0.69297   0.72729
     Eigenvalues --- 1000.000001000.000001000.000001000.000001000.00000
     Eigenvalues --- 1000.000001000.000001000.000001000.000001000.00000
     Eigenvalues --- 1000.00000
 RFO step:  Lambda=-7.19808797D-06.
 Quartic linear search produced a step of -0.16479.
 Iteration  1 RMS(Cart)=  0.00077329 RMS(Int)=  0.00000050
 Iteration  2 RMS(Cart)=  0.00000035 RMS(Int)=  0.00000029
 Variable       Old X    -DE/DX   Delta X   Delta X   Delta X     New X
                                 (Linear)    (Quad)   (Total)
    R1        2.43244  -0.00068  -0.00107   0.00099  -0.00007   2.43236
    R2        2.56053  -0.00128   0.00054  -0.00302  -0.00247   2.55805
    R3        2.53332  -0.00101   0.00016  -0.00170  -0.00153   2.53178
    R4        1.90685  -0.00016  -0.00001  -0.00027  -0.00028   1.90658
    R5        2.53569   0.00023   0.00061  -0.00064  -0.00003   2.53566
    R6        2.48300  -0.00057  -0.00044   0.00015  -0.00029   2.48270
    R7        2.04462   0.00006   0.00014  -0.00009   0.00005   2.04468
    A1        1.94219   0.00097   0.00067   0.00135   0.00202   1.94421
    A2        1.85206  -0.00059  -0.00035  -0.00117  -0.00152   1.85055
    A3        2.10344  -0.00014  -0.00024  -0.00013  -0.00037   2.10307
    A4        1.89685   0.00017   0.00014   0.00040   0.00054   1.89739
    A5        2.28290  -0.00004   0.00010  -0.00027  -0.00017   2.28273
    A6        1.84545  -0.00039  -0.00032  -0.00074  -0.00106   1.84439
    A7        1.88823  -0.00017  -0.00014   0.00016   0.00002   1.88825
    A8        2.18128   0.00021   0.00012   0.00048   0.00060   2.18188
    A9        2.21368  -0.00004   0.00002  -0.00065  -0.00062   2.21305
    D1        0.00000   0.00000   0.00000   0.00000   0.00000   0.00000
    D2        0.00000   0.00000   0.00000   0.00000   0.00000   0.00000
    D3        3.14159   0.00000   0.00000   0.00000   0.00000   3.14159
    D4        0.00000   0.00000   0.00000   0.00000   0.00000   0.00000
    D5        0.00000   0.00000   0.00000   0.00000   0.00000   0.00000
    D6        3.14159   0.00000   0.00000   0.00000   0.00000   3.14159
    D7        3.14159   0.00000   0.00000   0.00000   0.00000   3.14159
    D8        0.00000   0.00000   0.00000   0.00000   0.00000   0.00000
    D9        0.00000   0.00000   0.00000   0.00000   0.00000   0.00000
   D10        3.14159   0.00000   0.00000   0.00000   0.00000   3.14159
         Item               Value     Threshold  Converged?
 Maximum Force            0.001282     0.000450     NO 
 RMS     Force            0.000442     0.000300     NO 
 Maximum Displacement     0.003217     0.001800     NO 
 RMS     Displacement     0.000773     0.001200     YES
 Predicted change in Energy=-4.271262D-06
 GradGradGradGradGradGradGradGradGradGradGradGradGradGradGradGradGradGrad

                          Input orientation:                          
 ---------------------------------------------------------------------
 Center     Atomic     Atomic              Coordinates (Angstroms)
 Number     Number      Type              X           Y           Z
 ---------------------------------------------------------------------
    1          7             0       -1.145084   -0.267336    0.000000
    2          7             0       -0.682637    0.933872    0.000000
    3          7             0        0.651971    0.816464    0.000000
    4          1             0        1.238201    1.637589    0.000000
    5          7             0       -0.146275   -1.181001    0.000000
    6          6             0        0.969417   -0.487258    0.000000
    7          1             0        1.977313   -0.880784    0.000000
 ---------------------------------------------------------------------
                    Distance matrix (angstroms):
                    1          2          3          4          5
     1  N    0.000000
     2  N    1.287151   0.000000
     3  N    2.098577   1.339762   0.000000
     4  H    3.051030   2.045687   1.008917   0.000000
     5  N    1.353663   2.181827   2.151060   3.140258   0.000000
     6  C    2.125907   2.179196   1.341813   2.141780   1.313791
     7  H    3.182088   3.219986   2.153412   2.624594   2.144704
                    6          7
     6  C    0.000000
     7  H    1.081997   0.000000
 Stoichiometry    CH2N4
 Framework group  CS[SG(CH2N4)]
 Deg. of freedom    11
 Full point group                 CS      NOp   2
 Largest Abelian subgroup         CS      NOp   2
 Largest concise Abelian subgroup C1      NOp   1
                         Standard orientation:                         
 ---------------------------------------------------------------------
 Center     Atomic     Atomic              Coordinates (Angstroms)
 Number     Number      Type              X           Y           Z
 ---------------------------------------------------------------------
    1          7             0       -0.720654   -0.921123    0.000000
    2          7             0       -1.113397    0.304646    0.000000
    3          7             0        0.000000    1.049837    0.000000
    4          1             0       -0.058030    2.057084    0.000000
    5          7             0        0.630294   -1.006808    0.000000
    6          6             0        1.064624    0.233113    0.000000
    7          1             0        2.096578    0.558366    0.000000
 ---------------------------------------------------------------------
 Rotational constants (GHZ):     10.6033407     10.4306203      5.2581357
 Standard basis: Aug-CC-pVDZ (5D, 7F)
 There are    94 symmetry adapted basis functions of A'  symmetry.
 There are    39 symmetry adapted basis functions of A"  symmetry.
 Integral buffers will be    262144 words long.
 Raffenetti 2 integral format.
 Two-electron integral symmetry is turned on.
   133 basis functions,   237 primitive gaussians,   143 cartesian basis functions
    18 alpha electrons       18 beta electrons
       nuclear repulsion energy       167.3393061604 Hartrees.
 NAtoms=    7 NActive=    7 NUniq=    7 SFac= 1.00D+00 NAtFMM=   60 Big=F
 One-electron integrals computed using PRISM.
 NBasis=   133 RedAO= T  NBF=    94    39
 NBsUse=   133 1.00D-06 NBFU=    94    39
 Initial guess read from the read-write file:
 Initial guess orbital symmetries:
       Occupied  (A') (A') (A') (A') (A') (A') (A') (A') (A') (A')
                 (A') (A") (A') (A') (A") (A") (A') (A')
       Virtual   (A") (A') (A") (A') (A') (A") (A') (A') (A') (A')
                 (A') (A") (A") (A') (A') (A') (A') (A") (A") (A')
                 (A') (A') (A') (A') (A') (A") (A') (A') (A') (A")
                 (A') (A') (A') (A') (A") (A') (A') (A") (A') (A')
                 (A') (A') (A") (A') (A") (A') (A') (A") (A") (A')
                 (A') (A") (A') (A") (A') (A") (A') (A') (A') (A")
                 (A') (A') (A') (A") (A') (A") (A") (A') (A') (A")
                 (A') (A") (A') (A") (A') (A') (A') (A") (A') (A')
                 (A') (A") (A") (A') (A') (A') (A") (A') (A") (A')
                 (A') (A") (A') (A') (A') (A') (A') (A") (A') (A")
                 (A') (A") (A') (A") (A') (A') (A') (A") (A') (A')
                 (A') (A') (A') (A') (A')
 Requested convergence on RMS density matrix=1.00D-08 within 128 cycles.
 Requested convergence on MAX density matrix=1.00D-06.
 Requested convergence on             energy=1.00D-06.
 No special actions if energy rises.
 SCF Done:  E(RmPW+HF-PW91) =  -258.233437430     A.U. after    9 cycles
             Convg  =    0.7197D-08             -V/T =  2.0058
             S**2   =   0.0000
 ***** Axes restored to original set *****
 -------------------------------------------------------------------
 Center     Atomic                   Forces (Hartrees/Bohr)
 Number     Number              X              Y              Z
 -------------------------------------------------------------------
    1          7           0.000224498   -0.000035342    0.000000000
    2          7           0.000080859   -0.000479392    0.000000000
    3          7          -0.000329525    0.000131852    0.000000000
    4          1           0.000025545   -0.000035635    0.000000000
    5          7          -0.000395122    0.000714361    0.000000000
    6          6           0.000362737   -0.000250391    0.000000000
    7          1           0.000031008   -0.000045452    0.000000000
 -------------------------------------------------------------------
 Cartesian Forces:  Max     0.000714361 RMS     0.000246850

 GradGradGradGradGradGradGradGradGradGradGradGradGradGradGradGradGradGrad
 Berny optimization.
 Internal  Forces:  Max     0.000442800 RMS     0.000162336
 Search for a local minimum.
 Step number   5 out of a maximum of  36
 All quantities printed in internal units (Hartrees-Bohrs-Radians)
 Update second derivatives using D2CorX and points  1  2  3  4  5

 Trust test= 1.07D+00 RLast= 4.17D-03 DXMaxT set to 3.00D-01
     Eigenvalues ---    0.02505   0.02638   0.02675   0.02834   0.15279
     Eigenvalues ---    0.16056   0.19167   0.38131   0.40322   0.45759
     Eigenvalues ---    0.50159   0.52373   0.58451   0.65186   0.76119
     Eigenvalues --- 1000.000001000.000001000.000001000.000001000.00000
     Eigenvalues --- 1000.000001000.000001000.000001000.000001000.00000
     Eigenvalues --- 1000.00000
 RFO step:  Lambda=-1.94818855D-06.
 Quartic linear search produced a step of  0.04887.
 Iteration  1 RMS(Cart)=  0.00045546 RMS(Int)=  0.00000018
 Iteration  2 RMS(Cart)=  0.00000017 RMS(Int)=  0.00000008
 Variable       Old X    -DE/DX   Delta X   Delta X   Delta X     New X
                                 (Linear)    (Quad)   (Total)
    R1        2.43236  -0.00037   0.00000  -0.00029  -0.00029   2.43207
    R2        2.55805  -0.00044  -0.00012  -0.00140  -0.00152   2.55653
    R3        2.53178  -0.00010  -0.00007  -0.00048  -0.00055   2.53123
    R4        1.90658  -0.00002  -0.00001  -0.00008  -0.00010   1.90648
    R5        2.53566   0.00006   0.00000   0.00007   0.00007   2.53573
    R6        2.48270   0.00001  -0.00001   0.00006   0.00005   2.48275
    R7        2.04468   0.00005   0.00000   0.00011   0.00011   2.04479
    A1        1.94421  -0.00013   0.00010  -0.00048  -0.00038   1.94383
    A2        1.85055   0.00016  -0.00007   0.00011   0.00003   1.85058
    A3        2.10307   0.00004  -0.00002  -0.00003  -0.00005   2.10302
    A4        1.89739  -0.00002   0.00003   0.00044   0.00047   1.89785
    A5        2.28273  -0.00002  -0.00001  -0.00041  -0.00042   2.28231
    A6        1.84439   0.00033  -0.00005   0.00122   0.00117   1.84556
    A7        1.88825  -0.00035   0.00000  -0.00129  -0.00129   1.88696
    A8        2.18188   0.00019   0.00003   0.00090   0.00093   2.18281
    A9        2.21305   0.00015  -0.00003   0.00039   0.00036   2.21342
    D1        0.00000   0.00000   0.00000   0.00000   0.00000   0.00000
    D2        0.00000   0.00000   0.00000   0.00000   0.00000   0.00000
    D3        3.14159   0.00000   0.00000   0.00000   0.00000   3.14159
    D4        0.00000   0.00000   0.00000   0.00000   0.00000   0.00000
    D5        0.00000   0.00000   0.00000   0.00000   0.00000   0.00000
    D6        3.14159   0.00000   0.00000   0.00000   0.00000   3.14159
    D7        3.14159   0.00000   0.00000   0.00000   0.00000   3.14159
    D8        0.00000   0.00000   0.00000   0.00000   0.00000   0.00000
    D9        0.00000   0.00000   0.00000   0.00000   0.00000   0.00000
   D10        3.14159   0.00000   0.00000   0.00000   0.00000   3.14159
         Item               Value     Threshold  Converged?
 Maximum Force            0.000443     0.000450     YES
 RMS     Force            0.000162     0.000300     YES
 Maximum Displacement     0.001664     0.001800     YES
 RMS     Displacement     0.000455     0.001200     YES
 Predicted change in Energy=-9.883527D-07
 Optimization completed.
    -- Stationary point found.
                           ----------------------------
                           !   Optimized Parameters   !
                           ! (Angstroms and Degrees)  !
 --------------------------                            --------------------------
 ! Name  Definition              Value          Derivative Info.                !
 --------------------------------------------------------------------------------
 ! R1    R(1,2)                  1.2872         -DE/DX =   -0.0004              !
 ! R2    R(1,5)                  1.3537         -DE/DX =   -0.0004              !
 ! R3    R(2,3)                  1.3398         -DE/DX =   -0.0001              !
 ! R4    R(3,4)                  1.0089         -DE/DX =    0.0                 !
 ! R5    R(3,6)                  1.3418         -DE/DX =    0.0001              !
 ! R6    R(5,6)                  1.3138         -DE/DX =    0.0                 !
 ! R7    R(6,7)                  1.082          -DE/DX =    0.0                 !
 ! A1    A(2,1,5)              111.3949         -DE/DX =   -0.0001              !
 ! A2    A(1,2,3)              106.0285         -DE/DX =    0.0002              !
 ! A3    A(2,3,4)              120.4969         -DE/DX =    0.0                 !
 ! A4    A(2,3,6)              108.7123         -DE/DX =    0.0                 !
 ! A5    A(4,3,6)              130.7909         -DE/DX =    0.0                 !
 ! A6    A(1,5,6)              105.6756         -DE/DX =    0.0003              !
 ! A7    A(3,6,5)              108.1888         -DE/DX =   -0.0003              !
 ! A8    A(3,6,7)              125.0126         -DE/DX =    0.0002              !
 ! A9    A(5,6,7)              126.7987         -DE/DX =    0.0002              !
 ! D1    D(5,1,2,3)              0.0            -DE/DX =    0.0                 !
 ! D2    D(2,1,5,6)              0.0            -DE/DX =    0.0                 !
 ! D3    D(1,2,3,4)            180.0            -DE/DX =    0.0                 !
 ! D4    D(1,2,3,6)              0.0            -DE/DX =    0.0                 !
 ! D5    D(2,3,6,5)              0.0            -DE/DX =    0.0                 !
 ! D6    D(2,3,6,7)            180.0            -DE/DX =    0.0                 !
 ! D7    D(4,3,6,5)            180.0            -DE/DX =    0.0                 !
 ! D8    D(4,3,6,7)              0.0            -DE/DX =    0.0                 !
 ! D9    D(1,5,6,3)              0.0            -DE/DX =    0.0                 !
 ! D10   D(1,5,6,7)            180.0            -DE/DX =    0.0                 !
 --------------------------------------------------------------------------------
 GradGradGradGradGradGradGradGradGradGradGradGradGradGradGradGradGradGrad

                          Input orientation:                          
 ---------------------------------------------------------------------
 Center     Atomic     Atomic              Coordinates (Angstroms)
 Number     Number      Type              X           Y           Z
 ---------------------------------------------------------------------
    1          7             0       -1.145084   -0.267336    0.000000
    2          7             0       -0.682637    0.933872    0.000000
    3          7             0        0.651971    0.816464    0.000000
    4          1             0        1.238201    1.637589    0.000000
    5          7             0       -0.146275   -1.181001    0.000000
    6          6             0        0.969417   -0.487258    0.000000
    7          1             0        1.977313   -0.880784    0.000000
 ---------------------------------------------------------------------
                    Distance matrix (angstroms):
                    1          2          3          4          5
     1  N    0.000000
     2  N    1.287151   0.000000
     3  N    2.098577   1.339762   0.000000
     4  H    3.051030   2.045687   1.008917   0.000000
     5  N    1.353663   2.181827   2.151060   3.140258   0.000000
     6  C    2.125907   2.179196   1.341813   2.141780   1.313791
     7  H    3.182088   3.219986   2.153412   2.624594   2.144704
                    6          7
     6  C    0.000000
     7  H    1.081997   0.000000
 Stoichiometry    CH2N4
 Framework group  CS[SG(CH2N4)]
 Deg. of freedom    11
 Full point group                 CS      NOp   2
 Largest Abelian subgroup         CS      NOp   2
 Largest concise Abelian subgroup C1      NOp   1
                         Standard orientation:                         
 ---------------------------------------------------------------------
 Center     Atomic     Atomic              Coordinates (Angstroms)
 Number     Number      Type              X           Y           Z
 ---------------------------------------------------------------------
    1          7             0       -0.720654   -0.921123    0.000000
    2          7             0       -1.113397    0.304646    0.000000
    3          7             0        0.000000    1.049837    0.000000
    4          1             0       -0.058030    2.057084    0.000000
    5          7             0        0.630294   -1.006808    0.000000
    6          6             0        1.064624    0.233113    0.000000
    7          1             0        2.096578    0.558366    0.000000
 ---------------------------------------------------------------------
 Rotational constants (GHZ):     10.6033407     10.4306203      5.2581357

 **********************************************************************

            Population analysis using the SCF density.

 **********************************************************************

 Orbital symmetries:
       Occupied  (A') (A') (A') (A') (A') (A') (A') (A') (A') (A')
                 (A') (A") (A') (A') (A") (A") (A') (A')
       Virtual   (A") (A') (A") (A') (A') (A") (A') (A') (A') (A')
                 (A') (A") (A") (A') (A') (A') (A') (A") (A") (A')
                 (A') (A') (A') (A') (A') (A") (A') (A') (A') (A")
                 (A') (A') (A') (A') (A") (A') (A') (A") (A') (A')
                 (A') (A') (A") (A') (A") (A') (A') (A") (A") (A')
                 (A') (A") (A') (A") (A') (A") (A') (A') (A') (A")
                 (A') (A') (A') (A") (A') (A") (A") (A') (A') (A")
                 (A') (A") (A') (A") (A') (A') (A') (A") (A') (A')
                 (A') (A") (A") (A') (A') (A') (A") (A') (A") (A')
                 (A') (A") (A') (A') (A') (A') (A') (A") (A') (A")
                 (A') (A") (A') (A") (A') (A') (A') (A") (A') (A')
                 (A') (A') (A') (A') (A')
 The electronic state is 1-A'.
 Alpha  occ. eigenvalues --  -14.53076 -14.49605 -14.47980 -14.45102 -10.34521
 Alpha  occ. eigenvalues --   -1.19215  -0.98920  -0.93297  -0.71244  -0.69852
 Alpha  occ. eigenvalues --   -0.62509  -0.52748  -0.52420  -0.40751  -0.35675
 Alpha  occ. eigenvalues --   -0.33197  -0.33086  -0.31648
 Alpha virt. eigenvalues --   -0.02727  -0.02341   0.00520   0.00955   0.03752
 Alpha virt. eigenvalues --    0.04612   0.05995   0.07357   0.09210   0.09265
 Alpha virt. eigenvalues --    0.11071   0.11328   0.12698   0.13954   0.14977
 Alpha virt. eigenvalues --    0.17356   0.17786   0.18484   0.19773   0.20129
 Alpha virt. eigenvalues --    0.20515   0.22732   0.24427   0.25355   0.26556
 Alpha virt. eigenvalues --    0.28254   0.29464   0.30990   0.31619   0.34500
 Alpha virt. eigenvalues --    0.37509   0.39281   0.42346   0.43759   0.45785
 Alpha virt. eigenvalues --    0.46095   0.47802   0.49019   0.50882   0.53683
 Alpha virt. eigenvalues --    0.56680   0.58364   0.60745   0.61765   0.64288
 Alpha virt. eigenvalues --    0.64611   0.66847   0.67726   0.72211   0.72259
 Alpha virt. eigenvalues --    0.78234   0.81870   0.82119   0.82649   0.84262
 Alpha virt. eigenvalues --    0.86078   0.87361   0.89663   0.92072   0.94854
 Alpha virt. eigenvalues --    0.96364   0.99529   1.03251   1.03408   1.11963
 Alpha virt. eigenvalues --    1.12082   1.13617   1.16980   1.21472   1.29578
 Alpha virt. eigenvalues --    1.32706   1.36816   1.39492   1.42765   1.48392
 Alpha virt. eigenvalues --    1.52832   1.57285   1.61363   1.63478   1.70091
 Alpha virt. eigenvalues --    1.78163   1.78500   1.85132   1.85342   1.89065
 Alpha virt. eigenvalues --    1.92345   1.96549   2.02237   2.04997   2.09751
 Alpha virt. eigenvalues --    2.12243   2.12485   2.15678   2.24092   2.26637
 Alpha virt. eigenvalues --    2.28782   2.35887   2.36485   2.40218   2.50486
 Alpha virt. eigenvalues --    2.52500   2.55893   2.58589   2.61101   2.61481
 Alpha virt. eigenvalues --    2.70862   2.73568   2.84650   2.93142   2.97259
 Alpha virt. eigenvalues --    3.08627   3.18684   3.22309   3.55578   3.83961
          Condensed to atoms (all electrons):
              1          2          3          4          5          6
     1  N    8.807400  -0.989321   0.270629   0.034738  -0.850841  -0.017403
     2  N   -0.989321   8.789033  -0.672370  -0.219673   0.477041  -0.299862
     3  N    0.270629  -0.672370   7.027116   0.522668  -0.330343   0.298163
     4  H    0.034738  -0.219673   0.522668   0.841449  -0.011959  -0.142664
     5  N   -0.850841   0.477041  -0.330343  -0.011959   7.814059   0.256721
     6  C   -0.017403  -0.299862   0.298163  -0.142664   0.256721   4.908655
     7  H    0.000713   0.015529  -0.092550   0.009767  -0.053270   0.141290
              7
     1  N    0.000713
     2  N    0.015529
     3  N   -0.092550
     4  H    0.009767
     5  N   -0.053270
     6  C    0.141290
     7  H    1.118287
 Mulliken atomic charges:
              1
     1  N   -0.255914
     2  N   -0.100377
     3  N   -0.023312
     4  H   -0.034325
     5  N   -0.301408
     6  C    0.855101
     7  H   -0.139766
 Sum of Mulliken charges=   0.00000
 Atomic charges with hydrogens summed into heavy atoms:
              1
     1  N   -0.255914
     2  N   -0.100377
     3  N   -0.057637
     4  H    0.000000
     5  N   -0.301408
     6  C    0.715335
     7  H    0.000000
 Sum of Mulliken charges=   0.00000
 Electronic spatial extent (au):  <R**2>=   250.3730
 Charge=     0.0000 electrons
 Dipole moment (field-independent basis, Debye):
    X=     2.5402    Y=     4.7629    Z=     0.0000  Tot=     5.3980
 Quadrupole moment (field-independent basis, Debye-Ang):
   XX=   -29.0244   YY=   -26.5242   ZZ=   -28.7431
   XY=     1.8750   XZ=     0.0000   YZ=     0.0000
 Traceless Quadrupole moment (field-independent basis, Debye-Ang):
   XX=    -0.9272   YY=     1.5730   ZZ=    -0.6459
   XY=     1.8750   XZ=     0.0000   YZ=     0.0000
 Octapole moment (field-independent basis, Debye-Ang**2):
  XXX=    12.4386  YYY=    22.8822  ZZZ=     0.0000  XYY=    -0.6028
  XXY=     4.7675  XXZ=     0.0000  XZZ=    -0.4575  YZZ=     0.7777
  YYZ=     0.0000  XYZ=     0.0000
 Hexadecapole moment (field-independent basis, Debye-Ang**3):
 XXXX=  -145.6399 YYYY=  -124.2653 ZZZZ=   -27.7656 XXXY=     7.4071
 XXXZ=     0.0000 YYYX=    -0.0381 YYYZ=     0.0000 ZZZX=     0.0000
 ZZZY=     0.0000 XXYY=   -55.4085 XXZZ=   -31.6867 YYZZ=   -30.1662
 XXYZ=     0.0000 YYXZ=     0.0000 ZZXY=     0.0666
 N-N= 1.673393061604D+02 E-N=-9.370608003946D+02  KE= 2.567448444491D+02
 Symmetry A'   KE= 2.473784353913D+02
 Symmetry A"   KE= 9.366409057774D+00
 1|1|UNPC-UNK|FOpt|RmPW1PW91|Aug-CC-pVDZ|C1H2N4|PCUSER|09-Dec-2004|0||#
 MPW1PW91/AUG-CC-PVDZ OPT FREQ||1H tetrazole c CH-NH-N=N-N= casno=28894
 8 method=25 basis=17||0,1|N,-1.1389128475,-0.2658703592,0.|N,-0.676465
 732,0.9353374436,0.|N,0.658141746,0.8179288086,0.|H,1.2443721864,1.639
 0545106,0.|N,-0.1401037419,-1.1795353107,0.|C,0.9755879321,-0.48579323
 85,0.|H,1.9834842485,-0.879319155,0.||Version=x86-Win32-G03RevB.05|Sta
 te=1-A'|HF=-258.2334374|RMSD=7.197e-009|RMSF=2.468e-004|Dipole=1.95336
 29,0.8334124,0.|PG=CS [SG(C1H2N4)]||@


 THE CAUTIOUS SELDOM ERR...CONFUCIUS                   
 Job cpu time:  0 days  0 hours 15 minutes 35.0 seconds.
 File lengths (MBytes):  RWF=     19 Int=      0 D2E=      0 Chk=      5 Scr=      1
 Normal termination of Gaussian 03 at Thu Dec 09 18:19:45 2004.
 Link1:  Proceeding to internal job step number  2.
 ----------------------------------------------------------------------
 #N Geom=AllCheck Guess=Read SCRF=Check GenChk RmPW1PW91/Aug-CC-pVDZ Fr
 eq
 ----------------------------------------------------------------------
 1/10=4,29=7,30=1,38=1,40=1,46=1/1,3;
 2/40=1/2;
 3/5=16,7=10,11=2,16=1,25=1,30=1,70=2,71=2,74=-7/1,2,3;
 4/5=1,7=1/1;
 5/5=2,38=6/2;
 8/6=4,10=90,11=11,27=1073741824/1;
 11/6=1,8=1,9=11,15=111,16=1/1,2,10;
 10/6=1/2;
 6/7=2,8=2,9=2,10=2,18=1,28=1/1;
 7/8=1,10=1,25=1/1,2,3,16;
 1/10=4,30=1,46=1/3;
 99//99;
 -----------------------------------------------------------
 1H tetrazole c CH-NH-N=N-N= casno=288948 method=25 basis=17
 -----------------------------------------------------------
 Redundant internal coordinates taken from checkpoint file:
 gxx.chk
 Charge =  0 Multiplicity = 1
 N,0,-1.1389128475,-0.2658703592,0.
 N,0,-0.676465732,0.9353374436,0.
 N,0,0.658141746,0.8179288086,0.
 H,0,1.2443721864,1.6390545106,0.
 N,0,-0.1401037419,-1.1795353107,0.
 C,0,0.9755879321,-0.4857932385,0.
 H,0,1.9834842485,-0.879319155,0.
 Recover connectivity data from disk.

 GradGradGradGradGradGradGradGradGradGradGradGradGradGradGradGradGradGrad
 Berny optimization.
 Initialization pass.
                           ----------------------------
                           !    Initial Parameters    !
                           ! (Angstroms and Degrees)  !
 --------------------------                            --------------------------
 ! Name  Definition              Value          Derivative Info.                !
 --------------------------------------------------------------------------------
 ! R1    R(1,2)                  1.2872         calculate D2E/DX2 analytically  !
 ! R2    R(1,5)                  1.3537         calculate D2E/DX2 analytically  !
 ! R3    R(2,3)                  1.3398         calculate D2E/DX2 analytically  !
 ! R4    R(3,4)                  1.0089         calculate D2E/DX2 analytically  !
 ! R5    R(3,6)                  1.3418         calculate D2E/DX2 analytically  !
 ! R6    R(5,6)                  1.3138         calculate D2E/DX2 analytically  !
 ! R7    R(6,7)                  1.082          calculate D2E/DX2 analytically  !
 ! A1    A(2,1,5)              111.3949         calculate D2E/DX2 analytically  !
 ! A2    A(1,2,3)              106.0285         calculate D2E/DX2 analytically  !
 ! A3    A(2,3,4)              120.4969         calculate D2E/DX2 analytically  !
 ! A4    A(2,3,6)              108.7123         calculate D2E/DX2 analytically  !
 ! A5    A(4,3,6)              130.7909         calculate D2E/DX2 analytically  !
 ! A6    A(1,5,6)              105.6756         calculate D2E/DX2 analytically  !
 ! A7    A(3,6,5)              108.1888         calculate D2E/DX2 analytically  !
 ! A8    A(3,6,7)              125.0126         calculate D2E/DX2 analytically  !
 ! A9    A(5,6,7)              126.7987         calculate D2E/DX2 analytically  !
 ! D1    D(5,1,2,3)              0.0            calculate D2E/DX2 analytically  !
 ! D2    D(2,1,5,6)              0.0            calculate D2E/DX2 analytically  !
 ! D3    D(1,2,3,4)            180.0            calculate D2E/DX2 analytically  !
 ! D4    D(1,2,3,6)              0.0            calculate D2E/DX2 analytically  !
 ! D5    D(2,3,6,5)              0.0            calculate D2E/DX2 analytically  !
 ! D6    D(2,3,6,7)            180.0            calculate D2E/DX2 analytically  !
 ! D7    D(4,3,6,5)            180.0            calculate D2E/DX2 analytically  !
 ! D8    D(4,3,6,7)              0.0            calculate D2E/DX2 analytically  !
 ! D9    D(1,5,6,3)              0.0            calculate D2E/DX2 analytically  !
 ! D10   D(1,5,6,7)            180.0            calculate D2E/DX2 analytically  !
 --------------------------------------------------------------------------------
 Trust Radius=3.00D-01 FncErr=1.00D-07 GrdErr=1.00D-07
 Number of steps in this run=   2 maximum allowed number of steps=   2.
 GradGradGradGradGradGradGradGradGradGradGradGradGradGradGradGradGradGrad

                          Input orientation:                          
 ---------------------------------------------------------------------
 Center     Atomic     Atomic              Coordinates (Angstroms)
 Number     Number      Type              X           Y           Z
 ---------------------------------------------------------------------
    1          7             0       -1.138913   -0.265870    0.000000
    2          7             0       -0.676466    0.935337    0.000000
    3          7             0        0.658142    0.817929    0.000000
    4          1             0        1.244372    1.639055    0.000000
    5          7             0       -0.140104   -1.179535    0.000000
    6          6             0        0.975588   -0.485793    0.000000
    7          1             0        1.983484   -0.879319    0.000000
 ---------------------------------------------------------------------
                    Distance matrix (angstroms):
                    1          2          3          4          5
     1  N    0.000000
     2  N    1.287151   0.000000
     3  N    2.098577   1.339762   0.000000
     4  H    3.051030   2.045687   1.008917   0.000000
     5  N    1.353663   2.181827   2.151060   3.140258   0.000000
     6  C    2.125907   2.179196   1.341813   2.141780   1.313791
     7  H    3.182088   3.219986   2.153412   2.624594   2.144704
                    6          7
     6  C    0.000000
     7  H    1.081997   0.000000
 Stoichiometry    CH2N4
 Framework group  CS[SG(CH2N4)]
 Deg. of freedom    11
 Full point group                 CS      NOp   2
 Largest Abelian subgroup         CS      NOp   2
 Largest concise Abelian subgroup C1      NOp   1
                         Standard orientation:                         
 ---------------------------------------------------------------------
 Center     Atomic     Atomic              Coordinates (Angstroms)
 Number     Number      Type              X           Y           Z
 ---------------------------------------------------------------------
    1          7             0       -0.720654   -0.921123    0.000000
    2          7             0       -1.113397    0.304646    0.000000
    3          7             0        0.000000    1.049837    0.000000
    4          1             0       -0.058030    2.057084    0.000000
    5          7             0        0.630294   -1.006808    0.000000
    6          6             0        1.064624    0.233113    0.000000
    7          1             0        2.096578    0.558366    0.000000
 ---------------------------------------------------------------------
 Rotational constants (GHZ):     10.6033407     10.4306203      5.2581357
 Standard basis: Aug-CC-pVDZ (5D, 7F)
 There are    94 symmetry adapted basis functions of A'  symmetry.
 There are    39 symmetry adapted basis functions of A"  symmetry.
 Integral buffers will be    262144 words long.
 Raffenetti 2 integral format.
 Two-electron integral symmetry is turned on.
   133 basis functions,   237 primitive gaussians,   143 cartesian basis functions
    18 alpha electrons       18 beta electrons
       nuclear repulsion energy       167.3393061604 Hartrees.
 NAtoms=    7 NActive=    7 NUniq=    7 SFac= 1.00D+00 NAtFMM=   60 Big=F
 One-electron integrals computed using PRISM.
 NBasis=   133 RedAO= T  NBF=    94    39
 NBsUse=   133 1.00D-06 NBFU=    94    39
 Initial guess read from the checkpoint file:
 gxx.chk
 Initial guess orbital symmetries:
       Occupied  (A') (A') (A') (A') (A') (A') (A') (A') (A') (A')
                 (A') (A") (A') (A') (A") (A") (A') (A')
       Virtual   (A") (A') (A") (A') (A') (A") (A') (A') (A') (A')
                 (A') (A") (A") (A') (A') (A') (A') (A") (A") (A')
                 (A') (A') (A') (A') (A') (A") (A') (A') (A') (A")
                 (A') (A') (A') (A') (A") (A') (A') (A") (A') (A')
                 (A') (A') (A") (A') (A") (A') (A') (A") (A") (A')
[...]
 XXXZ=     0.0000 YYYX=    -0.0381 YYYZ=     0.0000 ZZZX=     0.0000
 ZZZY=     0.0000 XXYY=   -55.4085 XXZZ=   -31.6867 YYZZ=   -30.1662
 XXYZ=     0.0000 YYXZ=     0.0000 ZZXY=     0.0666
 N-N= 1.673393061604D+02 E-N=-9.370608016761D+02  KE= 2.567448451254D+02
 Symmetry A'   KE= 2.473784357760D+02
 Symmetry A"   KE= 9.366409349331D+00
  Exact polarizability:  45.146   0.515  44.577   0.000   0.000  26.062
 Approx polarizability:  70.823   0.337  73.985   0.000   0.000  37.266
 Full mass-weighted force constant matrix:
 Low frequencies ---   -2.6638   -0.0009    0.0009    0.0011   11.2165   18.1239
 Low frequencies ---  610.5386  699.6655  751.3373
 Diagonal vibrational polarizability:
        1.0987430       1.0240535       7.1676376
 Harmonic frequencies (cm**-1), IR intensities (KM/Mole), Raman scattering
 activities (A**4/AMU), depolarization ratios for plane and unpolarized
 incident light, reduced masses (AMU), force constants (mDyne/A),
 and normal coordinates:
                     1                      2                      3
                    A"                     A"                     A"
 Frequencies --   610.5381               699.6652               751.3373
 Red. masses --     1.7662                 1.9048                 8.5376
 Frc consts  --     0.3879                 0.5494                 2.8396
 IR Inten    --    78.5519                 8.6130                 7.5191
 Atom AN      X      Y      Z        X      Y      Z        X      Y      Z
   1   7     0.00   0.00   0.00     0.00   0.00   0.03     0.00   0.00   0.51
   2   7     0.00   0.00  -0.08     0.00   0.00   0.10     0.00   0.00  -0.43
   3   7     0.00   0.00   0.21     0.00   0.00  -0.09     0.00   0.00   0.13
   4   1     0.00   0.00  -0.94     0.00   0.00  -0.81     0.00   0.00   0.63
   5   7     0.00   0.00   0.03     0.00   0.00  -0.16     0.00   0.00  -0.34
   6   6     0.00   0.00  -0.09     0.00   0.00   0.17     0.00   0.00   0.09
   7   1     0.00   0.00  -0.25     0.00   0.00   0.53     0.00   0.00   0.14
                     4                      5                      6
                    A"                     A'                     A'
 Frequencies --   865.4746               989.5305              1024.3743
 Red. masses --     1.3901                 3.9353                 5.7134
 Frc consts  --     0.6135                 2.2703                 3.5323
 IR Inten    --    18.4995                 2.6782                 1.5234
 Atom AN      X      Y      Z        X      Y      Z        X      Y      Z
   1   7     0.00   0.00   0.01     0.03   0.16   0.00     0.17  -0.09   0.00
   2   7     0.00   0.00   0.00    -0.12   0.13   0.00     0.16  -0.07   0.00
   3   7     0.00   0.00   0.03    -0.08  -0.02   0.00     0.01   0.40   0.00
   4   1     0.00   0.00   0.06     0.47   0.01   0.00    -0.02   0.42   0.00
   5   7     0.00   0.00   0.03     0.28  -0.23   0.00    -0.05  -0.19   0.00
   6   6     0.00   0.00  -0.18    -0.13  -0.10   0.00    -0.33  -0.05   0.00
   7   1     0.00   0.00   0.98    -0.37   0.64   0.00    -0.16  -0.65   0.00
                     7                      8                      9
                    A'                     A'                     A'
 Frequencies --  1094.0307              1103.3534              1157.3076
 Red. masses --     2.8083                 4.4552                 2.1266
 Frc consts  --     1.9804                 3.1955                 1.6782
 IR Inten    --    27.8191                21.5967                10.0383
 Atom AN      X      Y      Z        X      Y      Z        X      Y      Z
   1   7    -0.04  -0.01   0.00     0.36   0.00   0.00     0.16   0.13   0.00
   2   7     0.30   0.13   0.00    -0.02   0.09   0.00    -0.06   0.06   0.00
   3   7    -0.14  -0.08   0.00     0.02  -0.18   0.00    -0.15  -0.04   0.00
   4   1    -0.74  -0.12   0.00     0.67  -0.15   0.00    -0.49  -0.06   0.00
   5   7    -0.04  -0.06   0.00    -0.28   0.02   0.00     0.01   0.00   0.00
   6   6    -0.03  -0.01   0.00    -0.12   0.06   0.00     0.07  -0.10   0.00
   7   1    -0.20   0.51   0.00    -0.26   0.44   0.00     0.27  -0.77   0.00
                    10                     11                     12
                    A'                     A'                     A'
 Frequencies --  1286.6077              1333.8531              1486.6951
 Red. masses --     2.6609                10.5379                 3.5470
 Frc consts  --     2.5952                11.0464                 4.6191
 IR Inten    --     1.1234                13.3072                 8.6556
 Atom AN      X      Y      Z        X      Y      Z        X      Y      Z
   1   7    -0.06  -0.06   0.00    -0.04   0.58   0.00    -0.01  -0.01   0.00
   2   7     0.12   0.07   0.00     0.18  -0.50   0.00    -0.07   0.09   0.00
   3   7    -0.07  -0.12   0.00     0.14  -0.13   0.00     0.22  -0.14   0.00
   4   1     0.66  -0.09   0.00    -0.26  -0.19   0.00    -0.70  -0.22   0.00
   5   7     0.13   0.18   0.00    -0.03   0.12   0.00     0.07  -0.12   0.00
   6   6    -0.18  -0.03   0.00    -0.25  -0.08   0.00    -0.18   0.28   0.00
   7   1    -0.02  -0.65   0.00    -0.37   0.13   0.00     0.03  -0.49   0.00
                    13                     14                     15
                    A'                     A'                     A'
 Frequencies --  1530.3403              3314.7627              3685.5802
 Red. masses --     3.5417                 1.1022                 1.0845
 Frc consts  --     4.8869                 7.1353                 8.6792
 IR Inten    --    16.1191                 1.8470                96.3333
 Atom AN      X      Y      Z        X      Y      Z        X      Y      Z
   1   7     0.06  -0.10   0.00     0.00   0.00   0.00     0.00   0.00   0.00
   2   7    -0.11   0.08   0.00     0.00   0.00   0.00     0.00   0.00   0.00
   3   7     0.18   0.03   0.00     0.00   0.00   0.00     0.01  -0.08   0.00
   4   1    -0.73  -0.02   0.00     0.01   0.02   0.00    -0.06   1.00   0.00
   5   7     0.05   0.21   0.00     0.00   0.00   0.00     0.00   0.00   0.00
   6   6    -0.12  -0.29   0.00     0.09   0.03   0.00     0.00   0.00   0.00
   7   1    -0.36   0.35   0.00    -0.95  -0.30   0.00     0.02   0.00   0.00

 -------------------
 - Thermochemistry -
 -------------------
 Temperature   298.150 Kelvin.  Pressure   1.00000 Atm.
 Atom  1 has atomic number  7 and mass  14.00307
 Atom  2 has atomic number  7 and mass  14.00307
 Atom  3 has atomic number  7 and mass  14.00307
 Atom  4 has atomic number  1 and mass   1.00783
 Atom  5 has atomic number  7 and mass  14.00307
 Atom  6 has atomic number  6 and mass  12.00000
 Atom  7 has atomic number  1 and mass   1.00783
 Molecular mass:    70.02795 amu.
 Principal axes and moments of inertia in atomic units:
                           1         2         3
     EIGENVALUES --   170.20496 173.02338 343.22834
           X            0.80229   0.59694   0.00000
           Y           -0.59694   0.80229   0.00000
           Z            0.00000   0.00000   1.00000
 This molecule is an asymmetric top.
 Rotational symmetry number  1.
 Rotational temperatures (Kelvin)      0.50888     0.50059     0.25235
 Rotational constants (GHZ):          10.60334    10.43062     5.25814
 Zero-point vibrational energy     125209.8 (Joules/Mol)
                                   29.92587 (Kcal/Mol)
 Warning -- explicit consideration of   1 degrees of freedom as
           vibrations may cause significant error
 Vibrational temperatures:    878.43  1006.66  1081.01  1245.22  1423.71
          (Kelvin)           1473.84  1574.06  1587.48  1665.11  1851.14
                             1919.11  2139.02  2201.82  4769.20  5302.72
 
 Zero-point correction=                           0.047690 (Hartree/Particle)
 Thermal correction to Energy=                    0.051118
 Thermal correction to Enthalpy=                  0.052062
 Thermal correction to Gibbs Free Energy=         0.021622
 Sum of electronic and zero-point Energies=           -258.185748
 Sum of electronic and thermal Energies=              -258.182320
 Sum of electronic and thermal Enthalpies=            -258.181376
 Sum of electronic and thermal Free Energies=         -258.211816
 
                     E (Thermal)             CV                S
                      KCal/Mol        Cal/Mol-Kelvin    Cal/Mol-Kelvin
 Total                   32.077             11.054             64.066
 Electronic               0.000              0.000              0.000
 Translational            0.889              2.981             38.656
 Rotational               0.889              2.981             23.829
 Vibrational             30.299              5.092              1.582
 Vibration  1             0.970              1.010              0.432
                       Q            Log10(Q)             Ln(Q)
 Total Bot       0.113413D-09         -9.945339        -22.899989
 Total V=0       0.978252D+12         11.990451         27.609033
 Vib (Bot)       0.136811D-21        -21.863878        -50.343439
 Vib (Bot)  1    0.241916D+00         -0.616335         -1.419163
 Vib (V=0)       0.118008D+01          0.071912          0.165584
 Vib (V=0)  1    0.105545D+01          0.023437          0.053966
 Electronic      0.100000D+01          0.000000          0.000000
 Translational   0.230336D+08          7.362362         16.952466
 Rotational      0.359896D+05          4.556176         10.490984
 ***** Axes restored to original set *****
 -------------------------------------------------------------------
 Center     Atomic                   Forces (Hartrees/Bohr)
 Number     Number              X              Y              Z
 -------------------------------------------------------------------
    1          7           0.000224551   -0.000035355    0.000000000
    2          7           0.000080800   -0.000479313    0.000000000
    3          7          -0.000329542    0.000131675    0.000000000
    4          1           0.000025577   -0.000035585    0.000000000
    5          7          -0.000394944    0.000714407    0.000000000
    6          6           0.000362608   -0.000250403    0.000000000
    7          1           0.000030950   -0.000045425    0.000000000
 -------------------------------------------------------------------
 Cartesian Forces:  Max     0.000714407 RMS     0.000246824

 GradGradGradGradGradGradGradGradGradGradGradGradGradGradGradGradGradGrad
 Berny optimization.
 Internal  Forces:  Max     0.000442789 RMS     0.000162321
 Search for a local minimum.
 Step number   1 out of a maximum of   2
 All quantities printed in internal units (Hartrees-Bohrs-Radians)
 Second derivative matrix not updated -- analytic derivatives used.
     Eigenvalues ---    0.00892   0.02565   0.07406   0.08017   0.10107
     Eigenvalues ---    0.10548   0.21366   0.26795   0.36398   0.38380
     Eigenvalues ---    0.44884   0.48033   0.49450   0.59437   0.64755
     Eigenvalues --- 1000.000001000.000001000.000001000.000001000.00000
     Eigenvalues --- 1000.000001000.000001000.000001000.000001000.00000
     Eigenvalues --- 1000.00000
 Angle between quadratic step and forces=  22.91 degrees.
 Linear search not attempted -- first point.
 Iteration  1 RMS(Cart)=  0.00041788 RMS(Int)=  0.00000016
 Iteration  2 RMS(Cart)=  0.00000015 RMS(Int)=  0.00000007
 Variable       Old X    -DE/DX   Delta X   Delta X   Delta X     New X
                                 (Linear)    (Quad)   (Total)
    R1        2.43236  -0.00037   0.00000  -0.00037  -0.00037   2.43199
    R2        2.55805  -0.00044   0.00000  -0.00154  -0.00154   2.55651
    R3        2.53178  -0.00010   0.00000  -0.00054  -0.00054   2.53124
    R4        1.90658  -0.00002   0.00000  -0.00003  -0.00003   1.90655
    R5        2.53566   0.00006   0.00000   0.00042   0.00042   2.53608
    R6        2.48270   0.00001   0.00000   0.00018   0.00018   2.48289
    R7        2.04468   0.00005   0.00000   0.00006   0.00006   2.04474
    A1        1.94421  -0.00013   0.00000  -0.00028  -0.00028   1.94393
    A2        1.85055   0.00016   0.00000   0.00023   0.00023   1.85077
    A3        2.10307   0.00004   0.00000   0.00008   0.00008   2.10315
    A4        1.89739  -0.00002   0.00000   0.00018   0.00018   1.89756
    A5        2.28273  -0.00002   0.00000  -0.00026  -0.00026   2.28247
    A6        1.84439   0.00033   0.00000   0.00102   0.00102   1.84541
    A7        1.88825  -0.00035   0.00000  -0.00114  -0.00114   1.88711
    A8        2.18188   0.00019   0.00000   0.00081   0.00081   2.18269
    A9        2.21305   0.00015   0.00000   0.00033   0.00033   2.21338
    D1        0.00000   0.00000   0.00000   0.00000   0.00000   0.00000
    D2        0.00000   0.00000   0.00000   0.00000   0.00000   0.00000
    D3        3.14159   0.00000   0.00000   0.00000   0.00000   3.14159
    D4        0.00000   0.00000   0.00000   0.00000   0.00000   0.00000
    D5        0.00000   0.00000   0.00000   0.00000   0.00000   0.00000
    D6        3.14159   0.00000   0.00000   0.00000   0.00000   3.14159
    D7        3.14159   0.00000   0.00000   0.00000   0.00000   3.14159
    D8        0.00000   0.00000   0.00000   0.00000   0.00000   0.00000
    D9        0.00000   0.00000   0.00000   0.00000   0.00000   0.00000
   D10        3.14159   0.00000   0.00000   0.00000   0.00000   3.14159
         Item               Value     Threshold  Converged?
 Maximum Force            0.000443     0.000450     YES
 RMS     Force            0.000162     0.000300     YES
 Maximum Displacement     0.001397     0.001800     YES
 RMS     Displacement     0.000418     0.001200     YES
 Predicted change in Energy=-9.612324D-07
 Optimization completed.
    -- Stationary point found.
                           ----------------------------
                           !   Optimized Parameters   !
                           ! (Angstroms and Degrees)  !
 --------------------------                            --------------------------
 ! Name  Definition              Value          Derivative Info.                !
 --------------------------------------------------------------------------------
 ! R1    R(1,2)                  1.2872         -DE/DX =   -0.0004              !
 ! R2    R(1,5)                  1.3537         -DE/DX =   -0.0004              !
 ! R3    R(2,3)                  1.3398         -DE/DX =   -0.0001              !
 ! R4    R(3,4)                  1.0089         -DE/DX =    0.0                 !
 ! R5    R(3,6)                  1.3418         -DE/DX =    0.0001              !
 ! R6    R(5,6)                  1.3138         -DE/DX =    0.0                 !
 ! R7    R(6,7)                  1.082          -DE/DX =    0.0                 !
 ! A1    A(2,1,5)              111.3949         -DE/DX =   -0.0001              !
 ! A2    A(1,2,3)              106.0285         -DE/DX =    0.0002              !
 ! A3    A(2,3,4)              120.4969         -DE/DX =    0.0                 !
 ! A4    A(2,3,6)              108.7123         -DE/DX =    0.0                 !
 ! A5    A(4,3,6)              130.7909         -DE/DX =    0.0                 !
 ! A6    A(1,5,6)              105.6756         -DE/DX =    0.0003              !
 ! A7    A(3,6,5)              108.1888         -DE/DX =   -0.0003              !
 ! A8    A(3,6,7)              125.0126         -DE/DX =    0.0002              !
 ! A9    A(5,6,7)              126.7987         -DE/DX =    0.0002              !
 ! D1    D(5,1,2,3)              0.0            -DE/DX =    0.0                 !
 ! D2    D(2,1,5,6)              0.0            -DE/DX =    0.0                 !
 ! D3    D(1,2,3,4)            180.0            -DE/DX =    0.0                 !
 ! D4    D(1,2,3,6)              0.0            -DE/DX =    0.0                 !
 ! D5    D(2,3,6,5)              0.0            -DE/DX =    0.0                 !
 ! D6    D(2,3,6,7)            180.0            -DE/DX =    0.0                 !
 ! D7    D(4,3,6,5)            180.0            -DE/DX =    0.0                 !
 ! D8    D(4,3,6,7)              0.0            -DE/DX =    0.0                 !
 ! D9    D(1,5,6,3)              0.0            -DE/DX =    0.0                 !
 ! D10   D(1,5,6,7)            180.0            -DE/DX =    0.0                 !
 --------------------------------------------------------------------------------
 GradGradGradGradGradGradGradGradGradGradGradGradGradGradGradGradGradGrad

 1|1|UNPC-UNK|Freq|RmPW1PW91|Aug-CC-pVDZ|C1H2N4|PCUSER|09-Dec-2004|0||#
 N GEOM=ALLCHECK GUESS=READ SCRF=CHECK GENCHK RMPW1PW91/AUG-CC-PVDZ FRE
 Q||1H tetrazole c CH-NH-N=N-N= casno=288948 method=25 basis=17||0,1|N,
 -1.1389128475,-0.2658703592,0.|N,-0.676465732,0.9353374436,0.|N,0.6581
 41746,0.8179288086,0.|H,1.2443721864,1.6390545106,0.|N,-0.1401037419,-
 1.1795353107,0.|C,0.9755879321,-0.4857932385,0.|H,1.9834842485,-0.8793
 19155,0.||Version=x86-Win32-G03RevB.05|State=1-A'|HF=-258.2334374|RMSD
 =4.053e-009|RMSF=2.468e-004|Dipole=1.9533642,0.8334115,0.|DipoleDeriv=
 -0.0358207,-0.1460104,0.,-0.18194,0.0991725,0.,0.,0.,-0.159579,0.24257
 21,0.2502971,0.,0.1822027,-0.3372821,0.,0.,0.,-0.1023329,-0.333565,-0.
 293403,0.,-0.2288012,-0.2257626,0.,0.,0.,-0.1114525,0.2141076,0.048328
 3,0.,0.0342516,0.2671077,0.,0.,0.,0.3261218,-0.3470938,0.1400279,0.,0.
 0330377,-0.3356016,0.,0.,0.,-0.2054441,0.2029142,0.0001354,0.,0.155402
 7,0.4184598,0.,0.,0.,0.0784947,0.0568855,0.0006247,0.,0.0058464,0.1139
 062,0.,0.,0.,0.174192|Polar=45.4258471,-0.1678322,44.2972937,0.,0.,26.
 0620266|PG=CS [SG(C1H2N4)]|NImag=0||0.57454503,0.09070449,0.50974621,0
 .,0.,0.12849985,-0.14392740,-0.11780114,0.,0.46410258,-0.05857964,-0.3
 3773565,0.,-0.02959341,0.63113047,0.,0.,-0.10013628,0.,0.,0.11920163,-
 0.11526499,-0.11125289,0.,-0.24361495,0.02503418,0.,0.69250033,-0.0337
 1410,-0.06489601,0.,0.06212651,-0.12140479,0.,0.19737407,0.95140871,0.
 ,0.,0.02784796,0.,0.,-0.07225791,0.,0.,0.09878567,-0.01077748,-0.00084
 338,0.,-0.00649637,-0.03248193,0.,-0.19902566,-0.18221377,0.,0.2014659
 5,0.00782502,0.00193421,0.,0.00204410,0.01189375,0.,-0.19001963,-0.343
 51764,0.,0.20029088,0.33877086,0.,0.,0.00785436,0.,0.,-0.01171393,0.,0
 .,-0.00857325,0.,0.,0.01461586,-0.17930298,0.07223418,0.,-0.00097976,0
 .09053780,0.,-0.00462182,-0.11410360,0.,0.00010574,-0.00071519,0.,0.50
 999659,0.03333949,-0.13990318,0.,-0.01663733,-0.12587774,0.,0.00205292
 ,-0.08292605,0.,0.00879205,-0.00589579,0.,0.09973501,0.54819609,0.,0.,
 -0.09315589,0.,0.,0.03683277,0.,0.,0.02173703,0.,0.,0.00754907,0.,0.,0
 .11308678,-0.12215079,0.06736850,0.,-0.06918932,0.00879541,0.,-0.13483
 077,0.07493409,0.,0.01516700,-0.02006094,0.,-0.31156716,-0.13888122,0.
 ,0.94999479,-0.03289811,0.03205069,0.,0.10021354,-0.05160951,0.,0.0454
 2580,-0.33458722,0.,0.00668746,-0.00300603,0.,-0.13120005,-0.20791911,
 0.,-0.09859833,0.66312228,0.,0.,0.02016344,0.,0.,0.02175631,0.,0.,-0.0
 6515037,0.,0.,-0.00880642,0.,0.,-0.08126741,0.,0.,0.14368937,-0.003121
 38,-0.00040975,0.,0.00010522,-0.00371240,0.,0.00485786,-0.00440321,0.,
 -0.00043916,0.00063576,0.,-0.01363062,0.01159907,0.,-0.32742375,0.1103
 6968,0.,0.33965183,-0.00667714,-0.00119627,0.,-0.00035227,-0.00639655,
 0.,0.03138555,-0.00407700,0.,-0.00023130,-0.00017936,0.,-0.01648817,0.
 01432577,0.,0.10644248,-0.09805110,0.,-0.11407915,0.09557450,0.,0.,0.0
 0892654,0.,0.,0.00631740,0.,0.,-0.00238913,0.,0.,-0.00092569,0.,0.,-0.
 00478235,0.,0.,-0.03038493,0.,0.,0.02323815||-0.00022455,0.00003536,0.
 ,-0.00008080,0.00047931,0.,0.00032954,-0.00013167,0.,-0.00002558,0.000
 03558,0.,0.00039494,-0.00071441,0.,-0.00036261,0.00025040,0.,-0.000030
 95,0.00004542,0.|||@


 SEE YOU NOW,
 YOUR BAIT OF FALSEHOOD TAKES THIS CARP OF TRUTH.
 AND THUS DO WE OF WISDOM AND OF REACH...
 BY INDIRECTIONS FIND DIRECTIONS OUT.    -- HAMLET, II, 1
 Job cpu time:  0 days  0 hours 12 minutes 13.0 seconds.
 File lengths (MBytes):  RWF=     23 Int=      0 D2E=      0 Chk=      5 Scr=      1
 Normal termination of Gaussian 03 at Thu Dec 09 18:31:58 2004.
