 Entering Gaussian System, Link 0=g98
 Initial command:
 /usr/local/apps/g98/g98/l1.exe /wrk/Gau-17730.inp -scrdir=/wrk/
 Entering Link 1 = /usr/local/apps/g98/g98/l1.exe PID=     12778.
  
 Copyright (c) 1988,1990,1992,1993,1995,1998 Gaussian, Inc.
                  All Rights Reserved.
  
 This is part of the Gaussian(R) 98 program.  It is based on
 the Gaussian 94(TM) system (copyright 1995 Gaussian, Inc.),
 the Gaussian 92(TM) system (copyright 1992 Gaussian, Inc.),
 the Gaussian 90(TM) system (copyright 1990 Gaussian, Inc.),
 the Gaussian 88(TM) system (copyright 1988 Gaussian, Inc.),
 the Gaussian 86(TM) system (copyright 1986 Carnegie Mellon
 University), and the Gaussian 82(TM) system (copyright 1983
 Carnegie Mellon University). Gaussian is a federally registered
 trademark of Gaussian, Inc.
  
 This software contains proprietary and confidential information,
 including trade secrets, belonging to Gaussian, Inc.
  
 This software is provided under written license and may be
 used, copied, transmitted, or stored only in accord with that
 written license.
  
 The following legend is applicable only to US Government
 contracts under DFARS:
  
                    RESTRICTED RIGHTS LEGEND
  
 Use, duplication or disclosure by the US Government is subject
 to restrictions as set forth in subparagraph (c)(1)(ii) of the
 Rights in Technical Data and Computer Software clause at DFARS
 252.227-7013.
  
 Gaussian, Inc.
 Carnegie Office Park, Building 6, Pittsburgh, PA 15106 USA
  
 The following legend is applicable only to US Government
 contracts under FAR:
  
                    RESTRICTED RIGHTS LEGEND
  
 Use, reproduction and disclosure by the US Government is subject
 to restrictions as set forth in subparagraph (c) of the
 Commercial Computer Software - Restricted Rights clause at FAR
 52.227-19.
  
 Gaussian, Inc.
 Carnegie Office Park, Building 6, Pittsburgh, PA 15106 USA
  
  
 ---------------------------------------------------------------
 Warning -- This program may not be used in any manner that
 competes with the business of Gaussian, Inc. or will provide
 assistance to any competitor of Gaussian, Inc.  The licensee
 of this program is prohibited from giving any competitor of
 Gaussian, Inc. access to this program.  By using this program,
 the user acknowledges that Gaussian, Inc. is engaged in the
 business of creating and licensing software in the field of
 computational chemistry and represents and warrants to the
 licensee that it is not a competitor of Gaussian, Inc. and that
 it will not use this program in any manner prohibited above.
 ---------------------------------------------------------------
  

 Cite this work as:
 Gaussian 98, Revision A.7,
 M. J. Frisch, G. W. Trucks, H. B. Schlegel, G. E. Scuseria, 
 M. A. Robb, J. R. Cheeseman, V. G. Zakrzewski, J. A. Montgomery, Jr., 
 R. E. Stratmann, J. C. Burant, S. Dapprich, J. M. Millam, 
 A. D. Daniels, K. N. Kudin, M. C. Strain, O. Farkas, J. Tomasi, 
 V. Barone, M. Cossi, R. Cammi, B. Mennucci, C. Pomelli, C. Adamo, 
 S. Clifford, J. Ochterski, G. A. Petersson, P. Y. Ayala, Q. Cui, 
 K. Morokuma, D. K. Malick, A. D. Rabuck, K. Raghavachari, 
 J. B. Foresman, J. Cioslowski, J. V. Ortiz, A. G. Baboul, 
 B. B. Stefanov, G. Liu, A. Liashenko, P. Piskorz, I. Komaromi, 
 R. Gomperts, R. L. Martin, D. J. Fox, T. Keith, M. A. Al-Laham, 
 C. Y. Peng, A. Nanayakkara, C. Gonzalez, M. Challacombe, 
 P. M. W. Gill, B. Johnson, W. Chen, M. W. Wong, J. L. Andres, 
 C. Gonzalez, M. Head-Gordon, E. S. Replogle, and J. A. Pople, 
 Gaussian, Inc., Pittsburgh PA, 1998.

 **********************************************
 Gaussian 98:  IBM-RS6000-G98RevA.7 11-Apr-1999
                  11-May-2001 
 **********************************************
 %mem=24000000
 --------------------------
 #MPW1PW91/6-31G** opt freq
 --------------------------
 1/14=-1,18=20,26=3,38=1/1,3;
 2/9=110,17=6,18=5/2;
 3/5=1,6=6,7=101,11=2,25=1,30=1/1,2,3;
 4//1;
 5/5=2,38=4,42=-7/2;
 6/7=2,8=2,9=2,10=2,28=1/1;
 7//1,2,3,16;
 1/14=-1,18=20/3(1);
 99//99;
 2/9=110/2;
 3/5=1,6=6,7=101,11=2,25=1,30=1/1,2,3;
 4/5=5,16=2/1;
 5/5=2,38=4,42=-7/2;
 7//1,2,3,16;
 1/14=-1,18=20/3(-5);
 2/9=110/2;
 6/7=2,8=2,9=2,10=2,19=2,28=1/1;
 99/9=1/99;
 ----------------------------------------
 1H tetrazole c CH-NH-N=N-N= casno=288948
 ----------------------------------------
 Symbolic Z-matrix:
 Charge =  0 Multiplicity = 1
 7                    -1.12329  -0.25456   0. 
 7                    -0.67158   0.91328   0. 
 7                     0.65055   0.80984   0. 
 1                     1.224     1.62189   0. 
 7                    -0.13465  -1.16105   0. 
 6                     0.96218  -0.48332   0. 
 1                     1.95569  -0.87454   0. 

 GradGradGradGradGradGradGradGradGradGradGradGradGradGradGradGradGradGrad
 Berny optimization.
 Initialization pass.
                         ----------------------------
                         !    Initial Parameters    !
                         ! (Angstroms and Degrees)  !
 ------------------------                            -------------------------
 ! Name  Definition              Value          Derivative Info.             !
 -----------------------------------------------------------------------------
 ! R1    R(1,2)                  1.2522         estimate D2E/DX2             !
 ! R2    R(1,5)                  1.3413         estimate D2E/DX2             !
 ! R3    R(2,3)                  1.3262         estimate D2E/DX2             !
 ! R4    R(3,4)                  0.9941         estimate D2E/DX2             !
 ! R5    R(3,6)                  1.3302         estimate D2E/DX2             !
 ! R6    R(5,6)                  1.2893         estimate D2E/DX2             !
 ! R7    R(6,7)                  1.0678         estimate D2E/DX2             !
 ! A1    A(2,1,5)              111.3714         estimate D2E/DX2             !
 ! A2    A(1,2,3)              106.673          estimate D2E/DX2             !
 ! A3    A(2,3,4)              120.7559         estimate D2E/DX2             !
 ! A4    A(2,3,6)              108.0227         estimate D2E/DX2             !
 ! A5    A(4,3,6)              131.2214         estimate D2E/DX2             !
 ! A6    A(1,5,6)              105.77           estimate D2E/DX2             !
 ! A7    A(3,6,5)              108.1628         estimate D2E/DX2             !
 ! A8    A(3,6,7)              125.0426         estimate D2E/DX2             !
 ! A9    A(5,6,7)              126.7945         estimate D2E/DX2             !
 ! D1    D(5,1,2,3)              0.             estimate D2E/DX2             !
 ! D2    D(2,1,5,6)              0.             estimate D2E/DX2             !
 ! D3    D(1,2,3,4)            180.             estimate D2E/DX2             !
 ! D4    D(1,2,3,6)              0.             estimate D2E/DX2             !
 ! D5    D(2,3,6,5)              0.             estimate D2E/DX2             !
 ! D6    D(2,3,6,7)            180.             estimate D2E/DX2             !
 ! D7    D(4,3,6,5)            180.             estimate D2E/DX2             !
 ! D8    D(4,3,6,7)              0.             estimate D2E/DX2             !
 ! D9    D(1,5,6,3)              0.             estimate D2E/DX2             !
 ! D10   D(1,5,6,7)            180.             estimate D2E/DX2             !
 -----------------------------------------------------------------------------
 Trust Radius=3.00D-01 FncErr=1.00D-07 GrdErr=1.00D-06
 Number of steps in this run=  36 maximum allowed number of steps= 100.
 GradGradGradGradGradGradGradGradGradGradGradGradGradGradGradGradGradGrad

                          Input orientation:                          
 ---------------------------------------------------------------------
 Center     Atomic     Atomic              Coordinates (Angstroms)
 Number     Number      Type              X           Y           Z
 ---------------------------------------------------------------------
    1          7             0       -1.123293    -.254560     .000000
    2          7             0        -.671576     .913277     .000000
    3          7             0         .650545     .809842     .000000
    4          1             0        1.224004    1.621891     .000000
    5          7             0        -.134646   -1.161053     .000000
    6          6             0         .962183    -.483316     .000000
    7          1             0        1.955691    -.874535     .000000
 ---------------------------------------------------------------------
                    Distance matrix (angstroms):
                    1          2          3          4          5
     1  N     .000000
     2  N    1.252155    .000000
     3  N    2.068684   1.326161    .000000
     4  H    3.005141   2.023699    .994122    .000000
     5  N    1.341325   2.142694   2.121545   3.096887    .000000
     6  C    2.097985   2.149335   1.330179   2.121426   1.289326
     7  H    3.140782   3.177861   2.130852   2.601444   2.109882
                    6          7
     6  C     .000000
     7  H    1.067760    .000000
 Stoichiometry    CH2N4
 Framework group  CS[SG(CH2N4)]
 Deg. of freedom   11
 Full point group                 CS      NOp   2
 Largest Abelian subgroup         CS      NOp   2
 Largest concise Abelian subgroup C1      NOp   1
                         Standard orientation:                         
 ---------------------------------------------------------------------
 Center     Atomic     Atomic              Coordinates (Angstroms)
 Number     Number      Type              X           Y           Z
 ---------------------------------------------------------------------
    1          7             0        -.716312    -.901934     .000000
    2          7             0       -1.095520     .291420     .000000
    3          7             0         .000000    1.038775     .000000
    4          1             0        -.061479    2.030994     .000000
    5          7             0         .622151    -.989495     .000000
    6          6             0        1.052813     .225779     .000000
    7          1             0        2.072370     .542976     .000000
 ---------------------------------------------------------------------
 Rotational constants (GHZ):     10.9198679     10.7343949      5.4131685
 Isotopes: N-14,N-14,N-14,H-1,N-14,C-12,H-1
 Standard basis: 6-31G(d,p) (6D, 7F)
 There are    63 symmetry adapted basis functions of A'  symmetry.
 There are    22 symmetry adapted basis functions of A"  symmetry.
 Crude estimate of integral set expansion from redundant integrals=1.000.
 Integral buffers will be    262144 words long.
 Raffenetti 2 integral format.
 Two-electron integral symmetry is turned on.
    85 basis functions      154 primitive gaussians
    18 alpha electrons       18 beta electrons
       nuclear repulsion energy       169.8288422228 Hartrees.
 One-electron integrals computed using PRISM.
 NBasis=    85 RedAO= T  NBF=    63    22
 NBsUse=    85 1.00D-04 NBFU=    63    22
 Projected INDO Guess.
 Initial guess orbital symmetries:
       Occupied  (A') (A') (A') (A') (A') (A') (A') (A') (A') (A')
                 (A') (A") (A') (A') (A") (A") (A') (A')
       Virtual   (A") (A') (A") (A') (A') (A') (A') (A') (A') (A')
                 (A') (A') (A') (A') (A') (A') (A') (A') (A') (A')
                 (A') (A') (A') (A') (A') (A') (A') (A') (A') (A')
                 (A') (A') (A') (A') (A') (A') (A') (A') (A') (A')
                 (A') (A') (A') (A') (A') (A') (A') (A') (A') (A')
                 (A") (A") (A") (A") (A") (A") (A") (A") (A") (A")
                 (A") (A") (A") (A") (A") (A") (A")
 Requested convergence on RMS density matrix=1.00D-08 within  64 cycles.
 Requested convergence on MAX density matrix=1.00D-06.
 Keep R1 and R2 integrals in memory in canonical form, NReq=    13821249.
 Integral accuracy reduced to 1.0D-05 until final iterations.
 Initial convergence to 1.0D-05 achieved.  Increase integral accuracy.
 SCF Done:  E(RmPW+HF-PW91) =  -258.190317070     A.U. after   15 cycles
             Convg  =     .3894D-08             -V/T =  2.0073
             S**2   =    .0000

 **********************************************************************

            Population analysis using the SCF density.

 **********************************************************************

 Orbital Symmetries:
       Occupied  (A') (A') (A') (A') (A') (A') (A') (A') (A') (A')
                 (A') (A") (A') (A') (A") (A") (A') (A')
       Virtual   (A") (A") (A') (A') (A') (A') (A') (A') (A') (A')
                 (A") (A') (A') (A') (A") (A') (A') (A") (A') (A")
                 (A') (A') (A") (A') (A') (A') (A') (A') (A") (A')
                 (A") (A") (A') (A') (A") (A") (A') (A') (A') (A')
                 (A') (A") (A') (A") (A") (A') (A') (A") (A') (A')
                 (A") (A') (A') (A") (A") (A') (A') (A') (A') (A')
                 (A') (A') (A') (A') (A') (A') (A')
  The electronic state is 1-A'.
 Alpha  occ. eigenvalues --  -14.52637 -14.48778 -14.46880 -14.43889 -10.33620
 Alpha  occ. eigenvalues --   -1.20238   -.98728   -.93622   -.70977   -.69637
 Alpha  occ. eigenvalues --    -.62631   -.52959   -.52228   -.40086   -.35069
 Alpha  occ. eigenvalues --    -.32990   -.31635   -.30119
 Alpha virt. eigenvalues --    -.00641    .03284    .07359    .12607    .20481
 Alpha virt. eigenvalues --     .21960    .31385    .34299    .44827    .52991
 Alpha virt. eigenvalues --     .53501    .61344    .61962    .67539    .68493
 Alpha virt. eigenvalues --     .68846    .70844    .72563    .74363    .81001
 Alpha virt. eigenvalues --     .82235    .84893    .85439    .87609    .94871
 Alpha virt. eigenvalues --    1.01634   1.06208   1.09596   1.22719   1.24649
 Alpha virt. eigenvalues --    1.33771   1.35847   1.40589   1.47349   1.53492
 Alpha virt. eigenvalues --    1.54362   1.66071   1.88119   1.91307   1.93859
 Alpha virt. eigenvalues --    2.03402   2.07090   2.14144   2.22007   2.27005
 Alpha virt. eigenvalues --    2.29515   2.34124   2.36712   2.41181   2.51133
 Alpha virt. eigenvalues --    2.52242   2.55105   2.57886   2.67015   2.74917
 Alpha virt. eigenvalues --    2.76945   2.84453   2.94047   3.07987   3.17087
 Alpha virt. eigenvalues --    3.29802   3.53564   3.62175   3.77222   4.07901
 Alpha virt. eigenvalues --    4.11895   4.47422
          Condensed to atoms (all electrons):
              1          2          3          4          5          6
  1  N    6.717626    .273152   -.088230    .006586    .272617   -.103872
  2  N     .273152   6.796374    .192845   -.024921   -.079103   -.118803
  3  N    -.088230    .192845   6.729816    .345434   -.073170    .306638
  4  H     .006586   -.024921    .345434    .372918    .005780   -.025542
  5  N     .272617   -.079103   -.073170    .005780   6.804140    .424610
  6  C    -.103872   -.118803    .306638   -.025542    .424610   4.808791
  7  H     .004469    .002605   -.041591    .001149   -.027832    .393134
              7
  1  N     .004469
  2  N     .002605
  3  N    -.041591
  4  H     .001149
  5  N    -.027832
  6  C     .393134
  7  H     .478425
 Total atomic charges:
              1
  1  N    -.082348
  2  N    -.042150
  3  N    -.371743
  4  H     .318597
  5  N    -.327042
  6  C     .315045
  7  H     .189641
 Sum of Mulliken charges=    .00000
 Atomic charges with hydrogens summed into heavy atoms:
              1
  1  N    -.082348
  2  N    -.042150
  3  N    -.053146
  4  H     .000000
  5  N    -.327042
  6  C     .504685
  7  H     .000000
 Sum of Mulliken charges=    .00000
 Electronic spatial extent (au):  <R**2>=   243.5287
 Charge=      .0000 electrons
 Dipole moment (Debye):
    X=     2.4725    Y=     4.7527    Z=      .0000  Tot=     5.3573
 Quadrupole moment (Debye-Ang):
   XX=   -28.4166   YY=   -25.9389   ZZ=   -27.8859
   XY=     1.7459   XZ=      .0000   YZ=      .0000
 Octapole moment (Debye-Ang**2):
  XXX=    11.4857  YYY=    21.8208  ZZZ=      .0000  XYY=     -.6046
  XXY=     4.4600  XXZ=      .0000  XZZ=     -.6034  YZZ=      .5373
  YYZ=      .0000  XYZ=      .0000
 Hexadecapole moment (Debye-Ang**3):
 XXXX=  -136.1100 YYYY=  -114.4467 ZZZZ=   -24.0525 XXXY=     6.2105
 XXXZ=      .0000 YYYX=     -.5158 YYYZ=      .0000 ZZZX=      .0000
 ZZZY=      .0000 XXYY=   -51.1669 XXZZ=   -28.9991 YYZZ=   -27.3909
 XXYZ=      .0000 YYXZ=      .0000 ZZXY=     -.1192
 N-N= 1.698288422228D+02 E-N=-9.416583056735D+02  KE= 2.563179800413D+02
 Symmetry A'   KE= 2.468882494421D+02
 Symmetry A"   KE= 9.429730599173D+00
 ***** Axes restored to original set *****
 -------------------------------------------------------------------
 Center     Atomic                   Forces (Hartrees/Bohr)
 Number     Number              X              Y              Z
 -------------------------------------------------------------------
    1          7           -.025004638    -.026720902     .000000000
    2          7           -.003481613     .040607042     .000000000
    3          7            .006161583     .003190038     .000000000
    4          1            .006901745     .009768762     .000000000
    5          7           -.010745667    -.025563128     .000000000
    6          6            .018954033     .001413809     .000000000
    7          1            .007214556    -.002695620     .000000000
 -------------------------------------------------------------------
 Cartesian Forces:  Max      .040607042 RMS      .014443667

 GradGradGradGradGradGradGradGradGradGradGradGradGradGradGradGradGradGrad
 Berny optimization.
 Internal  Forces:  Max      .039113515 RMS      .011304787
 Search for a local minimum.
 Step number   1 out of a maximum of  36
 All quantities printed in internal units (Hartrees-Bohrs-Radians)
 Second derivative matrix not updated -- first step.
     Eigenvalues ---     .02505    .02639    .02674    .02834    .16000
     Eigenvalues ---     .16000    .22605    .24688    .37515    .48737
     Eigenvalues ---     .50885    .56605    .58506    .66912    .78894
     Eigenvalues --- 1000.000001000.000001000.000001000.000001000.00000
     Eigenvalues --- 1000.000001000.000001000.000001000.000001000.00000
     Eigenvalues --- 1000.00000
 RFO step:  Lambda=-4.78100166D-03.
 Linear search not attempted -- first point.
 Iteration  1 RMS(Cart)=   .01742349 RMS(Int)=   .00002792
 Iteration  2 RMS(Cart)=   .00002638 RMS(Int)=   .00001090
 Iteration  3 RMS(Cart)=   .00000000 RMS(Int)=   .00001090
 Variable       Old X    -DE/DX   Delta X   Delta X   Delta X     New X
                                 (Linear)    (Quad)   (Total)
    R1        2.36623    .03911    .00000    .04854    .04855   2.41478
    R2        2.53474    .01513    .00000    .02773    .02774   2.56248
    R3        2.50608    .01734    .00000    .02838    .02838   2.53446
    R4        1.87862    .01196    .00000    .02430    .02430   1.90292
    R5        2.51367    .01737    .00000    .02703    .02701   2.54069
    R6        2.43647    .02704    .00000    .03730    .03729   2.47377
    R7        2.01777    .00770    .00000    .02027    .02027   2.03805
    A1        1.94380   -.00150    .00000    .00212    .00215   1.94595
    A2        1.86179   -.00279    .00000   -.00668   -.00666   1.85513
    A3        2.10759   -.00123    .00000   -.00262   -.00261   2.10498
    A4        1.88535    .00245    .00000    .00517    .00515   1.89051
    A5        2.29025   -.00122    .00000   -.00255   -.00254   2.28770
    A6        1.84604   -.00056    .00000   -.00323   -.00324   1.84280
    A7        1.88780    .00240    .00000    .00262    .00260   1.89039
    A8        2.18241   -.00135    .00000   -.00219   -.00218   2.18023
    A9        2.21298   -.00106    .00000   -.00043   -.00042   2.21257
    D1         .00000    .00000    .00000    .00000    .00000    .00000
    D2         .00000    .00000    .00000    .00000    .00000    .00000
    D3        3.14159    .00000    .00000    .00000    .00000   3.14159
    D4         .00000    .00000    .00000    .00000    .00000    .00000
    D5         .00000    .00000    .00000    .00000    .00000    .00000
    D6        3.14159    .00000    .00000    .00000    .00000   3.14159
    D7        3.14159    .00000    .00000    .00000    .00000   3.14159
    D8         .00000    .00000    .00000    .00000    .00000    .00000
    D9         .00000    .00000    .00000    .00000    .00000    .00000
   D10        3.14159    .00000    .00000    .00000    .00000   3.14159
         Item               Value     Threshold  Converged?
 Maximum Force             .039114      .000450     NO 
 RMS     Force             .011305      .000300     NO 
 Maximum Displacement      .036305      .001800     NO 
 RMS     Displacement      .017416      .001200     NO 
 Predicted change in Energy=-2.373591D-03
 GradGradGradGradGradGradGradGradGradGradGradGradGradGradGradGradGradGrad

                          Input orientation:                          
 ---------------------------------------------------------------------
 Center     Atomic     Atomic              Coordinates (Angstroms)
 Number     Number      Type              X           Y           Z
 ---------------------------------------------------------------------
    1          7             0       -1.142139    -.263359     .000000
    2          7             0        -.683131     .929205     .000000
    3          7             0         .653421     .817908     .000000
    4          1             0        1.236266    1.639069     .000000
    5          7             0        -.143122   -1.180265     .000000
    6          6             0         .968602    -.489100     .000000
    7          1             0        1.973009    -.881912     .000000
 ---------------------------------------------------------------------
                    Distance matrix (angstroms):
                    1          2          3          4          5
     1  N     .000000
     2  N    1.277848    .000000
     3  N    2.095990   1.341178    .000000
     4  H    3.045659   2.046458   1.006982    .000000
     5  N    1.356006   2.177492   2.151087   3.138686    .000000
     6  C    2.122778   2.177111   1.344474   2.144935   1.309060
     7  H    3.175965   3.214844   2.151907   2.626430   2.137060
                    6          7
     6  C     .000000
     7  H    1.078487    .000000
 Stoichiometry    CH2N4
 Framework group  CS[SG(CH2N4)]
 Deg. of freedom   11
 Full point group                 CS      NOp   2
 Largest Abelian subgroup         CS      NOp   2
 Largest concise Abelian subgroup C1      NOp   1
                         Standard orientation:                         
 ---------------------------------------------------------------------
 Center     Atomic     Atomic              Coordinates (Angstroms)
 Number     Number      Type              X           Y           Z
 ---------------------------------------------------------------------
    1          7             0        -.722215    -.916421     .000000
    2          7             0       -1.111515     .300683     .000000
    3          7             0         .000000    1.051212     .000000
    4          1             0        -.060108    2.056398     .000000
    5          7             0         .630876   -1.005283     .000000
    6          6             0        1.064445     .229891     .000000
    7          1             0        2.093419     .552918     .000000
 ---------------------------------------------------------------------
 Rotational constants (GHZ):     10.6360300     10.4459746      5.2700728
 Isotopes: N-14,N-14,N-14,H-1,N-14,C-12,H-1
 Standard basis: 6-31G(d,p) (6D, 7F)
 There are    63 symmetry adapted basis functions of A'  symmetry.
 There are    22 symmetry adapted basis functions of A"  symmetry.
 Crude estimate of integral set expansion from redundant integrals=1.000.
 Integral buffers will be    262144 words long.
 Raffenetti 2 integral format.
 Two-electron integral symmetry is turned on.
    85 basis functions      154 primitive gaussians
    18 alpha electrons       18 beta electrons
       nuclear repulsion energy       167.5525371459 Hartrees.
 One-electron integrals computed using PRISM.
 NBasis=    85 RedAO= T  NBF=    63    22
 NBsUse=    85 1.00D-04 NBFU=    63    22
 Initial guess read from the read-write file:
 Initial guess orbital symmetries:
       Occupied  (A') (A') (A') (A') (A') (A') (A') (A') (A') (A')
                 (A') (A") (A') (A') (A") (A") (A') (A')
       Virtual   (A") (A") (A') (A') (A') (A') (A') (A') (A') (A')
                 (A") (A') (A') (A') (A") (A') (A') (A") (A') (A")
                 (A') (A') (A") (A') (A') (A') (A') (A') (A") (A')
                 (A") (A") (A') (A') (A") (A") (A') (A') (A') (A')
                 (A') (A") (A') (A") (A") (A') (A') (A") (A') (A')
                 (A") (A') (A') (A") (A") (A') (A') (A') (A') (A')
                 (A') (A') (A') (A') (A') (A') (A')
 Requested convergence on RMS density matrix=1.00D-08 within  64 cycles.
 Requested convergence on MAX density matrix=1.00D-06.
 Keep R1 and R2 integrals in memory in canonical form, NReq=    13821249.
 Integral accuracy reduced to 1.0D-05 until final iterations.
 Initial convergence to 1.0D-05 achieved.  Increase integral accuracy.
 SCF Done:  E(RmPW+HF-PW91) =  -258.192794978     A.U. after   12 cycles
             Convg  =     .5087D-08             -V/T =  2.0085
             S**2   =    .0000
 ***** Axes restored to original set *****
 -------------------------------------------------------------------
 Center     Atomic                   Forces (Hartrees/Bohr)
 Number     Number              X              Y              Z
 -------------------------------------------------------------------
    1          7           -.001745858    -.006203300     .000000000
    2          7            .001246851     .007047298     .000000000
    3          7            .000240953    -.003650849     .000000000
    4          1           -.000082991    -.000211442     .000000000
    5          7           -.001173677     .000315634     .000000000
    6          6            .001985476     .002459296     .000000000
    7          1           -.000470753     .000243363     .000000000
 -------------------------------------------------------------------
 Cartesian Forces:  Max      .007047298 RMS      .002369796

 GradGradGradGradGradGradGradGradGradGradGradGradGradGradGradGradGradGrad
 Berny optimization.
 Internal  Forces:  Max      .005657667 RMS      .001343328
 Search for a local minimum.
 Step number   2 out of a maximum of  36
 All quantities printed in internal units (Hartrees-Bohrs-Radians)
 Update second derivatives using information from points  1  2
 Trust test= 1.04D+00 RLast= 8.46D-02 DXMaxT set to 3.00D-01
     Eigenvalues ---     .02505    .02639    .02675    .02834    .15999
     Eigenvalues ---     .16000    .22502    .24649    .37748    .48892
     Eigenvalues ---     .50833    .56205    .61425    .67216    .71829
     Eigenvalues --- 1000.000001000.000001000.000001000.000001000.00000
     Eigenvalues --- 1000.000001000.000001000.000001000.000001000.00000
     Eigenvalues --- 1000.00000
 RFO step:  Lambda=-6.87970652D-05.
 Quartic linear search produced a step of   .06503.
 Iteration  1 RMS(Cart)=   .00229386 RMS(Int)=   .00000494
 Iteration  2 RMS(Cart)=   .00000453 RMS(Int)=   .00000230
 Iteration  3 RMS(Cart)=   .00000000 RMS(Int)=   .00000230
 Variable       Old X    -DE/DX   Delta X   Delta X   Delta X     New X
                                 (Linear)    (Quad)   (Total)
    R1        2.41478    .00566    .00316    .00554    .00870   2.42349
    R2        2.56248   -.00055    .00180   -.00183   -.00002   2.56246
    R3        2.53446    .00064    .00185   -.00019    .00166   2.53612
    R4        1.90292   -.00022    .00158   -.00159   -.00001   1.90291
    R5        2.54069   -.00206    .00176   -.00568   -.00392   2.53676
    R6        2.47377    .00126    .00243   -.00024    .00218   2.47595
    R7        2.03805   -.00053    .00132   -.00238   -.00106   2.03698
    A1        1.94595   -.00088    .00014   -.00074   -.00060   1.94535
    A2        1.85513   -.00163   -.00043   -.00476   -.00519   1.84994
    A3        2.10498   -.00078   -.00017   -.00255   -.00272   2.10225
    A4        1.89051    .00165    .00034    .00569    .00603   1.89654
    A5        2.28770   -.00087   -.00017   -.00314   -.00331   2.28439
    A6        1.84280    .00067   -.00021    .00230    .00208   1.84488
    A7        1.89039    .00018    .00017   -.00249   -.00232   1.88807
    A8        2.18023   -.00016   -.00014    .00084    .00070   2.18093
    A9        2.21257   -.00003   -.00003    .00165    .00162   2.21419
    D1         .00000    .00000    .00000    .00000    .00000    .00000
    D2         .00000    .00000    .00000    .00000    .00000    .00000
    D3        3.14159    .00000    .00000    .00000    .00000   3.14159
    D4         .00000    .00000    .00000    .00000    .00000    .00000
    D5         .00000    .00000    .00000    .00000    .00000    .00000
    D6        3.14159    .00000    .00000    .00000    .00000   3.14159
    D7        3.14159    .00000    .00000    .00000    .00000   3.14159
    D8         .00000    .00000    .00000    .00000    .00000    .00000
    D9         .00000    .00000    .00000    .00000    .00000    .00000
   D10        3.14159    .00000    .00000    .00000    .00000   3.14159
         Item               Value     Threshold  Converged?
 Maximum Force             .005658      .000450     NO 
 RMS     Force             .001343      .000300     NO 
 Maximum Displacement      .006684      .001800     NO 
 RMS     Displacement      .002293      .001200     NO 
 Predicted change in Energy=-4.392798D-05
 GradGradGradGradGradGradGradGradGradGradGradGradGradGradGradGradGradGrad

                          Input orientation:                          
 ---------------------------------------------------------------------
 Center     Atomic     Atomic              Coordinates (Angstroms)
 Number     Number      Type              X           Y           Z
 ---------------------------------------------------------------------
    1          7             0       -1.138493    -.263117     .000000
    2          7             0        -.679054     .934215     .000000
    3          7             0         .657899     .817270     .000000
    4          1             0        1.241927    1.637584     .000000
    5          7             0        -.137999   -1.178393     .000000
    6          6             0         .975024    -.487132     .000000
    7          1             0        1.979362    -.878573     .000000
 ---------------------------------------------------------------------
                    Distance matrix (angstroms):
                    1          2          3          4          5
     1  N     .000000
     2  N    1.282453    .000000
     3  N    2.096249   1.342058    .000000
     4  H    3.046156   2.045703   1.006978    .000000
     5  N    1.355994   2.180791   2.148517   3.135909    .000000
     6  C    2.125355   2.180871   1.342398   2.141414   1.310214
     7  H    3.178020   3.217666   2.149918   2.621995   2.138483
                    6          7
     6  C     .000000
     7  H    1.077925    .000000
 Stoichiometry    CH2N4
 Framework group  CS[SG(CH2N4)]
 Deg. of freedom   11
 Full point group                 CS      NOp   2
 Largest Abelian subgroup         CS      NOp   2
 Largest concise Abelian subgroup C1      NOp   1
                         Standard orientation:                         
 ---------------------------------------------------------------------
 Center     Atomic     Atomic              Coordinates (Angstroms)
 Number     Number      Type              X           Y           Z
 ---------------------------------------------------------------------
    1          7             0        -.721168    -.919041     .000000
    2          7             0       -1.114512     .301601     .000000
    3          7             0         .000000    1.049252     .000000
    4          1             0        -.059803    2.054452     .000000
    5          7             0         .632151   -1.004162     .000000
    6          6             0        1.065260     .232396     .000000
    7          1             0        2.092952     .557622     .000000
 ---------------------------------------------------------------------
 Rotational constants (GHZ):     10.6257975     10.4320223      5.2640092
 Isotopes: N-14,N-14,N-14,H-1,N-14,C-12,H-1
 Standard basis: 6-31G(d,p) (6D, 7F)
 There are    63 symmetry adapted basis functions of A'  symmetry.
 There are    22 symmetry adapted basis functions of A"  symmetry.
 Crude estimate of integral set expansion from redundant integrals=1.000.
 Integral buffers will be    262144 words long.
 Raffenetti 2 integral format.
 Two-electron integral symmetry is turned on.
    85 basis functions      154 primitive gaussians
    18 alpha electrons       18 beta electrons
       nuclear repulsion energy       167.4468726944 Hartrees.
 One-electron integrals computed using PRISM.
 NBasis=    85 RedAO= T  NBF=    63    22
 NBsUse=    85 1.00D-04 NBFU=    63    22
 Initial guess read from the read-write file:
 Initial guess orbital symmetries:
       Occupied  (A') (A') (A') (A') (A') (A') (A') (A') (A') (A')
                 (A') (A") (A') (A') (A") (A") (A') (A')
       Virtual   (A") (A") (A') (A') (A') (A') (A') (A') (A') (A')
                 (A") (A') (A') (A') (A') (A") (A') (A") (A') (A")
                 (A') (A') (A") (A') (A') (A') (A') (A') (A") (A')
                 (A") (A") (A') (A') (A") (A") (A') (A') (A') (A')
                 (A') (A") (A') (A") (A") (A') (A') (A") (A') (A")
                 (A') (A') (A') (A") (A") (A') (A') (A') (A') (A')
                 (A') (A') (A') (A') (A') (A') (A')
 Requested convergence on RMS density matrix=1.00D-08 within  64 cycles.
 Requested convergence on MAX density matrix=1.00D-06.
 Keep R1 and R2 integrals in memory in canonical form, NReq=    13821249.
 SCF Done:  E(RmPW+HF-PW91) =  -258.192845785     A.U. after   10 cycles
             Convg  =     .2806D-08             -V/T =  2.0085
             S**2   =    .0000
 ***** Axes restored to original set *****
 -------------------------------------------------------------------
 Center     Atomic                   Forces (Hartrees/Bohr)
 Number     Number              X              Y              Z
 -------------------------------------------------------------------
    1          7            .000365857    -.002989889     .000000000
    2          7            .001669549     .001389013     .000000000
    3          7           -.000050661    -.000462182     .000000000
    4          1           -.000012972    -.000103600     .000000000
    5          7           -.001664682     .000592675     .000000000
    6          6           -.000151534     .001548746     .000000000
    7          1           -.000155557     .000025237     .000000000
 -------------------------------------------------------------------
 Cartesian Forces:  Max      .002989889 RMS      .000965746

 GradGradGradGradGradGradGradGradGradGradGradGradGradGradGradGradGradGrad
 Berny optimization.
 Internal  Forces:  Max      .001907349 RMS      .000616276
 Search for a local minimum.
 Step number   3 out of a maximum of  36
 All quantities printed in internal units (Hartrees-Bohrs-Radians)
 Update second derivatives using information from points  1  2  3
 Trust test= 1.16D+00 RLast= 1.40D-02 DXMaxT set to 3.00D-01
     Eigenvalues ---     .02505    .02638    .02674    .02834    .15984
     Eigenvalues ---     .16007    .24478    .27091    .36645    .38165
     Eigenvalues ---     .49151    .52170    .62006    .67713    .71188
     Eigenvalues --- 1000.000001000.000001000.000001000.000001000.00000
     Eigenvalues --- 1000.000001000.000001000.000001000.000001000.00000
     Eigenvalues --- 1000.00000
 RFO step:  Lambda=-2.04173278D-05.
 Quartic linear search produced a step of   .22757.
 Iteration  1 RMS(Cart)=   .00144812 RMS(Int)=   .00000043
 Iteration  2 RMS(Cart)=   .00000042 RMS(Int)=   .00000006
 Variable       Old X    -DE/DX   Delta X   Delta X   Delta X     New X
                                 (Linear)    (Quad)   (Total)
    R1        2.42349    .00191    .00198    .00338    .00536   2.42884
    R2        2.56246   -.00179   -.00001   -.00351   -.00351   2.55894
    R3        2.53612   -.00081    .00038   -.00136   -.00098   2.53514
    R4        1.90291   -.00009    .00000   -.00003   -.00003   1.90288
    R5        2.53676   -.00102   -.00089   -.00207   -.00297   2.53380
    R6        2.47595    .00072    .00050    .00143    .00192   2.47787
    R7        2.03698   -.00015   -.00024   -.00032   -.00057   2.03642
    A1        1.94535   -.00036   -.00014   -.00092   -.00106   1.94429
    A2        1.84994    .00016   -.00118    .00132    .00014   1.85008
    A3        2.10225    .00019   -.00062    .00128    .00066   2.10291
    A4        1.89654   -.00029    .00137   -.00195   -.00058   1.89596
    A5        2.28439    .00011   -.00075    .00067   -.00008   2.28431
    A6        1.84488   -.00007    .00047   -.00069   -.00021   1.84467
    A7        1.88807    .00056   -.00053    .00224    .00171   1.88978
    A8        2.18093   -.00026    .00016   -.00095   -.00079   2.18014
    A9        2.21419   -.00031    .00037   -.00129   -.00092   2.21326
    D1         .00000    .00000    .00000    .00000    .00000    .00000
    D2         .00000    .00000    .00000    .00000    .00000    .00000
    D3        3.14159    .00000    .00000    .00000    .00000   3.14159
    D4         .00000    .00000    .00000    .00000    .00000    .00000
    D5         .00000    .00000    .00000    .00000    .00000    .00000
    D6        3.14159    .00000    .00000    .00000    .00000   3.14159
    D7        3.14159    .00000    .00000    .00000    .00000   3.14159
    D8         .00000    .00000    .00000    .00000    .00000    .00000
    D9         .00000    .00000    .00000    .00000    .00000    .00000
   D10        3.14159    .00000    .00000    .00000    .00000   3.14159
         Item               Value     Threshold  Converged?
 Maximum Force             .001907      .000450     NO 
 RMS     Force             .000616      .000300     NO 
 Maximum Displacement      .004305      .001800     NO 
 RMS     Displacement      .001448      .001200     NO 
 Predicted change in Energy=-1.204122D-05
 GradGradGradGradGradGradGradGradGradGradGradGradGradGradGradGradGradGrad

                          Input orientation:                          
 ---------------------------------------------------------------------
 Center     Atomic     Atomic              Coordinates (Angstroms)
 Number     Number      Type              X           Y           Z
 ---------------------------------------------------------------------
    1          7             0       -1.138420    -.265563     .000000
    2          7             0        -.677584     .934268     .000000
    3          7             0         .658831     .817133     .000000
    4          1             0        1.243535    1.636947     .000000
    5          7             0        -.138622   -1.178843     .000000
    6          6             0         .974603    -.485981     .000000
    7          1             0        1.978676    -.877281     .000000
 ---------------------------------------------------------------------
                    Distance matrix (angstroms):
                    1          2          3          4          5
     1  N     .000000
     2  N    1.285287    .000000
     3  N    2.098176   1.341539    .000000
     4  H    3.048484   2.045594   1.006963    .000000
     5  N    1.354134   2.180761   2.149384   3.136723    .000000
     6  C    2.124489   2.178723   1.340828   2.139895   1.311231
     7  H    3.176553   3.215188   2.147797   2.619500   2.138666
                    6          7
     6  C     .000000
     7  H    1.077626    .000000
 Stoichiometry    CH2N4
 Framework group  CS[SG(CH2N4)]
 Deg. of freedom   11
 Full point group                 CS      NOp   2
 Largest Abelian subgroup         CS      NOp   2
 Largest concise Abelian subgroup C1      NOp   1
                         Standard orientation:                         
 ---------------------------------------------------------------------
 Center     Atomic     Atomic              Coordinates (Angstroms)
 Number     Number      Type              X           Y           Z
 ---------------------------------------------------------------------
    1          7             0        -.719762    -.921040     .000000
    2          7             0       -1.113975     .302300     .000000
    3          7             0         .000000    1.049820     .000000
    4          1             0        -.059284    2.055036     .000000
    5          7             0         .631791   -1.004613     .000000
    6          6             0        1.063659     .233457     .000000
    7          1             0        2.090952     .558953     .000000
 ---------------------------------------------------------------------
 Rotational constants (GHZ):     10.6146097     10.4437668      5.2642476
 Isotopes: N-14,N-14,N-14,H-1,N-14,C-12,H-1
 Standard basis: 6-31G(d,p) (6D, 7F)
 There are    63 symmetry adapted basis functions of A'  symmetry.
 There are    22 symmetry adapted basis functions of A"  symmetry.
 Crude estimate of integral set expansion from redundant integrals=1.000.
 Integral buffers will be    262144 words long.
 Raffenetti 2 integral format.
 Two-electron integral symmetry is turned on.
    85 basis functions      154 primitive gaussians
    18 alpha electrons       18 beta electrons
       nuclear repulsion energy       167.4444554916 Hartrees.
 One-electron integrals computed using PRISM.
 NBasis=    85 RedAO= T  NBF=    63    22
 NBsUse=    85 1.00D-04 NBFU=    63    22
 Initial guess read from the read-write file:
 Initial guess orbital symmetries:
       Occupied  (A') (A') (A') (A') (A') (A') (A') (A') (A') (A')
                 (A') (A") (A') (A') (A") (A") (A') (A')
       Virtual   (A") (A") (A') (A') (A') (A') (A') (A') (A') (A')
                 (A") (A') (A') (A') (A') (A") (A') (A") (A') (A")
                 (A') (A') (A") (A') (A') (A') (A') (A') (A") (A')
                 (A") (A") (A') (A') (A") (A") (A') (A') (A') (A')
                 (A') (A") (A') (A") (A") (A') (A') (A") (A') (A")
                 (A') (A') (A') (A") (A") (A') (A') (A') (A') (A')
                 (A') (A') (A') (A') (A') (A') (A')
 Requested convergence on RMS density matrix=1.00D-08 within  64 cycles.
 Requested convergence on MAX density matrix=1.00D-06.
 Keep R1 and R2 integrals in memory in canonical form, NReq=    13821249.
 SCF Done:  E(RmPW+HF-PW91) =  -258.192856493     A.U. after    9 cycles
             Convg  =     .8245D-08             -V/T =  2.0085
             S**2   =    .0000
 ***** Axes restored to original set *****
 -------------------------------------------------------------------
 Center     Atomic                   Forces (Hartrees/Bohr)
 Number     Number              X              Y              Z
 -------------------------------------------------------------------
    1          7            .001187468    -.000074455     .000000000
    2          7            .000014054    -.000047086     .000000000
    3          7           -.000962079    -.000296424     .000000000
    4          1           -.000061408    -.000069673     .000000000
    5          7           -.000580053     .000867399     .000000000
    6          6            .000351434    -.000251577     .000000000
    7          1            .000050585    -.000128183     .000000000
 -------------------------------------------------------------------
 Cartesian Forces:  Max      .001187468 RMS      .000421717

 GradGradGradGradGradGradGradGradGradGradGradGradGradGradGradGradGradGrad
 Berny optimization.
 Internal  Forces:  Max      .000807657 RMS      .000289087
 Search for a local minimum.
 Step number   4 out of a maximum of  36
 All quantities printed in internal units (Hartrees-Bohrs-Radians)
 Update second derivatives using information from points  1  2  3  4
 Trust test= 8.89D-01 RLast= 7.82D-03 DXMaxT set to 3.00D-01
     Eigenvalues ---     .02505    .02638    .02675    .02834    .15884
     Eigenvalues ---     .16033    .21360    .24586    .37818    .45022
     Eigenvalues ---     .49108    .53608    .62573    .68055    .69492
     Eigenvalues --- 1000.000001000.000001000.000001000.000001000.00000
     Eigenvalues --- 1000.000001000.000001000.000001000.000001000.00000
     Eigenvalues --- 1000.00000
 RFO step:  Lambda=-4.50926366D-06.
 Quartic linear search produced a step of  -.09342.
 Iteration  1 RMS(Cart)=   .00064509 RMS(Int)=   .00000029
 Iteration  2 RMS(Cart)=   .00000026 RMS(Int)=   .00000011
 Variable       Old X    -DE/DX   Delta X   Delta X   Delta X     New X
                                 (Linear)    (Quad)   (Total)
    R1        2.42884   -.00053   -.00050    .00067    .00017   2.42901
    R2        2.55894   -.00081    .00033   -.00223   -.00190   2.55704
    R3        2.53514   -.00049    .00009   -.00097   -.00088   2.53426
    R4        1.90288   -.00009    .00000   -.00015   -.00015   1.90274
    R5        2.53380    .00008    .00028   -.00046   -.00019   2.53361
    R6        2.47787   -.00031   -.00018    .00015   -.00003   2.47784
    R7        2.03642    .00010    .00005    .00013    .00018   2.03660
    A1        1.94429    .00043    .00010    .00092    .00102   1.94531
    A2        1.85008   -.00040   -.00001   -.00152   -.00154   1.84854
    A3        2.10291   -.00018   -.00006   -.00070   -.00077   2.10214
    A4        1.89596    .00034    .00005    .00140    .00145   1.89742
    A5        2.28431   -.00015    .00001   -.00070   -.00069   2.28363
    A6        1.84467    .00011    .00002    .00032    .00034   1.84501
    A7        1.88978   -.00048   -.00016   -.00112   -.00128   1.88850
    A8        2.18014    .00033    .00007    .00112    .00119   2.18133
    A9        2.21326    .00014    .00009    .00000    .00008   2.21335
    D1         .00000    .00000    .00000    .00000    .00000    .00000
    D2         .00000    .00000    .00000    .00000    .00000    .00000
    D3        3.14159    .00000    .00000    .00000    .00000   3.14159
    D4         .00000    .00000    .00000    .00000    .00000    .00000
    D5         .00000    .00000    .00000    .00000    .00000    .00000
    D6        3.14159    .00000    .00000    .00000    .00000   3.14159
    D7        3.14159    .00000    .00000    .00000    .00000   3.14159
    D8         .00000    .00000    .00000    .00000    .00000    .00000
    D9         .00000    .00000    .00000    .00000    .00000    .00000
   D10        3.14159    .00000    .00000    .00000    .00000   3.14159
         Item               Value     Threshold  Converged?
 Maximum Force             .000808      .000450     NO 
 RMS     Force             .000289      .000300     YES
 Maximum Displacement      .001671      .001800     YES
 RMS     Displacement      .000645      .001200     YES
 Predicted change in Energy=-2.369820D-06
 GradGradGradGradGradGradGradGradGradGradGradGradGradGradGradGradGradGrad

                          Input orientation:                          
 ---------------------------------------------------------------------
 Center     Atomic     Atomic              Coordinates (Angstroms)
 Number     Number      Type              X           Y           Z
 ---------------------------------------------------------------------
    1          7             0       -1.137516    -.265260     .000000
    2          7             0        -.677638     .935033     .000000
    3          7             0         .658230     .816986     .000000
    4          1             0        1.242845    1.636769     .000000
    5          7             0        -.138637   -1.178056     .000000
    6          6             0         .974946    -.485797     .000000
    7          1             0        1.978933    -.877585     .000000
 ---------------------------------------------------------------------
                    Distance matrix (angstroms):
                    1          2          3          4          5
     1  N     .000000
     2  N    1.285376    .000000
     3  N    2.096655   1.341074    .000000
     4  H    3.046938   2.044673   1.006886    .000000
     5  N    1.353127   2.180749   2.148300   3.135560    .000000
     6  C    2.123942   2.179402   1.340729   2.139406   1.311217
     7  H    3.176034   3.216046   2.148448   2.619886   2.138782
                    6          7
     6  C     .000000
     7  H    1.077723    .000000
 Stoichiometry    CH2N4
 Framework group  CS[SG(CH2N4)]
 Deg. of freedom   11
 Full point group                 CS      NOp   2
 Largest Abelian subgroup         CS      NOp   2
 Largest concise Abelian subgroup C1      NOp   1
                         Standard orientation:                         
 ---------------------------------------------------------------------
 Center     Atomic     Atomic              Coordinates (Angstroms)
 Number     Number      Type              X           Y           Z
 ---------------------------------------------------------------------
    1          7             0        -.719298    -.920410     .000000
    2          7             0       -1.114283     .302774     .000000
    3          7             0         .000000    1.048999     .000000
    4          1             0        -.059116    2.054148     .000000
    5          7             0         .631216   -1.004475     .000000
    6          6             0        1.064010     .233256     .000000
    7          1             0        2.091612     .558096     .000000
 ---------------------------------------------------------------------
 Rotational constants (GHZ):     10.6245810     10.4436402      5.2666668
 Isotopes: N-14,N-14,N-14,H-1,N-14,C-12,H-1
 Standard basis: 6-31G(d,p) (6D, 7F)
 There are    63 symmetry adapted basis functions of A'  symmetry.
 There are    22 symmetry adapted basis functions of A"  symmetry.
 Crude estimate of integral set expansion from redundant integrals=1.000.
 Integral buffers will be    262144 words long.
 Raffenetti 2 integral format.
 Two-electron integral symmetry is turned on.
    85 basis functions      154 primitive gaussians
    18 alpha electrons       18 beta electrons
       nuclear repulsion energy       167.4815205274 Hartrees.
 One-electron integrals computed using PRISM.
 NBasis=    85 RedAO= T  NBF=    63    22
 NBsUse=    85 1.00D-04 NBFU=    63    22
 Initial guess read from the read-write file:
 Initial guess orbital symmetries:
       Occupied  (A') (A') (A') (A') (A') (A') (A') (A') (A') (A')
                 (A') (A") (A') (A') (A") (A") (A') (A')
       Virtual   (A") (A") (A') (A') (A') (A') (A') (A') (A') (A')
                 (A") (A') (A') (A') (A') (A") (A') (A") (A') (A")
                 (A') (A') (A") (A') (A') (A') (A') (A') (A") (A')
                 (A") (A") (A') (A') (A") (A") (A') (A') (A') (A')
                 (A') (A") (A') (A") (A') (A") (A') (A") (A') (A")
                 (A') (A') (A') (A") (A") (A') (A') (A') (A') (A')
                 (A') (A') (A') (A') (A') (A') (A')
 Requested convergence on RMS density matrix=1.00D-08 within  64 cycles.
 Requested convergence on MAX density matrix=1.00D-06.
 Keep R1 and R2 integrals in memory in canonical form, NReq=    13821249.
 SCF Done:  E(RmPW+HF-PW91) =  -258.192858981     A.U. after    9 cycles
             Convg  =     .3474D-08             -V/T =  2.0085
             S**2   =    .0000
 ***** Axes restored to original set *****
 -------------------------------------------------------------------
 Center     Atomic                   Forces (Hartrees/Bohr)
 Number     Number              X              Y              Z
 -------------------------------------------------------------------
    1          7            .000101432    -.000035476     .000000000
    2          7            .000192316    -.000517443     .000000000
    3          7           -.000164837     .000297153     .000000000
    4          1            .000034354    -.000011644     .000000000
    5          7           -.000373596     .000415859     .000000000
    6          6            .000218703    -.000130710     .000000000
    7          1           -.000008374    -.000017738     .000000000
 -------------------------------------------------------------------
 Cartesian Forces:  Max      .000517443 RMS      .000196503

 GradGradGradGradGradGradGradGradGradGradGradGradGradGradGradGradGradGrad
 Berny optimization.
 Internal  Forces:  Max      .000357984 RMS      .000130014
 Search for a local minimum.
 Step number   5 out of a maximum of  36
 All quantities printed in internal units (Hartrees-Bohrs-Radians)
 Update second derivatives using information from points  1  2  3  4  5

 Trust test= 1.05D+00 RLast= 3.78D-03 DXMaxT set to 3.00D-01
     Eigenvalues ---     .02505    .02638    .02675    .02834    .15027
     Eigenvalues ---     .16056    .18082    .34014    .38251    .46038
     Eigenvalues ---     .49467    .53636    .56878    .66665    .74043
     Eigenvalues --- 1000.000001000.000001000.000001000.000001000.00000
     Eigenvalues --- 1000.000001000.000001000.000001000.000001000.00000
     Eigenvalues --- 1000.00000
 RFO step:  Lambda=-1.14660399D-06.
 Quartic linear search produced a step of   .03835.
 Iteration  1 RMS(Cart)=   .00033582 RMS(Int)=   .00000010
 Iteration  2 RMS(Cart)=   .00000010 RMS(Int)=   .00000003
 Variable       Old X    -DE/DX   Delta X   Delta X   Delta X     New X
                                 (Linear)    (Quad)   (Total)
    R1        2.42901   -.00025    .00001   -.00021   -.00020   2.42881
    R2        2.55704   -.00036   -.00007   -.00105   -.00113   2.55591
    R3        2.53426   -.00013   -.00003   -.00037   -.00041   2.53386
    R4        1.90274    .00001   -.00001   -.00004   -.00004   1.90270
    R5        2.53361    .00007   -.00001    .00005    .00004   2.53365
    R6        2.47784    .00012    .00000    .00020    .00020   2.47804
    R7        2.03660    .00000    .00001   -.00001    .00000   2.03660
    A1        1.94531   -.00014    .00004   -.00067   -.00063   1.94468
    A2        1.84854    .00028   -.00006    .00059    .00053   1.84907
    A3        2.10214    .00011   -.00003    .00021    .00018   2.10233
    A4        1.89742   -.00016    .00006   -.00011   -.00006   1.89736
    A5        2.28363    .00006   -.00003   -.00010   -.00013   2.28350
    A6        1.84501    .00019    .00001    .00092    .00093   1.84594
    A7        1.88850   -.00016   -.00005   -.00072   -.00077   1.88773
    A8        2.18133    .00009    .00005    .00053    .00057   2.18191
    A9        2.21335    .00007    .00000    .00019    .00020   2.21355
    D1         .00000    .00000    .00000    .00000    .00000    .00000
    D2         .00000    .00000    .00000    .00000    .00000    .00000
    D3        3.14159    .00000    .00000    .00000    .00000   3.14159
    D4         .00000    .00000    .00000    .00000    .00000    .00000
    D5         .00000    .00000    .00000    .00000    .00000    .00000
    D6        3.14159    .00000    .00000    .00000    .00000   3.14159
    D7        3.14159    .00000    .00000    .00000    .00000   3.14159
    D8         .00000    .00000    .00000    .00000    .00000    .00000
    D9         .00000    .00000    .00000    .00000    .00000    .00000
   D10        3.14159    .00000    .00000    .00000    .00000   3.14159
         Item               Value     Threshold  Converged?
 Maximum Force             .000358      .000450     YES
 RMS     Force             .000130      .000300     YES
 Maximum Displacement      .001194      .001800     YES
 RMS     Displacement      .000336      .001200     YES
 Predicted change in Energy=-5.766603D-07
 Optimization completed.
    -- Stationary point found.
                         ----------------------------
                         !   Optimized Parameters   !
                         ! (Angstroms and Degrees)  !
 ------------------------                            -------------------------
 ! Name  Definition              Value          Derivative Info.             !
 -----------------------------------------------------------------------------
 ! R1    R(1,2)                  1.2854         -DE/DX =   -0.0002           !
 ! R2    R(1,5)                  1.3531         -DE/DX =   -0.0004           !
 ! R3    R(2,3)                  1.3411         -DE/DX =   -0.0001           !
 ! R4    R(3,4)                  1.0069         -DE/DX =    0.               !
 ! R5    R(3,6)                  1.3407         -DE/DX =    0.0001           !
 ! R6    R(5,6)                  1.3112         -DE/DX =    0.0001           !
 ! R7    R(6,7)                  1.0777         -DE/DX =    0.               !
 ! A1    A(2,1,5)              111.458          -DE/DX =   -0.0001           !
 ! A2    A(1,2,3)              105.9138         -DE/DX =    0.0003           !
 ! A3    A(2,3,4)              120.444          -DE/DX =    0.0001           !
 ! A4    A(2,3,6)              108.7139         -DE/DX =   -0.0002           !
 ! A5    A(4,3,6)              130.8421         -DE/DX =    0.0001           !
 ! A6    A(1,5,6)              105.7112         -DE/DX =    0.0002           !
 ! A7    A(3,6,5)              108.2032         -DE/DX =   -0.0002           !
 ! A8    A(3,6,7)              124.9812         -DE/DX =    0.0001           !
 ! A9    A(5,6,7)              126.8156         -DE/DX =    0.0001           !
 ! D1    D(5,1,2,3)              0.             -DE/DX =    0.               !
 ! D2    D(2,1,5,6)              0.             -DE/DX =    0.               !
 ! D3    D(1,2,3,4)            180.             -DE/DX =    0.               !
 ! D4    D(1,2,3,6)              0.             -DE/DX =    0.               !
 ! D5    D(2,3,6,5)              0.             -DE/DX =    0.               !
 ! D6    D(2,3,6,7)            180.             -DE/DX =    0.               !
 ! D7    D(4,3,6,5)            180.             -DE/DX =    0.               !
 ! D8    D(4,3,6,7)              0.             -DE/DX =    0.               !
 ! D9    D(1,5,6,3)              0.             -DE/DX =    0.               !
 ! D10   D(1,5,6,7)            180.             -DE/DX =    0.               !
 -----------------------------------------------------------------------------
 GradGradGradGradGradGradGradGradGradGradGradGradGradGradGradGradGradGrad

                          Input orientation:                          
 ---------------------------------------------------------------------
 Center     Atomic     Atomic              Coordinates (Angstroms)
 Number     Number      Type              X           Y           Z
 ---------------------------------------------------------------------
    1          7             0       -1.137586    -.265408     .000000
    2          7             0        -.677708     .934885     .000000
    3          7             0         .658160     .816838     .000000
    4          1             0        1.242775    1.636621     .000000
    5          7             0        -.138708   -1.178204     .000000
    6          6             0         .974876    -.485945     .000000
    7          1             0        1.978863    -.877732     .000000
 ---------------------------------------------------------------------
                    Distance matrix (angstroms):
                    1          2          3          4          5
     1  N     .000000
     2  N    1.285376    .000000
     3  N    2.096655   1.341074    .000000
     4  H    3.046938   2.044673   1.006886    .000000
     5  N    1.353127   2.180749   2.148300   3.135560    .000000
     6  C    2.123942   2.179402   1.340729   2.139406   1.311217
     7  H    3.176034   3.216046   2.148448   2.619886   2.138782
                    6          7
     6  C     .000000
     7  H    1.077723    .000000
 Stoichiometry    CH2N4
 Framework group  CS[SG(CH2N4)]
 Deg. of freedom   11
 Full point group                 CS      NOp   2
 Largest Abelian subgroup         CS      NOp   2
 Largest concise Abelian subgroup C1      NOp   1
                         Standard orientation:                         
 ---------------------------------------------------------------------
 Center     Atomic     Atomic              Coordinates (Angstroms)
 Number     Number      Type              X           Y           Z
 ---------------------------------------------------------------------
    1          7             0        -.719298    -.920410     .000000
    2          7             0       -1.114283     .302774     .000000
    3          7             0         .000000    1.048999     .000000
    4          1             0        -.059116    2.054148     .000000
    5          7             0         .631216   -1.004475     .000000
    6          6             0        1.064010     .233256     .000000
    7          1             0        2.091612     .558096     .000000
 ---------------------------------------------------------------------
 Rotational constants (GHZ):     10.6245810     10.4436402      5.2666668
 Isotopes: N-14,N-14,N-14,H-1,N-14,C-12,H-1

 **********************************************************************

            Population analysis using the SCF density.

 **********************************************************************

 Orbital Symmetries:
       Occupied  (A') (A') (A') (A') (A') (A') (A') (A') (A') (A')
                 (A') (A") (A') (A') (A") (A") (A') (A')
       Virtual   (A") (A") (A') (A') (A') (A') (A') (A') (A') (A')
                 (A") (A') (A') (A') (A') (A") (A') (A") (A') (A")
                 (A') (A') (A") (A') (A') (A') (A') (A') (A") (A')
                 (A") (A") (A') (A') (A") (A") (A') (A') (A') (A')
                 (A') (A") (A') (A") (A') (A") (A') (A") (A') (A")
                 (A') (A') (A') (A") (A") (A') (A') (A') (A') (A')
                 (A') (A') (A') (A') (A') (A') (A')
  The electronic state is 1-A'.
 Alpha  occ. eigenvalues --  -14.53052 -14.49208 -14.47392 -14.44503 -10.34166
 Alpha  occ. eigenvalues --   -1.18472   -.98137   -.92581   -.70592   -.69086
 Alpha  occ. eigenvalues --    -.61943   -.52036   -.51862   -.39846   -.34900
 Alpha  occ. eigenvalues --    -.32497   -.32070   -.30539
 Alpha virt. eigenvalues --    -.01455    .02424    .06862    .12023    .19621
 Alpha virt. eigenvalues --     .21025    .29481    .33501    .43026    .52520
 Alpha virt. eigenvalues --     .53681    .60803    .61799    .65844    .68145
 Alpha virt. eigenvalues --     .68680    .70578    .72727    .74511    .80801
 Alpha virt. eigenvalues --     .81535    .84666    .85203    .87215    .94336
 Alpha virt. eigenvalues --    1.01428   1.05483   1.08911   1.23381   1.23456
 Alpha virt. eigenvalues --    1.33508   1.35195   1.39838   1.46513   1.52163
 Alpha virt. eigenvalues --    1.53578   1.65554   1.86284   1.89303   1.91668
 Alpha virt. eigenvalues --    2.00575   2.05990   2.11719   2.20862   2.26190
 Alpha virt. eigenvalues --    2.26248   2.30588   2.34908   2.40360   2.49934
 Alpha virt. eigenvalues --    2.50290   2.53740   2.57581   2.63428   2.72178
 Alpha virt. eigenvalues --    2.73978   2.80726   2.91048   3.03785   3.13592
 Alpha virt. eigenvalues --    3.26393   3.52461   3.59999   3.74535   4.05525
 Alpha virt. eigenvalues --    4.10170   4.44869
          Condensed to atoms (all electrons):
              1          2          3          4          5          6
  1  N    6.736703    .253944   -.081179    .006111    .259368   -.097246
  2  N     .253944   6.817221    .183719   -.023564   -.070355   -.115979
  3  N    -.081179    .183719   6.735620    .340510   -.069714    .304627
  4  H     .006111   -.023564    .340510    .371208    .005235   -.024181
  5  N     .259368   -.070355   -.069714    .005235   6.814267    .408960
  6  C    -.097246   -.115979    .304627   -.024181    .408960   4.825275
  7  H     .004242    .002563   -.039987    .001185   -.026732    .389945
              7
  1  N     .004242
  2  N     .002563
  3  N    -.039987
  4  H     .001185
  5  N    -.026732
  6  C     .389945
  7  H     .476761
 Total atomic charges:
              1
  1  N    -.081943
  2  N    -.047548
  3  N    -.373597
  4  H     .323497
  5  N    -.321029
  6  C     .308598
  7  H     .192023
 Sum of Mulliken charges=    .00000
 Atomic charges with hydrogens summed into heavy atoms:
              1
  1  N    -.081943
  2  N    -.047548
  3  N    -.050101
  4  H     .000000
  5  N    -.321029
  6  C     .500621
  7  H     .000000
 Sum of Mulliken charges=    .00000
 Electronic spatial extent (au):  <R**2>=   248.6549
 Charge=      .0000 electrons
 Dipole moment (Debye):
    X=     2.5204    Y=     4.7865    Z=      .0000  Tot=     5.4095
 Quadrupole moment (Debye-Ang):
   XX=   -28.4306   YY=   -25.8946   ZZ=   -28.1103
   XY=     1.7998   XZ=      .0000   YZ=      .0000
 Octapole moment (Debye-Ang**2):
  XXX=    11.8380  YYY=    22.3692  ZZZ=      .0000  XYY=     -.5518
  XXY=     4.5643  XXZ=      .0000  XZZ=     -.5855  YZZ=      .5347
  YYZ=      .0000  XYZ=      .0000
 Hexadecapole moment (Debye-Ang**3):
 XXXX=  -138.7798 YYYY=  -117.0172 ZZZZ=   -24.4042 XXXY=     6.7098
 XXXZ=      .0000 YYYX=     -.4426 YYYZ=      .0000 ZZZX=      .0000
 ZZZY=      .0000 XXYY=   -52.3999 XXZZ=   -29.7180 YYZZ=   -28.1378
 XXYZ=      .0000 YYXZ=      .0000 ZZXY=     -.1087
 N-N= 1.674815205274D+02 E-N=-9.367749433303D+02  KE= 2.560088862441D+02
 Symmetry A'   KE= 2.466256191679D+02
 Symmetry A"   KE= 9.383267076230D+00
 1\1\GINC-SCI-APPS\FOpt\RmPW1PW91\6-31G(d,p)\C1H2N4\RUS\11-May-2001\0\\
 #MPW1PW91/6-31G** OPT FREQ\\1H tetrazole c CH-NH-N=N-N= casno=288948\\
 0,1\N,-1.1375858813,-0.2654081318,0.\N,-0.6777080491,0.9348854468,0.\N
 ,0.6581598818,0.8168384083,0.\H,1.2427746668,1.636621301,0.\N,-0.13870
 7536,-1.1782038019,0.\C,0.9748755766,-0.4859453857,0.\H,1.9788629656,-
 0.8777324366,0.\\Version=IBM-RS6000-G98RevA.7\State=1-A'\HF=-258.19285
 9\RMSD=3.474e-09\RMSF=1.965e-04\Dipole=1.9536369,0.8442258,0.\PG=CS [S
 G(C1H2N4)]\\@


 HE THAT FOLLOWS NATURE IS NEVER LOST.

                             -- BACON
 Job cpu time:  0 days  0 hours 10 minutes 16.7 seconds.
 File lengths (MBytes):  RWF=   10 Int=    0 D2E=    0 Chk=    3 Scr=    1
 Normal termination of Gaussian 98.
 Link1:  Proceeding to internal job step number  2.
 -------------------------------------------------------
 #N Geom=AllCheck Guess=TCheck RmPW1PW91/6-31G(d,p) Freq
 -------------------------------------------------------
 1/10=4,29=7,30=1,38=1/1,3;
 2//2;
 3/5=1,6=6,7=101,11=2,25=1,30=1/1,2,3;
 4/5=101,7=1/1;
 5/5=2,42=-7/2;
 8/6=4,11=11,23=2/1;
 11/6=1,8=1,9=11,15=111,16=11/1,2,10;
 10/6=1/2;
 6/7=2,8=2,9=2,10=2,18=1,28=1/1;
 7/8=1,10=1,25=1/1,2,3,16;
 1/10=4,30=1/3;
 99//99;
 ----------------------------------------
 1H tetrazole c CH-NH-N=N-N= casno=288948
 ----------------------------------------
 Redundant internal coordinates taken from checkpointfile:
 /wrk/Gau-12778.chk
 Charge =  0 Multiplicity = 1
 N,0,-1.1375858813,-0.2654081318,0.
 N,0,-0.6777080491,0.9348854468,0.
 N,0,0.6581598818,0.8168384083,0.
 H,0,1.2427746668,1.636621301,0.
 N,0,-0.138707536,-1.1782038019,0.
 C,0,0.9748755766,-0.4859453857,0.
 H,0,1.9788629656,-0.8777324366,0.
 Recover connectivity data from disk.

 GradGradGradGradGradGradGradGradGradGradGradGradGradGradGradGradGradGrad
 Berny optimization.
 Initialization pass.
                         ----------------------------
                         !    Initial Parameters    !
                         ! (Angstroms and Degrees)  !
 ------------------------                            -------------------------
 ! Name  Definition              Value          Derivative Info.             !
 -----------------------------------------------------------------------------
 ! R1    R(1,2)                  1.2854         calculate D2E/DX2 analyticall!
 ! R2    R(1,5)                  1.3531         calculate D2E/DX2 analyticall!
 ! R3    R(2,3)                  1.3411         calculate D2E/DX2 analyticall!
 ! R4    R(3,4)                  1.0069         calculate D2E/DX2 analyticall!
 ! R5    R(3,6)                  1.3407         calculate D2E/DX2 analyticall!
 ! R6    R(5,6)                  1.3112         calculate D2E/DX2 analyticall!
 ! R7    R(6,7)                  1.0777         calculate D2E/DX2 analyticall!
 ! A1    A(2,1,5)              111.458          calculate D2E/DX2 analyticall!
 ! A2    A(1,2,3)              105.9138         calculate D2E/DX2 analyticall!
 ! A3    A(2,3,4)              120.444          calculate D2E/DX2 analyticall!
 ! A4    A(2,3,6)              108.7139         calculate D2E/DX2 analyticall!
 ! A5    A(4,3,6)              130.8421         calculate D2E/DX2 analyticall!
 ! A6    A(1,5,6)              105.7112         calculate D2E/DX2 analyticall!
 ! A7    A(3,6,5)              108.2032         calculate D2E/DX2 analyticall!
 ! A8    A(3,6,7)              124.9812         calculate D2E/DX2 analyticall!
 ! A9    A(5,6,7)              126.8156         calculate D2E/DX2 analyticall!
 ! D1    D(5,1,2,3)              0.             calculate D2E/DX2 analyticall!
 ! D2    D(2,1,5,6)              0.             calculate D2E/DX2 analyticall!
 ! D3    D(1,2,3,4)            180.             calculate D2E/DX2 analyticall!
 ! D4    D(1,2,3,6)              0.             calculate D2E/DX2 analyticall!
 ! D5    D(2,3,6,5)              0.             calculate D2E/DX2 analyticall!
 ! D6    D(2,3,6,7)            180.             calculate D2E/DX2 analyticall!
 ! D7    D(4,3,6,5)            180.             calculate D2E/DX2 analyticall!
 ! D8    D(4,3,6,7)              0.             calculate D2E/DX2 analyticall!
 ! D9    D(1,5,6,3)              0.             calculate D2E/DX2 analyticall!
 ! D10   D(1,5,6,7)            180.             calculate D2E/DX2 analyticall!
 -----------------------------------------------------------------------------
 Trust Radius=3.00D-01 FncErr=1.00D-07 GrdErr=1.00D-07
 Number of steps in this run=  36 maximum allowed number of steps= 100.
 GradGradGradGradGradGradGradGradGradGradGradGradGradGradGradGradGradGrad

                          Input orientation:                          
 ---------------------------------------------------------------------
 Center     Atomic     Atomic              Coordinates (Angstroms)
 Number     Number      Type              X           Y           Z
 ---------------------------------------------------------------------
    1          7             0       -1.137586    -.265408     .000000
    2          7             0        -.677708     .934885     .000000
    3          7             0         .658160     .816838     .000000
    4          1             0        1.242775    1.636621     .000000
    5          7             0        -.138708   -1.178204     .000000
    6          6             0         .974876    -.485945     .000000
    7          1             0        1.978863    -.877732     .000000
 ---------------------------------------------------------------------
                    Distance matrix (angstroms):
                    1          2          3          4          5
     1  N     .000000
     2  N    1.285376    .000000
     3  N    2.096655   1.341074    .000000
     4  H    3.046938   2.044673   1.006886    .000000
     5  N    1.353127   2.180749   2.148300   3.135560    .000000
     6  C    2.123942   2.179402   1.340729   2.139406   1.311217
     7  H    3.176034   3.216046   2.148448   2.619886   2.138782
                    6          7
     6  C     .000000
     7  H    1.077723    .000000
                           Interatomic angles:
       N1-N2-N3=105.9138       N1-N2-H4=131.0358       N1-N3-H4=156.5702
       N2-N3-H4=120.444        N2-N1-N5=111.458        N3-N1-N5= 73.4979
       N2-N3-N5= 73.277        H4-N2-N5= 95.7624       H4-N3-N5=166.279 
       N2-N1-C6= 74.9963       N1-N3-C6= 72.5877       N2-N3-C6=108.7139
       N1-C6-H4= 91.2335       N2-H4-C6= 62.7344       H4-N3-C6=130.8421
       N1-N5-C6=105.7112       N2-C6-N5= 72.5549       N3-C6-N5=108.2032
       H4-C6-N5=129.0607       N1-N3-H7= 96.8557       N2-N3-H7=132.9819
       N2-H4-H7= 86.2455       H4-N3-H7=106.5742       N1-N5-H7=129.5023
       N2-N5-H7= 96.2337       N3-N5-H7= 60.151        H4-H7-N5= 81.7584
       N1-C6-H7=164.6427       N2-C6-H7=160.6295       N3-C6-H7=124.9812
       H4-C6-H7=104.1237       N5-C6-H7=126.8156
 Stoichiometry    CH2N4
 Framework group  CS[SG(CH2N4)]
 Deg. of freedom   11
 Full point group                 CS      NOp   2
 Largest Abelian subgroup         CS      NOp   2
 Largest concise Abelian subgroup C1      NOp   1
                         Standard orientation:                         
 ---------------------------------------------------------------------
 Center     Atomic     Atomic              Coordinates (Angstroms)
 Number     Number      Type              X           Y           Z
 ---------------------------------------------------------------------
    1          7             0        -.719298    -.920410     .000000
    2          7             0       -1.114283     .302774     .000000
    3          7             0         .000000    1.048999     .000000
    4          1             0        -.059116    2.054148     .000000
    5          7             0         .631216   -1.004475     .000000
    6          6             0        1.064010     .233256     .000000
    7          1             0        2.091612     .558096     .000000
 ---------------------------------------------------------------------
 Rotational constants (GHZ):     10.6245810     10.4436402      5.2666668
 Isotopes: N-14,N-14,N-14,H-1,N-14,C-12,H-1
 Standard basis: 6-31G(d,p) (6D, 7F)
 There are    63 symmetry adapted basis functions of A'  symmetry.
 There are    22 symmetry adapted basis functions of A"  symmetry.
 Crude estimate of integral set expansion from redundant integrals=1.000.
 Integral buffers will be    262144 words long.
 Raffenetti 2 integral format.
 Two-electron integral symmetry is turned on.
    85 basis functions      154 primitive gaussians
    18 alpha electrons       18 beta electrons
       nuclear repulsion energy       167.4815205274 Hartrees.
 One-electron integrals computed using PRISM.
 NBasis=    85 RedAO= T  NBF=    63    22
 NBsUse=    85 1.00D-04 NBFU=    63    22
 Initial guess read from the checkpoint file:
 /wrk/Gau-12778.chk
 Initial guess orbital symmetries:
       Occupied  (A') (A') (A') (A') (A') (A') (A') (A') (A') (A')
                 (A') (A") (A') (A') (A") (A") (A') (A')
       Virtual   (A") (A") (A') (A') (A') (A') (A') (A') (A') (A')
                 (A") (A') (A') (A') (A') (A") (A') (A") (A') (A")
                 (A') (A') (A") (A') (A') (A') (A') (A') (A") (A')
                 (A") (A") (A') (A') (A") (A") (A') (A') (A') (A')
                 (A') (A") (A') (A") (A') (A") (A') (A") (A') (A")
                 (A') (A') (A') (A") (A") (A') (A') (A') (A') (A')
                 (A') (A') (A') (A') (A') (A') (A')
 Requested convergence on RMS density matrix=1.00D-08 within  64 cycles.
 Requested convergence on MAX density matrix=1.00D-06.
 Keep R1 and R2 integrals in memory in canonical form, NReq=    13821249.
 SCF Done:  E(RmPW+HF-PW91) =  -258.192858981     A.U. after    1 cycles
             Convg  =     .2995D-08             -V/T =  2.0085
             S**2   =    .0000
 Range of M.O.s used for correlation:     1    85
 NBasis=    85 NAE=    18 NBE=    18 NFC=     0 NFV=     0
 NROrb=     85 NOA=    18 NOB=    18 NVA=    67 NVB=    67
 G2DrvN: will do    7 atoms at a time, making    1 passes doing MaxLOS=2.
 FoFDir used for L=0 through L=2.
          Differentiating once with respect to electric field.
                with respect to dipole field.
          Differentiating once with respect to nuclear coordinates.
          Store integrals in memory, NReq=    13803114.
          There are  24 degrees of freedom in the 1st order CPHF.
  24 vectors were produced by pass  0.
 AX will form  24 AO Fock derivatives at one time.
  21 vectors were produced by pass  1.
  21 vectors were produced by pass  2.
  21 vectors were produced by pass  3.
  21 vectors were produced by pass  4.
  21 vectors were produced by pass  5.
   9 vectors were produced by pass  6.
   2 vectors were produced by pass  7.
 Inv2:  IOpt= 1 Iter= 1 AM= 2.07D-15 Conv= 1.00D-12.
 Inverted reduced A of dimension 140 with in-core refinement.

 **********************************************************************

            Population analysis using the SCF density.

 **********************************************************************

 Orbital Symmetries:
       Occupied  (A') (A') (A') (A') (A') (A') (A') (A') (A') (A')
                 (A') (A") (A') (A') (A") (A") (A') (A')
       Virtual   (A") (A") (A') (A') (A') (A') (A') (A') (A') (A')
                 (A") (A') (A') (A') (A') (A") (A') (A") (A') (A")
                 (A') (A') (A") (A') (A') (A') (A') (A') (A") (A')
                 (A") (A") (A') (A') (A") (A") (A') (A') (A') (A')
                 (A') (A") (A') (A") (A') (A") (A') (A") (A') (A")
                 (A') (A') (A') (A") (A") (A') (A') (A') (A') (A')
                 (A') (A') (A') (A') (A') (A') (A')
  The electronic state is 1-A'.
 Alpha  occ. eigenvalues --  -14.53052 -14.49208 -14.47392 -14.44503 -10.34166
 Alpha  occ. eigenvalues --   -1.18472   -.98137   -.92581   -.70592   -.69086
 Alpha  occ. eigenvalues --    -.61943   -.52036   -.51862   -.39846   -.34900
 Alpha  occ. eigenvalues --    -.32497   -.32070   -.30539
 Alpha virt. eigenvalues --    -.01455    .02424    .06862    .12023    .19621
 Alpha virt. eigenvalues --     .21025    .29481    .33501    .43026    .52520
 Alpha virt. eigenvalues --     .53681    .60803    .61799    .65844    .68145
 Alpha virt. eigenvalues --     .68680    .70578    .72727    .74511    .80801
 Alpha virt. eigenvalues --     .81535    .84666    .85203    .87215    .94336
 Alpha virt. eigenvalues --    1.01428   1.05483   1.08911   1.23381   1.23456
 Alpha virt. eigenvalues --    1.33508   1.35195   1.39838   1.46513   1.52163
 Alpha virt. eigenvalues --    1.53578   1.65554   1.86284   1.89303   1.91668
 Alpha virt. eigenvalues --    2.00575   2.05990   2.11719   2.20862   2.26190
 Alpha virt. eigenvalues --    2.26248   2.30588   2.34908   2.40360   2.49934
 Alpha virt. eigenvalues --    2.50290   2.53740   2.57581   2.63428   2.72178
 Alpha virt. eigenvalues --    2.73978   2.80726   2.91048   3.03785   3.13592
 Alpha virt. eigenvalues --    3.26393   3.52461   3.59999   3.74535   4.05525
 Alpha virt. eigenvalues --    4.10170   4.44869
          Condensed to atoms (all electrons):
              1          2          3          4          5          6
  1  N    6.736703    .253944   -.081179    .006111    .259368   -.097246
  2  N     .253944   6.817221    .183719   -.023564   -.070355   -.115979
  3  N    -.081179    .183719   6.735621    .340510   -.069714    .304627
  4  H     .006111   -.023564    .340510    .371208    .005235   -.024181
  5  N     .259368   -.070355   -.069714    .005235   6.814266    .408960
  6  C    -.097246   -.115979    .304627   -.024181    .408960   4.825275
  7  H     .004242    .002563   -.039987    .001185   -.026732    .389945
              7
  1  N     .004242
  2  N     .002563
  3  N    -.039987
  4  H     .001185
  5  N    -.026732
  6  C     .389945
  7  H     .476761
 Total atomic charges:
              1
  1  N    -.081944
  2  N    -.047548
  3  N    -.373598
  4  H     .323497
  5  N    -.321029
  6  C     .308598
  7  H     .192023
 Sum of Mulliken charges=    .00000
[...]
   4   1      .00    .00   -.94      .00    .00   -.81      .00    .00    .67
   5   7      .00    .00    .03      .00    .00   -.17      .00    .00   -.32
   6   6      .00    .00   -.09      .00    .00    .17      .00    .00    .09
   7   1      .00    .00   -.24      .00    .00    .52      .00    .00    .09
                     4                      5                      6
                    A"                     A'                     A'
 Frequencies --   866.5593               994.5604              1028.0188
 Red. masses --     1.3642                 4.3633                 5.5012
 Frc consts  --      .6036                 2.5429                 3.4254
 IR Inten    --    17.5698                 3.1994                 1.5382
 Raman Activ --      .0000                  .0000                  .0000
 Depolar     --      .0000                  .0000                  .0000
 Atom AN      X      Y      Z        X      Y      Z        X      Y      Z
   1   7      .00    .00    .02      .04    .17    .00      .16   -.10    .00
   2   7      .00    .00    .00     -.12    .13    .00      .16   -.09    .00
   3   7      .00    .00    .03     -.09    .01    .00      .02    .40    .00
   4   1      .00    .00    .06      .48    .04    .00     -.02    .42    .00
   5   7      .00    .00    .03      .30   -.26    .00     -.07   -.16    .00
   6   6      .00    .00   -.17     -.16   -.11    .00     -.31   -.04    .00
   7   1      .00    .00    .98     -.38    .60    .00     -.13   -.67    .00
                     7                      8                      9
                    A'                     A'                     A'
 Frequencies --  1093.7654              1109.6246              1168.4787
 Red. masses --     3.1612                 4.7943                 1.9458
 Frc consts  --     2.2282                 3.4780                 1.5653
 IR Inten    --    27.5498                22.0616                12.1024
 Raman Activ --      .0000                  .0000                  .0000
 Depolar     --      .0000                  .0000                  .0000
 Atom AN      X      Y      Z        X      Y      Z        X      Y      Z
   1   7      .00   -.01    .00      .39    .02    .00     -.13   -.12    .00
   2   7      .32    .15    .00     -.07    .08    .00      .06   -.05    .00
   3   7     -.15   -.09    .00      .03   -.18    .00      .14    .02    .00
   4   1     -.71   -.13    .00      .74   -.15    .00      .49    .04    .00
   5   7     -.06   -.06    .00     -.28    .02    .00     -.02    .00    .00
   6   6     -.05   -.02    .00     -.13    .05    .00     -.07    .10    .00
   7   1     -.22    .50    .00     -.22    .29    .00     -.28    .78    .00
                    10                     11                     12
                    A'                     A'                     A'
 Frequencies --  1296.4497              1341.8992              1496.6395
 Red. masses --     2.5396                10.2695                 3.4126
 Frc consts  --     2.5150                10.8953                 4.5037
 IR Inten    --     1.4234                18.0040                 9.0101
 Raman Activ --      .0000                  .0000                  .0000
 Depolar     --      .0000                  .0000                  .0000
 Atom AN      X      Y      Z        X      Y      Z        X      Y      Z
   1   7     -.06   -.06    .00     -.05    .57    .00     -.01   -.02    .00
   2   7      .11    .07    .00      .18   -.49    .00     -.07    .09    .00
   3   7     -.07   -.11    .00      .15   -.13    .00      .22   -.14    .00
   4   1      .66   -.08    .00     -.31   -.19    .00     -.71   -.22    .00
   5   7      .12    .18    .00     -.03    .12    .00      .07   -.11    .00
   6   6     -.18   -.03    .00     -.24   -.07    .00     -.18    .27    .00
   7   1     -.01   -.65    .00     -.35    .14    .00      .03   -.49    .00
                    13                     14                     15
                    A'                     A'                     A'
 Frequencies --  1543.0397              3331.7359              3714.6491
 Red. masses --     3.5725                 1.1012                 1.0840
 Frc consts  --     5.0117                 7.2023                 8.8127
 IR Inten    --    18.0512                 1.5100                99.3223
 Raman Activ --      .0000                  .0000                  .0000
 Depolar     --      .0000                  .0000                  .0000
 Atom AN      X      Y      Z        X      Y      Z        X      Y      Z
   1   7      .06   -.10    .00      .00    .00    .00      .00    .00    .00
   2   7     -.11    .08    .00      .00    .00    .00      .00    .00    .00
   3   7      .17    .03    .00      .00    .00    .00      .01   -.08    .00
   4   1     -.72   -.02    .00      .01    .02    .00     -.06   1.00    .00
   5   7      .05    .22    .00      .00    .00    .00      .00    .00    .00
   6   6     -.11   -.30    .00      .09    .03    .00      .00    .00    .00
   7   1     -.37    .37    .00     -.95   -.30    .00      .02    .00    .00

 -------------------
 - Thermochemistry -
 -------------------
 Temperature   298.150 Kelvin.  Pressure   1.00000 Atm.
 Atom  1 has atomic number  7 and mass  14.00307
 Atom  2 has atomic number  7 and mass  14.00307
 Atom  3 has atomic number  7 and mass  14.00307
 Atom  4 has atomic number  1 and mass   1.00783
 Atom  5 has atomic number  7 and mass  14.00307
 Atom  6 has atomic number  6 and mass  12.00000
 Atom  7 has atomic number  1 and mass   1.00783
 Molecular mass:    70.02795 amu.
 Principal axes and moments of inertia in atomic units:
                           1         2         3
     EIGENVALUES --   169.86469 172.80767 342.67237
           X             .84157    .54015    .00000
           Y            -.54015    .84157    .00000
           Z             .00000    .00000   1.00000
 THIS MOLECULE IS AN ASYMMETRIC TOP.
 ROTATIONAL SYMMETRY NUMBER  1.
 ROTATIONAL TEMPERATURES (KELVIN)       .50990      .50121      .25276
 ROTATIONAL CONSTANTS (GHZ)           10.62458    10.44364     5.26667
 Zero-point vibrational energy     125888.6 (Joules/Mol)
                                   30.08810 (Kcal/Mol)
 WARNING-- EXPLICIT CONSIDERATION OF   1 DEGREES OF FREEDOM AS
           VIBRATIONS MAY CAUSE SIGNIFICANT ERROR
 VIBRATIONAL TEMPERATURES:    873.91  1010.15  1081.98  1246.78  1430.94
          (KELVIN)           1479.08  1573.68  1596.49  1681.17  1865.29
                             1930.68  2153.32  2220.08  4793.60  5344.52
 
 Zero-point correction=                            .047948 (Hartree/Particle)
 Thermal correction to Energy=                     .051373
 Thermal correction to Enthalpy=                   .052317
 Thermal correction to Gibbs Free Energy=          .021883
 Sum of electronic and zero-point Energies=           -258.144911
 Sum of electronic and thermal Energies=              -258.141486
 Sum of electronic and thermal Enthalpies=            -258.140542
 Sum of electronic and thermal Free Energies=         -258.170976
 
                     E (Thermal)             CV                S
                      KCAL/MOL        CAL/MOL-KELVIN    CAL/MOL-KELVIN
 TOTAL                   32.237             11.017             64.053
 ELECTRONIC                .000               .000               .000
 TRANSLATIONAL             .889              2.981             38.656
 ROTATIONAL                .889              2.981             23.824
 VIBRATIONAL             30.459              5.055              1.573
 VIBRATION  1              .966              1.016               .437
                       Q            LOG10(Q)             LN(Q)
 TOTAL BOT        .860051D-10        -10.065476        -23.176614
 TOTAL V=0        .975279D+12         11.989129         27.605990
 VIB (BOT)        .104000D-21        -21.982965        -50.617648
 VIB (BOT)  1     .243963D+00          -.612676         -1.410738
 VIB (V=0)        .117934D+01           .071640           .164956
 VIB (V=0)  1     .105634D+01           .023805           .054813
 ELECTRONIC       .100000D+01           .000000           .000000
 TRANSLATIONAL    .230339D+08          7.362368         16.952478
 ROTATIONAL       .359023D+05          4.555122         10.488556
 ***** Axes restored to original set *****
 -------------------------------------------------------------------
 Center     Atomic                   Forces (Hartrees/Bohr)
 Number     Number              X              Y              Z
 -------------------------------------------------------------------
    1          7            .000101470    -.000035496     .000000000
    2          7            .000192277    -.000517383     .000000000
    3          7           -.000164847     .000297118     .000000000
    4          1            .000034372    -.000011609     .000000000
    5          7           -.000373536     .000415874     .000000000
    6          6            .000218652    -.000130780     .000000000
    7          1           -.000008388    -.000017725     .000000000
 -------------------------------------------------------------------
 Cartesian Forces:  Max      .000517383 RMS      .000196488

 GradGradGradGradGradGradGradGradGradGradGradGradGradGradGradGradGradGrad
 Berny optimization.
 Internal  Forces:  Max      .000357981 RMS      .000130001
 Search for a local minimum.
 Step number   1 out of a maximum of  36
 All quantities printed in internal units (Hartrees-Bohrs-Radians)
 Second derivative matrix not updated -- analytic derivatives used.
     Eigenvalues ---     .00881    .02576    .07387    .08002    .10332
     Eigenvalues ---     .10715    .21380    .26781    .36694    .38782
     Eigenvalues ---     .45665    .48669    .49827    .60108    .65380
     Eigenvalues --- 1000.000001000.000001000.000001000.000001000.00000
     Eigenvalues --- 1000.000001000.000001000.000001000.000001000.00000
     Eigenvalues --- 1000.00000
 Angle between quadratic step and forces=  20.44 degrees.
 Linear search not attempted -- first point.
 Iteration  1 RMS(Cart)=   .00029288 RMS(Int)=   .00000007
 Iteration  2 RMS(Cart)=   .00000007 RMS(Int)=   .00000001
 Variable       Old X    -DE/DX   Delta X   Delta X   Delta X     New X
                                 (Linear)    (Quad)   (Total)
    R1        2.42901   -.00025    .00000   -.00033   -.00033   2.42868
    R2        2.55704   -.00036    .00000   -.00106   -.00106   2.55598
    R3        2.53426   -.00013    .00000   -.00049   -.00049   2.53377
    R4        1.90274    .00001    .00000    .00001    .00001   1.90275
    R5        2.53361    .00007    .00000    .00040    .00040   2.53401
    R6        2.47784    .00012    .00000    .00023    .00023   2.47807
    R7        2.03660    .00000    .00000   -.00004   -.00004   2.03657
    A1        1.94531   -.00014    .00000   -.00030   -.00030   1.94501
    A2        1.84854    .00028    .00000    .00052    .00052   1.84906
    A3        2.10214    .00011    .00000    .00024    .00024   2.10239
    A4        1.89742   -.00016    .00000   -.00024   -.00024   1.89717
    A5        2.28363    .00006    .00000    .00000    .00000   2.28363
    A6        1.84501    .00019    .00000    .00058    .00058   1.84558
    A7        1.88850   -.00016    .00000   -.00055   -.00055   1.88795
    A8        2.18133    .00009    .00000    .00044    .00044   2.18177
    A9        2.21335    .00007    .00000    .00011    .00011   2.21346
    D1         .00000    .00000    .00000    .00000    .00000    .00000
    D2         .00000    .00000    .00000    .00000    .00000    .00000
    D3        3.14159    .00000    .00000    .00000    .00000   3.14159
    D4         .00000    .00000    .00000    .00000    .00000    .00000
    D5         .00000    .00000    .00000    .00000    .00000    .00000
    D6        3.14159    .00000    .00000    .00000    .00000   3.14159
    D7        3.14159    .00000    .00000    .00000    .00000   3.14159
    D8         .00000    .00000    .00000    .00000    .00000    .00000
    D9         .00000    .00000    .00000    .00000    .00000    .00000
   D10        3.14159    .00000    .00000    .00000    .00000   3.14159
         Item               Value     Threshold  Converged?
 Maximum Force             .000358      .000450     YES
 RMS     Force             .000130      .000300     YES
 Maximum Displacement      .000771      .001800     YES
 RMS     Displacement      .000293      .001200     YES
 Predicted change in Energy=-5.397384D-07
 Optimization completed.
    -- Stationary point found.
                         ----------------------------
                         !   Optimized Parameters   !
                         ! (Angstroms and Degrees)  !
 ------------------------                            -------------------------
 ! Name  Definition              Value          Derivative Info.             !
 -----------------------------------------------------------------------------
 ! R1    R(1,2)                  1.2854         -DE/DX =   -0.0002           !
 ! R2    R(1,5)                  1.3531         -DE/DX =   -0.0004           !
 ! R3    R(2,3)                  1.3411         -DE/DX =   -0.0001           !
 ! R4    R(3,4)                  1.0069         -DE/DX =    0.               !
 ! R5    R(3,6)                  1.3407         -DE/DX =    0.0001           !
 ! R6    R(5,6)                  1.3112         -DE/DX =    0.0001           !
 ! R7    R(6,7)                  1.0777         -DE/DX =    0.               !
 ! A1    A(2,1,5)              111.458          -DE/DX =   -0.0001           !
 ! A2    A(1,2,3)              105.9138         -DE/DX =    0.0003           !
 ! A3    A(2,3,4)              120.444          -DE/DX =    0.0001           !
 ! A4    A(2,3,6)              108.7139         -DE/DX =   -0.0002           !
 ! A5    A(4,3,6)              130.8421         -DE/DX =    0.0001           !
 ! A6    A(1,5,6)              105.7112         -DE/DX =    0.0002           !
 ! A7    A(3,6,5)              108.2032         -DE/DX =   -0.0002           !
 ! A8    A(3,6,7)              124.9812         -DE/DX =    0.0001           !
 ! A9    A(5,6,7)              126.8156         -DE/DX =    0.0001           !
 ! D1    D(5,1,2,3)              0.             -DE/DX =    0.               !
 ! D2    D(2,1,5,6)              0.             -DE/DX =    0.               !
 ! D3    D(1,2,3,4)            180.             -DE/DX =    0.               !
 ! D4    D(1,2,3,6)              0.             -DE/DX =    0.               !
 ! D5    D(2,3,6,5)              0.             -DE/DX =    0.               !
 ! D6    D(2,3,6,7)            180.             -DE/DX =    0.               !
 ! D7    D(4,3,6,5)            180.             -DE/DX =    0.               !
 ! D8    D(4,3,6,7)              0.             -DE/DX =    0.               !
 ! D9    D(1,5,6,3)              0.             -DE/DX =    0.               !
 ! D10   D(1,5,6,7)            180.             -DE/DX =    0.               !
 -----------------------------------------------------------------------------
 GradGradGradGradGradGradGradGradGradGradGradGradGradGradGradGradGradGrad

 1\1\GINC-SCI-APPS\Freq\RmPW1PW91\6-31G(d,p)\C1H2N4\RUS\11-May-2001\0\\
 #N GEOM=ALLCHECK GUESS=TCHECK RMPW1PW91/6-31G(D,P) FREQ\\1H tetrazole 
 c CH-NH-N=N-N= casno=288948\\0,1\N,-1.1375858813,-0.2654081318,0.\N,-0
 .6777080491,0.9348854468,0.\N,0.6581598818,0.8168384083,0.\H,1.2427746
 668,1.636621301,0.\N,-0.138707536,-1.1782038019,0.\C,0.9748755766,-0.4
 859453857,0.\H,1.9788629656,-0.8777324366,0.\\Version=IBM-RS6000-G98Re
 vA.7\State=1-A'\HF=-258.192859\RMSD=2.995e-09\RMSF=1.965e-04\Dipole=1.
 9536372,0.844225,0.\DipoleDeriv=-0.0572713,-0.1505043,0.0000604,-0.201
 1947,0.0909568,0.0000925,-0.0000699,0.0001118,-0.1558219,0.249099,0.26
 90326,-0.0000569,0.2285988,-0.3283327,-0.000018,0.000007,0.0000914,-0.
 0992901,-0.3501461,-0.2959829,-0.0001004,-0.19783,-0.2265916,-0.000183
 2,0.0000926,-0.0001019,-0.152543,0.2273931,0.0442052,0.0000917,0.03222
 11,0.2736209,0.0001262,-0.0000483,0.0000418,0.349827,-0.3486646,0.1303
 93,0.000113,-0.0134643,-0.344171,0.0000152,0.0000664,-0.0000642,-0.207
 7305,0.222708,-0.0042094,-0.0000921,0.1459974,0.4148373,-0.0000379,-0.
 0000511,-0.0001297,0.0981036,0.0568825,0.0070653,-0.0000157,0.0056725,
 0.1196805,0.0000052,0.0000033,0.0000507,0.167455\Polar=38.1022791,-0.1
 307477,36.062833,0.0003865,-0.0008932,15.7276309\PG=CS [SG(C1H2N4)]\NI
 mag=0\\0.57720431,0.09101760,0.51857962,0.00000354,0.00000200,0.128767
 95,-0.14451273,-0.11937219,0.00000261,0.46223029,-0.05816412,-0.344938
 42,-0.00000137,-0.02897722,0.64028731,-0.00000178,0.00000187,-0.100213
 75,0.00000288,-0.00000066,0.11904840,-0.11609971,-0.11320257,-0.000001
 74,-0.23975544,0.02631318,-0.00000080,0.69297277,-0.03234761,-0.065928
 84,-0.00000331,0.06298597,-0.12112790,0.00000270,0.19829279,0.96043665
 ,-0.00000042,-0.00000003,0.02746087,-0.00000194,-0.00000041,-0.0714355
 2,0.00000065,-0.00000066,0.09726868,-0.01127283,-0.00131345,-0.0000017
 0,-0.00631611,-0.03307435,-0.00000180,-0.20163429,-0.18508517,0.000001
 31,0.20447619,0.00808586,0.00217348,-0.00000255,0.00185661,0.01138780,
 -0.00000252,-0.19214827,-0.34866803,0.00000163,0.20327411,0.34476287,-
 0.00000176,-0.00000247,0.00817630,0.00000078,0.00000201,-0.01211608,0.
 00000088,0.00000199,-0.00828309,-0.00000043,-0.00000026,0.01467375,-0.
 17989833,0.07345237,-0.00000285,-0.00194897,0.09209126,-0.00000438,-0.
 00470012,-0.11577600,0.00000429,0.00003333,-0.00081691,-0.00000201,0.5
 1829075,0.03357075,-0.13938830,0.00000011,-0.01819586,-0.12754734,-0.0
 0000494,0.00348356,-0.08255310,0.00000184,0.00927851,-0.00621206,-0.00
 000088,0.10153238,0.55104529,-0.00000097,-0.00000136,-0.09311929,-0.00
 000089,0.00000068,0.03674362,0.00000100,-0.00000084,0.02163810,0.00000
 082,0.00000103,0.00759379,0.00000343,0.00000175,0.11295939,-0.12229033
 ,0.06973455,0.00000035,-0.06967739,0.00559600,0.00000648,-0.13557489,0
 .07505733,-0.00000238,0.01508446,-0.02080182,0.00000055,-0.31658524,-0
 .14039910,-0.00000254,0.95867811,-0.03548567,0.03086753,0.00000489,0.1
 0219908,-0.05171444,0.00000329,0.04509143,-0.33737188,-0.00000299,0.00
 707436,-0.00310544,0.00000052,-0.13385761,-0.21040705,-0.00000160,-0.0
 9595433,0.67144147,0.00000130,0.00000013,0.01975911,-0.00000559,-0.000
 00009,0.02157209,-0.00000009,-0.00000062,-0.06386246,0.00000342,0.0000
 0497,-0.00918021,0.00000356,0.00000292,-0.08067460,-0.00000383,-0.0000
 0670,0.14263336,-0.00313037,-0.00031631,-0.00000022,-0.00001966,-0.003
 78475,-0.00000060,0.00479169,-0.00312731,-0.00000151,-0.00037075,0.000
 55043,0.00000200,-0.01519141,0.01072974,-0.00000086,-0.32963478,0.1109
 3276,0.00000123,0.34355532,-0.00667682,-0.00136506,0.00000023,-0.00049
 641,-0.00634702,0.00000026,0.03216985,-0.00478694,0.00000063,-0.000153
 97,-0.00033860,-0.00000092,-0.01662548,0.01506257,0.00000033,0.1067673
 7,-0.09971019,-0.00000061,-0.11498455,0.09748523,0.00000009,-0.0000001
 1,0.00916882,0.00000215,-0.00000017,0.00640125,0.00000008,0.00000073,-
 0.00278658,-0.00000160,-0.00000229,-0.00086446,-0.00000204,-0.00000082
 ,-0.00514102,0.00000137,0.00000258,-0.03024729,-0.00000005,0.00000008,
 0.02346928\\-0.00010147,0.00003550,0.,-0.00019228,0.00051738,0.,0.0001
 6485,-0.00029712,0.,-0.00003437,0.00001161,0.,0.00037354,-0.00041587,0
 .,-0.00021865,0.00013078,0.,0.00000839,0.00001772,0.\\\@


 ACTORS ARE SO FORTUNATE.  THEY CAN CHOOSE WHETHER
 THEY WILL APPEAR IN A TRAGEDY OR IN COMEDY,
 WHETHER THEY WILL SUFFER OF MAKE MERRY,
 LAUGH OR SHED TEARS.  BUT IN REAL LIFE IT IS DIFFERENT.
 MOST MEN AND WOMEN ARE FORCED TO PERFORM
 PARTS FOR WHICH THEY HAVE NO QUALIFICATIONS.
 THE WORLD IS A STAGE, BUT THE PLAY IS BADLY CAST.

                                   -- OSCAR WILDE
 Job cpu time:  0 days  0 hours  8 minutes 15.6 seconds.
 File lengths (MBytes):  RWF=   14 Int=    0 D2E=    0 Chk=    3 Scr=    1
 Normal termination of Gaussian 98.
