 Entering Link 1 = C:\G03W\l1.exe PID=      3568.
  
 Copyright (c) 1988,1990,1992,1993,1995,1998,2003, Gaussian, Inc.
                  All Rights Reserved.
  
 This is the Gaussian(R) 03 program.  It is based on the
 the Gaussian(R) 98 system (copyright 1998, Gaussian, Inc.),
 the Gaussian(R) 94 system (copyright 1995, Gaussian, Inc.),
 the Gaussian 92(TM) system (copyright 1992, Gaussian, Inc.),
 the Gaussian 90(TM) system (copyright 1990, Gaussian, Inc.),
 the Gaussian 88(TM) system (copyright 1988, Gaussian, Inc.),
 the Gaussian 86(TM) system (copyright 1986, Carnegie Mellon
 University), and the Gaussian 82(TM) system (copyright 1983,
 Carnegie Mellon University). Gaussian is a federally registered
 trademark of Gaussian, Inc.
  
 This software contains proprietary and confidential information,
 including trade secrets, belonging to Gaussian, Inc.
  
 This software is provided under written license and may be
 used, copied, transmitted, or stored only in accord with that
 written license.
  
 The following legend is applicable only to US Government
 contracts under DFARS:
  
                    RESTRICTED RIGHTS LEGEND
  
 Use, duplication or disclosure by the US Government is subject
 to restrictions as set forth in subparagraph (c)(1)(ii) of the
 Rights in Technical Data and Computer Software clause at DFARS
 252.227-7013.
  
 Gaussian, Inc.
 Carnegie Office Park, Building 6, Pittsburgh, PA 15106 USA
  
 The following legend is applicable only to US Government
 contracts under FAR:
  
                    RESTRICTED RIGHTS LEGEND
  
 Use, reproduction and disclosure by the US Government is subject
 to restrictions as set forth in subparagraph (c) of the
 Commercial Computer Software - Restricted Rights clause at FAR
 52.227-19.
  
 Gaussian, Inc.
 Carnegie Office Park, Building 6, Pittsburgh, PA 15106 USA
  
  
 ---------------------------------------------------------------
 Warning -- This program may not be used in any manner that
 competes with the business of Gaussian, Inc. or will provide
 assistance to any competitor of Gaussian, Inc.  The licensee
 of this program is prohibited from giving any competitor of
 Gaussian, Inc. access to this program.  By using this program,
 the user acknowledges that Gaussian, Inc. is engaged in the
 business of creating and licensing software in the field of
 computational chemistry and represents and warrants to the
 licensee that it is not a competitor of Gaussian, Inc. and that
 it will not use this program in any manner prohibited above.
 ---------------------------------------------------------------
  

 Cite this work as:
 Gaussian 03, Revision B.05,
 M. J. Frisch, G. W. Trucks, H. B. Schlegel, G. E. Scuseria, 
 M. A. Robb, J. R. Cheeseman, J. A. Montgomery, Jr., T. Vreven, 
 K. N. Kudin, J. C. Burant, J. M. Millam, S. S. Iyengar, J. Tomasi, 
 V. Barone, B. Mennucci, M. Cossi, G. Scalmani, N. Rega, 
 G. A. Petersson, H. Nakatsuji, M. Hada, M. Ehara, K. Toyota, 
 R. Fukuda, J. Hasegawa, M. Ishida, T. Nakajima, Y. Honda, O. Kitao, 
 H. Nakai, M. Klene, X. Li, J. E. Knox, H. P. Hratchian, J. B. Cross, 
 C. Adamo, J. Jaramillo, R. Gomperts, R. E. Stratmann, O. Yazyev, 
 A. J. Austin, R. Cammi, C. Pomelli, J. W. Ochterski, P. Y. Ayala, 
 K. Morokuma, G. A. Voth, P. Salvador, J. J. Dannenberg, 
 V. G. Zakrzewski, S. Dapprich, A. D. Daniels, M. C. Strain, 
 O. Farkas, D. K. Malick, A. D. Rabuck, K. Raghavachari, 
 J. B. Foresman, J. V. Ortiz, Q. Cui, A. G. Baboul, S. Clifford, 
 J. Cioslowski, B. B. Stefanov, G. Liu, A. Liashenko, P. Piskorz, 
 I. Komaromi, R. L. Martin, D. J. Fox, T. Keith, M. A. Al-Laham, 
 C. Y. Peng, A. Nanayakkara, M. Challacombe, P. M. W. Gill, 
 B. Johnson, W. Chen, M. W. Wong, C. Gonzalez, and J. A. Pople, 
 Gaussian, Inc., Pittsburgh PA, 2003.
 
 **********************************************
 Gaussian 03:  x86-Win32-G03RevB.05  8-Nov-2003
                  28-Mar-2006 
 **********************************************
 %mem=56000000
 -------------------------
 #mPW1PW91/STO-3G opt freq
 -------------------------
 1/14=-1,18=20,26=3,38=1/1,3;
 2/9=110,17=6,18=5,40=1/2;
 3/6=3,11=2,16=1,25=1,30=1,74=-7/1,2,3;
 4//1;
 5/5=2,38=5/2;
 6/7=2,8=2,9=2,10=2,28=1/1;
 7//1,2,3,16;
 1/14=-1,18=20/3(1);
 99//99;
 2/9=110/2;
 3/6=3,11=2,16=1,25=1,30=1,74=-7/1,2,3;
 4/5=5,16=3/1;
 5/5=2,38=5/2;
 7//1,2,3,16;
 1/14=-1,18=20/3(-5);
 2/9=110/2;
 6/7=2,8=2,9=2,10=2,19=2,28=1/1;
 99/9=1/99;
 -------------------------------------------------
 1htz 1H-Tetrazole casno=288948 method=25 basis=20
 -------------------------------------------------
 Symbolic Z-matrix:
 Charge =  0 Multiplicity = 1
 N                    -0.73827  -0.93751   0. 
 N                    -1.13881   0.27594   0. 
 N                     0.        1.0655    0. 
 H                    -0.07144   2.05703   0. 
 N                     0.67553  -0.99125   0. 
 C                     1.06762   0.24655   0. 
 H                     2.07655   0.57492   0. 
 

 GradGradGradGradGradGradGradGradGradGradGradGradGradGradGradGradGradGrad
 Berny optimization.
 Initialization pass.
                           ----------------------------
                           !    Initial Parameters    !
                           ! (Angstroms and Degrees)  !
 --------------------------                            --------------------------
 ! Name  Definition              Value          Derivative Info.                !
 --------------------------------------------------------------------------------
 ! R1    R(1,2)                  1.2778         estimate D2E/DX2                !
 ! R2    R(1,5)                  1.4148         estimate D2E/DX2                !
 ! R3    R(2,3)                  1.3857         estimate D2E/DX2                !
 ! R4    R(3,4)                  0.9941         estimate D2E/DX2                !
 ! R5    R(3,6)                  1.3455         estimate D2E/DX2                !
 ! R6    R(5,6)                  1.2984         estimate D2E/DX2                !
 ! R7    R(6,7)                  1.061          estimate D2E/DX2                !
 ! A1    A(2,1,5)              110.4442         estimate D2E/DX2                !
 ! A2    A(1,2,3)              106.4672         estimate D2E/DX2                !
 ! A3    A(2,3,4)              120.6135         estimate D2E/DX2                !
 ! A4    A(2,3,6)              107.7742         estimate D2E/DX2                !
 ! A5    A(4,3,6)              131.6122         estimate D2E/DX2                !
 ! A6    A(1,5,6)              105.3992         estimate D2E/DX2                !
 ! A7    A(3,6,5)              109.9152         estimate D2E/DX2                !
 ! A8    A(3,6,7)              124.4801         estimate D2E/DX2                !
 ! A9    A(5,6,7)              125.6047         estimate D2E/DX2                !
 ! D1    D(5,1,2,3)              0.0            estimate D2E/DX2                !
 ! D2    D(2,1,5,6)              0.0            estimate D2E/DX2                !
 ! D3    D(1,2,3,4)            180.0            estimate D2E/DX2                !
 ! D4    D(1,2,3,6)              0.0            estimate D2E/DX2                !
 ! D5    D(2,3,6,5)              0.0            estimate D2E/DX2                !
 ! D6    D(2,3,6,7)            180.0            estimate D2E/DX2                !
 ! D7    D(4,3,6,5)            180.0            estimate D2E/DX2                !
 ! D8    D(4,3,6,7)              0.0            estimate D2E/DX2                !
 ! D9    D(1,5,6,3)              0.0            estimate D2E/DX2                !
 ! D10   D(1,5,6,7)            180.0            estimate D2E/DX2                !
 --------------------------------------------------------------------------------
 Trust Radius=3.00D-01 FncErr=1.00D-07 GrdErr=1.00D-06
 Number of steps in this run=  36 maximum allowed number of steps= 100.
 GradGradGradGradGradGradGradGradGradGradGradGradGradGradGradGradGradGrad

                          Input orientation:                          
 ---------------------------------------------------------------------
 Center     Atomic     Atomic              Coordinates (Angstroms)
 Number     Number      Type              X           Y           Z
 ---------------------------------------------------------------------
    1          7             0       -0.738270   -0.937506    0.000000
    2          7             0       -1.138809    0.275937    0.000000
    3          7             0        0.000000    1.065499    0.000000
    4          1             0       -0.071438    2.057031    0.000000
    5          7             0        0.675534   -0.991248    0.000000
    6          6             0        1.067617    0.246545    0.000000
    7          1             0        2.076552    0.574924    0.000000
 ---------------------------------------------------------------------
                    Distance matrix (angstroms):
                    1          2          3          4          5
     1  N    0.000000
     2  N    1.277840   0.000000
     3  N    2.134730   1.385747   0.000000
     4  H    3.067885   2.076434   0.994102   0.000000
     5  N    1.414825   2.213052   2.164845   3.138467   0.000000
     6  C    2.159445   2.206622   1.345545   2.138996   1.298407
     7  H    3.195413   3.229232   2.133713   2.609694   2.101368
                    6          7
     6  C    0.000000
     7  H    1.061029   0.000000
 Stoichiometry    CH2N4
 Framework group  CS[SG(CH2N4)]
 Deg. of freedom    11
 Full point group                 CS      NOp   2
 Largest Abelian subgroup         CS      NOp   2
 Largest concise Abelian subgroup C1      NOp   1
                         Standard orientation:                         
 ---------------------------------------------------------------------
 Center     Atomic     Atomic              Coordinates (Angstroms)
 Number     Number      Type              X           Y           Z
 ---------------------------------------------------------------------
    1          7             0       -0.738270   -0.937506    0.000000
    2          7             0       -1.138809    0.275937    0.000000
    3          7             0        0.000000    1.065499    0.000000
    4          1             0       -0.071438    2.057031    0.000000
    5          7             0        0.675534   -0.991248    0.000000
    6          6             0        1.067617    0.246545    0.000000
    7          1             0        2.076552    0.574924    0.000000
 ---------------------------------------------------------------------
 Rotational constants (GHZ):     10.4723792     10.0760703      5.1352015
 Standard basis: STO-3G (5D, 7F)
 There are    22 symmetry adapted basis functions of A'  symmetry.
 There are     5 symmetry adapted basis functions of A"  symmetry.
 Integral buffers will be    262144 words long.
 Raffenetti 2 integral format.
 Two-electron integral symmetry is turned on.
    27 basis functions,    81 primitive gaussians,    27 cartesian basis functions
    18 alpha electrons       18 beta electrons
       nuclear repulsion energy       165.5537781495 Hartrees.
 NAtoms=    7 NActive=    7 NUniq=    7 SFac= 1.00D+00 NAtFMM=   60 Big=F
 One-electron integrals computed using PRISM.
 NBasis=    27 RedAO= T  NBF=    22     5
 NBsUse=    27 1.00D-06 NBFU=    22     5
 Harris functional with IExCor=  908 diagonalized for initial guess.
 ExpMin= 1.69D-01 ExpMax= 9.91D+01 ExpMxC= 9.91D+01 IAcc=1 IRadAn=         1 AccDes= 1.00D-06
 HarFok:  IExCor= 908 AccDes= 1.00D-06 IRadAn=         1 IDoV=1
 ScaDFX=  1.000000  1.000000  1.000000  1.000000
 Initial guess orbital symmetries:
       Occupied  (A') (A') (A') (A') (A') (A') (A') (A') (A') (A')
                 (A') (A') (A") (A') (A') (A") (A") (A')
       Virtual   (A") (A") (A') (A') (A') (A') (A') (A') (A')
 The electronic state of the initial guess is 1-A'.
 Requested convergence on RMS density matrix=1.00D-08 within 128 cycles.
 Requested convergence on MAX density matrix=1.00D-06.
 Requested convergence on             energy=1.00D-06.
 No special actions if energy rises.
 Keep R1 integrals in memory in canonical form, NReq=      558036.
 Integral accuracy reduced to 1.0D-05 until final iterations.
 Initial convergence to 1.0D-05 achieved.  Increase integral accuracy.
 SCF Done:  E(RmPW+HF-PW91) =  -254.854050897     A.U. after   14 cycles
             Convg  =    0.3165D-08             -V/T =  2.0166
             S**2   =   0.0000

 **********************************************************************

            Population analysis using the SCF density.

 **********************************************************************

 Orbital symmetries:
       Occupied  (A') (A') (A') (A') (A') (A') (A') (A') (A') (A')
                 (A') (A') (A") (A') (A") (A") (A') (A')
       Virtual   (A") (A") (A') (A') (A') (A') (A') (A') (A')
 The electronic state is 1-A'.
 Alpha  occ. eigenvalues --  -14.37021 -14.30939 -14.28077 -14.24320 -10.17837
 Alpha  occ. eigenvalues --   -1.14472  -0.93595  -0.90113  -0.66009  -0.64395
 Alpha  occ. eigenvalues --   -0.58333  -0.47072  -0.46254  -0.32011  -0.28613
 Alpha  occ. eigenvalues --   -0.26901  -0.24110  -0.22796
 Alpha virt. eigenvalues --    0.06334   0.11025   0.25040   0.29850   0.39479
 Alpha virt. eigenvalues --    0.41214   0.46815   0.60334   0.65815
          Condensed to atoms (all electrons):
              1          2          3          4          5          6
     1  N    6.539304   0.357862  -0.057374   0.002431   0.270521  -0.050014
     2  N    0.357862   6.518960   0.284179  -0.020685  -0.036719  -0.059673
     3  N   -0.057374   0.284179   6.317159   0.345855  -0.058675   0.403937
     4  H    0.002431  -0.020685   0.345855   0.415755   0.001862  -0.023740
     5  N    0.270521  -0.036719  -0.058675   0.001862   6.557616   0.451962
     6  C   -0.050014  -0.059673   0.403937  -0.023740   0.451962   4.809609
     7  H    0.001997   0.001290  -0.020835  -0.000705  -0.019471   0.395425
              7
     1  N    0.001997
     2  N    0.001290
     3  N   -0.020835
     4  H   -0.000705
     5  N   -0.019471
     6  C    0.395425
     7  H    0.502736
 Mulliken atomic charges:
              1
     1  N   -0.064727
     2  N   -0.045214
     3  N   -0.214246
     4  H    0.279226
     5  N   -0.167097
     6  C    0.072494
     7  H    0.139564
 Sum of Mulliken charges=   0.00000
 Atomic charges with hydrogens summed into heavy atoms:
              1
     1  N   -0.064727
     2  N   -0.045214
     3  N    0.064980
     4  H    0.000000
     5  N   -0.167097
     6  C    0.212058
     7  H    0.000000
 Sum of Mulliken charges=   0.00000
 Electronic spatial extent (au):  <R**2>=   249.9737
 Charge=     0.0000 electrons
 Dipole moment (field-independent basis, Debye):
    X=     2.0725    Y=     4.4245    Z=     0.0000  Tot=     4.8858
 Quadrupole moment (field-independent basis, Debye-Ang):
   XX=   -27.5724   YY=   -25.0578   ZZ=   -25.7523
   XY=     1.5890   XZ=     0.0000   YZ=     0.0000
 Traceless Quadrupole moment (field-independent basis, Debye-Ang):
   XX=    -1.4449   YY=     1.0697   ZZ=     0.3752
   XY=     1.5890   XZ=     0.0000   YZ=     0.0000
 Octapole moment (field-independent basis, Debye-Ang**2):
  XXX=     8.1919  YYY=    18.5240  ZZZ=     0.0000  XYY=    -0.8610
  XXY=     3.6178  XXZ=     0.0000  XZZ=    -1.0983  YZZ=    -0.3223
  YYZ=     0.0000  XYZ=     0.0000
 Hexadecapole moment (field-independent basis, Debye-Ang**3):
 XXXX=  -133.5788 YYYY=  -109.1172 ZZZZ=   -17.2836 XXXY=     4.6221
 XXXZ=     0.0000 YYYX=    -1.9642 YYYZ=     0.0000 ZZZX=     0.0000
 ZZZY=     0.0000 XXYY=   -48.3401 XXZZ=   -26.2418 YYZZ=   -24.3726
 XXYZ=     0.0000 YYXZ=     0.0000 ZZXY=    -0.6017
 N-N= 1.655537781495D+02 E-N=-9.241262138504D+02  KE= 2.506888235223D+02
 Symmetry A'   KE= 2.408822409236D+02
 Symmetry A"   KE= 9.806582598737D+00
 ***** Axes restored to original set *****
 -------------------------------------------------------------------
 Center     Atomic                   Forces (Hartrees/Bohr)
 Number     Number              X              Y              Z
 -------------------------------------------------------------------
    1          7           0.001908749   -0.091857325    0.000000000
    2          7          -0.071602981    0.077632744    0.000000000
    3          7          -0.006349890    0.000429085    0.000000000
    4          1          -0.002119022    0.055084069    0.000000000
    5          7           0.017642360   -0.080135717    0.000000000
    6          6           0.031903777    0.027661844    0.000000000
    7          1           0.028617007    0.011185301    0.000000000
 -------------------------------------------------------------------
 Cartesian Forces:  Max     0.091857325 RMS     0.039117984

 GradGradGradGradGradGradGradGradGradGradGradGradGradGradGradGradGradGrad
 Berny optimization.
 Internal  Forces:  Max     0.103694197 RMS     0.032096663
 Search for a local minimum.
 Step number   1 out of a maximum of  36
 All quantities printed in internal units (Hartrees-Bohrs-Radians)
 Second derivative matrix not updated -- first step.
     Eigenvalues ---    0.01972   0.02202   0.02344   0.02644   0.16000
     Eigenvalues ---    0.16000   0.22584   0.24675   0.38387   0.40757
     Eigenvalues ---    0.46411   0.48740   0.52867   0.63820   0.71287
     Eigenvalues --- 1000.000001000.000001000.000001000.000001000.00000
     Eigenvalues --- 1000.000001000.000001000.000001000.000001000.00000
     Eigenvalues --- 1000.00000
 RFO step:  Lambda=-4.14996044D-02.
 Linear search not attempted -- first point.
 Iteration  1 RMS(Cart)=  0.05492726 RMS(Int)=  0.00039157
 Iteration  2 RMS(Cart)=  0.00045839 RMS(Int)=  0.00005378
 Iteration  3 RMS(Cart)=  0.00000016 RMS(Int)=  0.00005378
 Variable       Old X    -DE/DX   Delta X   Delta X   Delta X     New X
                                 (Linear)    (Quad)   (Total)
    R1        2.41477   0.10369   0.00000   0.13492   0.13500   2.54976
    R2        2.67363   0.03490   0.00000   0.07601   0.07605   2.74968
    R3        2.61868   0.03983   0.00000   0.07578   0.07579   2.69448
    R4        1.87858   0.05509   0.00000   0.10416   0.10416   1.98275
    R5        2.54271   0.05640   0.00000   0.09123   0.09117   2.63388
    R6        2.45363   0.07655   0.00000   0.10562   0.10556   2.55919
    R7        2.00505   0.03068   0.00000   0.07211   0.07211   2.07717
    A1        1.92761   0.00356   0.00000   0.02155   0.02168   1.94930
    A2        1.85820  -0.00695   0.00000  -0.02020  -0.02009   1.83811
    A3        2.10510   0.00005   0.00000   0.00593   0.00596   2.11106
    A4        1.88102   0.00335   0.00000   0.00527   0.00521   1.88623
    A5        2.29707  -0.00340   0.00000  -0.01120  -0.01117   2.28590
    A6        1.83956  -0.00692   0.00000  -0.02423  -0.02428   1.81528
    A7        1.91838   0.00695   0.00000   0.01760   0.01748   1.93586
    A8        2.17259  -0.00527   0.00000  -0.01769  -0.01763   2.15496
    A9        2.19222  -0.00168   0.00000   0.00009   0.00015   2.19237
    D1        0.00000   0.00000   0.00000   0.00000   0.00000   0.00000
    D2        0.00000   0.00000   0.00000   0.00000   0.00000   0.00000
    D3        3.14159   0.00000   0.00000   0.00000   0.00000   3.14159
    D4        0.00000   0.00000   0.00000   0.00000   0.00000   0.00000
    D5        0.00000   0.00000   0.00000   0.00000   0.00000   0.00000
    D6        3.14159   0.00000   0.00000   0.00000   0.00000   3.14159
    D7        3.14159   0.00000   0.00000   0.00000   0.00000   3.14159
    D8        0.00000   0.00000   0.00000   0.00000   0.00000   0.00000
    D9        0.00000   0.00000   0.00000   0.00000   0.00000   0.00000
   D10        3.14159   0.00000   0.00000   0.00000   0.00000   3.14159
         Item               Value     Threshold  Converged?
 Maximum Force            0.103694     0.000450     NO 
 RMS     Force            0.032097     0.000300     NO 
 Maximum Displacement     0.150418     0.001800     NO 
 RMS     Displacement     0.054851     0.001200     NO 
 Predicted change in Energy=-2.214951D-02
 GradGradGradGradGradGradGradGradGradGradGradGradGradGradGradGradGradGrad

                          Input orientation:                          
 ---------------------------------------------------------------------
 Center     Atomic     Atomic              Coordinates (Angstroms)
 Number     Number      Type              X           Y           Z
 ---------------------------------------------------------------------
    1          7             0       -0.757242   -0.989098    0.000000
    2          7             0       -1.194087    0.287505    0.000000
    3          7             0       -0.014884    1.089095    0.000000
    4          1             0       -0.074401    2.136629    0.000000
    5          7             0        0.696093   -1.060077    0.000000
    6          6             0        1.087609    0.236362    0.000000
    7          1             0        2.128098    0.590766    0.000000
 ---------------------------------------------------------------------
                    Distance matrix (angstroms):
                    1          2          3          4          5
     1  N    0.000000
     2  N    1.349277   0.000000
     3  N    2.206803   1.425856   0.000000
     4  H    3.199444   2.161702   1.049224   0.000000
     5  N    1.455068   2.321370   2.263720   3.288250   0.000000
     6  C    2.214775   2.282269   1.393788   2.227394   1.354266
     7  H    3.289553   3.335997   2.200160   2.690854   2.185388
                    6          7
     6  C    0.000000
     7  H    1.099190   0.000000
 Stoichiometry    CH2N4
 Framework group  CS[SG(CH2N4)]
 Deg. of freedom    11
 Full point group                 CS      NOp   2
 Largest Abelian subgroup         CS      NOp   2
 Largest concise Abelian subgroup C1      NOp   1
                         Standard orientation:                         
 ---------------------------------------------------------------------
 Center     Atomic     Atomic              Coordinates (Angstroms)
 Number     Number      Type              X           Y           Z
 ---------------------------------------------------------------------
    1          7             0       -0.754069   -0.969236    0.000000
    2          7             0       -1.183705    0.309811    0.000000
    3          7             0        0.000000    1.104736    0.000000
    4          1             0       -0.053607    2.152589    0.000000
    5          7             0        0.698843   -1.048412    0.000000
    6          6             0        1.097666    0.245797    0.000000
    7          1             0        2.140137    0.594327    0.000000
 ---------------------------------------------------------------------
 Rotational constants (GHZ):      9.7001611      9.3653209      4.7649003
 Standard basis: STO-3G (5D, 7F)
 There are    22 symmetry adapted basis functions of A'  symmetry.
 There are     5 symmetry adapted basis functions of A"  symmetry.
 Integral buffers will be    262144 words long.
 Raffenetti 2 integral format.
 Two-electron integral symmetry is turned on.
    27 basis functions,    81 primitive gaussians,    27 cartesian basis functions
    18 alpha electrons       18 beta electrons
       nuclear repulsion energy       159.3823466030 Hartrees.
 NAtoms=    7 NActive=    7 NUniq=    7 SFac= 1.00D+00 NAtFMM=   60 Big=F
 One-electron integrals computed using PRISM.
 NBasis=    27 RedAO= T  NBF=    22     5
 NBsUse=    27 1.00D-06 NBFU=    22     5
 Initial guess read from the read-write file:
 Initial guess orbital symmetries:
       Occupied  (A') (A') (A') (A') (A') (A') (A') (A') (A') (A')
                 (A') (A') (A") (A') (A") (A") (A') (A')
       Virtual   (A") (A") (A') (A') (A') (A') (A') (A') (A')
 Harris functional with IExCor=  908 diagonalized for initial guess.
 ExpMin= 1.69D-01 ExpMax= 9.91D+01 ExpMxC= 9.91D+01 IAcc=1 IRadAn=         1 AccDes= 1.00D-06
 HarFok:  IExCor= 908 AccDes= 1.00D-06 IRadAn=         1 IDoV=1
 ScaDFX=  1.000000  1.000000  1.000000  1.000000
 Requested convergence on RMS density matrix=1.00D-08 within 128 cycles.
 Requested convergence on MAX density matrix=1.00D-06.
 Requested convergence on             energy=1.00D-06.
 No special actions if energy rises.
 Keep R1 integrals in memory in canonical form, NReq=      558036.
 Integral accuracy reduced to 1.0D-05 until final iterations.
 Initial convergence to 1.0D-05 achieved.  Increase integral accuracy.
 SCF Done:  E(RmPW+HF-PW91) =  -254.873446424     A.U. after   14 cycles
             Convg  =    0.2324D-08             -V/T =  2.0180
             S**2   =   0.0000
 ***** Axes restored to original set *****
 -------------------------------------------------------------------
 Center     Atomic                   Forces (Hartrees/Bohr)
 Number     Number              X              Y              Z
 -------------------------------------------------------------------
    1          7           0.003605956   -0.011079915    0.000000000
    2          7          -0.004155759    0.010722479    0.000000000
    3          7           0.003503634   -0.008058984    0.000000000
    4          1           0.002164261   -0.003586707    0.000000000
    5          7          -0.004997103    0.003852050    0.000000000
    6          6           0.002642430    0.007780221    0.000000000
    7          1          -0.002763420    0.000370855    0.000000000
 -------------------------------------------------------------------
 Cartesian Forces:  Max     0.011079915 RMS     0.004770336

 GradGradGradGradGradGradGradGradGradGradGradGradGradGradGradGradGradGrad
 Berny optimization.
 Internal  Forces:  Max     0.008378947 RMS     0.003214454
 Search for a local minimum.
 Step number   2 out of a maximum of  36
 All quantities printed in internal units (Hartrees-Bohrs-Radians)
 Update second derivatives using D2CorX and points  1  2
 Trust test= 8.76D-01 RLast= 2.60D-01 DXMaxT set to 4.24D-01
     Eigenvalues ---    0.01983   0.02199   0.02347   0.02646   0.15958
     Eigenvalues ---    0.16000   0.22562   0.24838   0.38808   0.40982
     Eigenvalues ---    0.46620   0.49549   0.56532   0.64474   0.69569
     Eigenvalues --- 1000.000001000.000001000.000001000.000001000.00000
     Eigenvalues --- 1000.000001000.000001000.000001000.000001000.00000
     Eigenvalues --- 1000.00000
 RFO step:  Lambda=-7.01154229D-04.
 Quartic linear search produced a step of -0.01125.
 Iteration  1 RMS(Cart)=  0.01127116 RMS(Int)=  0.00006113
 Iteration  2 RMS(Cart)=  0.00006658 RMS(Int)=  0.00000904
 Iteration  3 RMS(Cart)=  0.00000000 RMS(Int)=  0.00000904
 Variable       Old X    -DE/DX   Delta X   Delta X   Delta X     New X
                                 (Linear)    (Quad)   (Total)
    R1        2.54976   0.00826  -0.00152   0.01587   0.01434   2.56411
    R2        2.74968  -0.00156  -0.00086  -0.00011  -0.00097   2.74871
    R3        2.69448   0.00007  -0.00085   0.00198   0.00114   2.69561
    R4        1.98275  -0.00370  -0.00117  -0.00461  -0.00578   1.97697
    R5        2.63388  -0.00838  -0.00103  -0.01365  -0.01466   2.61922
    R6        2.55919   0.00033  -0.00119   0.00287   0.00168   2.56087
    R7        2.07717  -0.00249  -0.00081  -0.00443  -0.00525   2.07192
    A1        1.94930  -0.00416  -0.00024  -0.00983  -0.01009   1.93921
    A2        1.83811  -0.00289   0.00023  -0.00939  -0.00915   1.82897
    A3        2.11106  -0.00077  -0.00007   0.00219   0.00211   2.11317
    A4        1.88623   0.00541  -0.00006   0.01984   0.01980   1.90603
    A5        2.28590  -0.00464   0.00013  -0.02203  -0.02191   2.26399
    A6        1.81528   0.00420   0.00027   0.01584   0.01609   1.83137
    A7        1.93586  -0.00256  -0.00020  -0.01646  -0.01665   1.91921
    A8        2.15496  -0.00002   0.00020   0.00002   0.00022   2.15518
    A9        2.19237   0.00258   0.00000   0.01644   0.01643   2.20880
    D1        0.00000   0.00000   0.00000   0.00000   0.00000   0.00000
    D2        0.00000   0.00000   0.00000   0.00000   0.00000   0.00000
    D3        3.14159   0.00000   0.00000   0.00000   0.00000   3.14159
    D4        0.00000   0.00000   0.00000   0.00000   0.00000   0.00000
    D5        0.00000   0.00000   0.00000   0.00000   0.00000   0.00000
    D6        3.14159   0.00000   0.00000   0.00000   0.00000   3.14159
    D7        3.14159   0.00000   0.00000   0.00000   0.00000   3.14159
    D8        0.00000   0.00000   0.00000   0.00000   0.00000   0.00000
    D9        0.00000   0.00000   0.00000   0.00000   0.00000   0.00000
   D10        3.14159   0.00000   0.00000   0.00000   0.00000   3.14159
         Item               Value     Threshold  Converged?
 Maximum Force            0.008379     0.000450     NO 
 RMS     Force            0.003214     0.000300     NO 
 Maximum Displacement     0.028364     0.001800     NO 
 RMS     Displacement     0.011276     0.001200     NO 
 Predicted change in Energy=-3.535094D-04
 GradGradGradGradGradGradGradGradGradGradGradGradGradGradGradGradGradGrad

                          Input orientation:                          
 ---------------------------------------------------------------------
 Center     Atomic     Atomic              Coordinates (Angstroms)
 Number     Number      Type              X           Y           Z
 ---------------------------------------------------------------------
    1          7             0       -0.763075   -0.994926    0.000000
    2          7             0       -1.200905    0.289363    0.000000
    3          7             0       -0.013011    1.079102    0.000000
    4          1             0       -0.059392    2.124239    0.000000
    5          7             0        0.690323   -1.052879    0.000000
    6          6             0        1.091356    0.241575    0.000000
    7          1             0        2.125889    0.604708    0.000000
 ---------------------------------------------------------------------
                    Distance matrix (angstroms):
                    1          2          3          4          5
     1  N    0.000000
     2  N    1.356868   0.000000
     3  N    2.205490   1.426457   0.000000
     4  H    3.197555   2.160977   1.046166   0.000000
     5  N    1.454552   2.319128   2.244999   3.264376   0.000000
     6  C    2.228867   2.292759   1.386030   2.206500   1.355153
     7  H    3.302263   3.341706   2.190878   2.661659   2.192817
                    6          7
     6  C    0.000000
     7  H    1.096414   0.000000
 Stoichiometry    CH2N4
 Framework group  CS[SG(CH2N4)]
 Deg. of freedom    11
 Full point group                 CS      NOp   2
 Largest Abelian subgroup         CS      NOp   2
 Largest concise Abelian subgroup C1      NOp   1
                         Standard orientation:                         
 ---------------------------------------------------------------------
 Center     Atomic     Atomic              Coordinates (Angstroms)
 Number     Number      Type              X           Y           Z
 ---------------------------------------------------------------------
    1          7             0       -0.754079   -0.977439    0.000000
    2          7             0       -1.189421    0.307694    0.000000
    3          7             0        0.000000    1.095131    0.000000
    4          1             0       -0.044356    2.140356    0.000000
    5          7             0        0.699203   -1.038208    0.000000
    6          6             0        1.102743    0.255467    0.000000
    7          1             0        2.137978    0.616595    0.000000
 ---------------------------------------------------------------------
 Rotational constants (GHZ):      9.6909502      9.3802649      4.7665384
 Standard basis: STO-3G (5D, 7F)
 There are    22 symmetry adapted basis functions of A'  symmetry.
 There are     5 symmetry adapted basis functions of A"  symmetry.
 Integral buffers will be    262144 words long.
 Raffenetti 2 integral format.
 Two-electron integral symmetry is turned on.
    27 basis functions,    81 primitive gaussians,    27 cartesian basis functions
    18 alpha electrons       18 beta electrons
       nuclear repulsion energy       159.3952652675 Hartrees.
 NAtoms=    7 NActive=    7 NUniq=    7 SFac= 1.00D+00 NAtFMM=   60 Big=F
 One-electron integrals computed using PRISM.
 NBasis=    27 RedAO= T  NBF=    22     5
 NBsUse=    27 1.00D-06 NBFU=    22     5
 Initial guess read from the read-write file:
 Initial guess orbital symmetries:
       Occupied  (A') (A') (A') (A') (A') (A') (A') (A') (A') (A')
                 (A') (A') (A") (A') (A") (A") (A') (A')
       Virtual   (A") (A") (A') (A') (A') (A') (A') (A') (A')
 Harris functional with IExCor=  908 diagonalized for initial guess.
 ExpMin= 1.69D-01 ExpMax= 9.91D+01 ExpMxC= 9.91D+01 IAcc=1 IRadAn=         1 AccDes= 1.00D-06
 HarFok:  IExCor= 908 AccDes= 1.00D-06 IRadAn=         1 IDoV=1
 ScaDFX=  1.000000  1.000000  1.000000  1.000000
 Requested convergence on RMS density matrix=1.00D-08 within 128 cycles.
 Requested convergence on MAX density matrix=1.00D-06.
 Requested convergence on             energy=1.00D-06.
 No special actions if energy rises.
 Keep R1 integrals in memory in canonical form, NReq=      558036.
 Integral accuracy reduced to 1.0D-05 until final iterations.
 Initial convergence to 1.0D-05 achieved.  Increase integral accuracy.
 SCF Done:  E(RmPW+HF-PW91) =  -254.873782365     A.U. after   13 cycles
             Convg  =    0.3330D-08             -V/T =  2.0180
             S**2   =   0.0000
 ***** Axes restored to original set *****
 -------------------------------------------------------------------
 Center     Atomic                   Forces (Hartrees/Bohr)
 Number     Number              X              Y              Z
 -------------------------------------------------------------------
    1          7           0.007025060   -0.003126432    0.000000000
    2          7           0.000770825    0.006332910    0.000000000
    3          7          -0.001831279   -0.000349003    0.000000000
    4          1           0.000460303   -0.000569870    0.000000000
    5          7          -0.002450441   -0.003301122    0.000000000
    6          6          -0.003431348    0.001056541    0.000000000
    7          1          -0.000543121   -0.000043025    0.000000000
 -------------------------------------------------------------------
 Cartesian Forces:  Max     0.007025060 RMS     0.002525369

 GradGradGradGradGradGradGradGradGradGradGradGradGradGradGradGradGradGrad
 Berny optimization.
 Internal  Forces:  Max     0.005045825 RMS     0.001808033
 Search for a local minimum.
 Step number   3 out of a maximum of  36
 All quantities printed in internal units (Hartrees-Bohrs-Radians)
 Update second derivatives using D2CorX and points  1  2  3
 Trust test= 9.50D-01 RLast= 4.85D-02 DXMaxT set to 4.24D-01
     Eigenvalues ---    0.01977   0.02192   0.02342   0.02649   0.14639
     Eigenvalues ---    0.16003   0.22550   0.30776   0.38177   0.42149
     Eigenvalues ---    0.42911   0.49547   0.56232   0.64069   0.69643
     Eigenvalues --- 1000.000001000.000001000.000001000.000001000.00000
     Eigenvalues --- 1000.000001000.000001000.000001000.000001000.00000
     Eigenvalues --- 1000.00000
 RFO step:  Lambda=-1.90574589D-04.
 Quartic linear search produced a step of -0.04567.
 Iteration  1 RMS(Cart)=  0.00530376 RMS(Int)=  0.00001358
 Iteration  2 RMS(Cart)=  0.00001393 RMS(Int)=  0.00000052
 Iteration  3 RMS(Cart)=  0.00000000 RMS(Int)=  0.00000052
 Variable       Old X    -DE/DX   Delta X   Delta X   Delta X     New X
                                 (Linear)    (Quad)   (Total)
    R1        2.56411   0.00505  -0.00066   0.01202   0.01136   2.57547
    R2        2.74871  -0.00445   0.00004  -0.00959  -0.00954   2.73916
    R3        2.69561  -0.00377  -0.00005  -0.00684  -0.00689   2.68872
    R4        1.97697  -0.00059   0.00026  -0.00262  -0.00236   1.97461
    R5        2.61922  -0.00096   0.00067  -0.00640  -0.00573   2.61349
    R6        2.56087   0.00126  -0.00008   0.00253   0.00245   2.56332
    R7        2.07192  -0.00053   0.00024  -0.00273  -0.00249   2.06943
    A1        1.93921   0.00156   0.00046   0.00427   0.00473   1.94393
    A2        1.82897  -0.00086   0.00042  -0.00539  -0.00497   1.82400
    A3        2.11317   0.00082  -0.00010   0.00551   0.00541   2.11859
    A4        1.90603  -0.00079  -0.00090   0.00185   0.00095   1.90698
    A5        2.26399  -0.00003   0.00100  -0.00736  -0.00636   2.25762
    A6        1.83137  -0.00262  -0.00074  -0.00547  -0.00620   1.82517
    A7        1.91921   0.00271   0.00076   0.00473   0.00549   1.92470
    A8        2.15518  -0.00151  -0.00001  -0.00592  -0.00593   2.14925
    A9        2.20880  -0.00120  -0.00075   0.00119   0.00043   2.20924
    D1        0.00000   0.00000   0.00000   0.00000   0.00000   0.00000
    D2        0.00000   0.00000   0.00000   0.00000   0.00000   0.00000
    D3        3.14159   0.00000   0.00000   0.00000   0.00000   3.14159
    D4        0.00000   0.00000   0.00000   0.00000   0.00000   0.00000
    D5        0.00000   0.00000   0.00000   0.00000   0.00000   0.00000
    D6        3.14159   0.00000   0.00000   0.00000   0.00000   3.14159
    D7        3.14159   0.00000   0.00000   0.00000   0.00000   3.14159
    D8        0.00000   0.00000   0.00000   0.00000   0.00000   0.00000
    D9        0.00000   0.00000   0.00000   0.00000   0.00000   0.00000
   D10        3.14159   0.00000   0.00000   0.00000   0.00000   3.14159
         Item               Value     Threshold  Converged?
 Maximum Force            0.005046     0.000450     NO 
 RMS     Force            0.001808     0.000300     NO 
 Maximum Displacement     0.014251     0.001800     NO 
 RMS     Displacement     0.005305     0.001200     NO 
 Predicted change in Energy=-9.611738D-05
 GradGradGradGradGradGradGradGradGradGradGradGradGradGradGradGradGradGrad

                          Input orientation:                          
 ---------------------------------------------------------------------
 Center     Atomic     Atomic              Coordinates (Angstroms)
 Number     Number      Type              X           Y           Z
 ---------------------------------------------------------------------
    1          7             0       -0.757398   -0.995712    0.000000
    2          7             0       -1.200728    0.293049    0.000000
    3          7             0       -0.014136    1.078149    0.000000
    4          1             0       -0.052503    2.122361    0.000000
    5          7             0        0.690838   -1.056315    0.000000
    6          6             0        1.086764    0.241067    0.000000
    7          1             0        2.118348    0.608584    0.000000
 ---------------------------------------------------------------------
                    Distance matrix (angstroms):
                    1          2          3          4          5
     1  N    0.000000
     2  N    1.362881   0.000000
     3  N    2.203029   1.422808   0.000000
     4  H    3.196757   2.159815   1.044917   0.000000
     5  N    1.449503   2.323532   2.247870   3.264434   0.000000
     6  C    2.220486   2.288083   1.382999   2.199363   1.356450
     7  H    3.292974   3.334041   2.183570   2.646529   2.193097
                    6          7
     6  C    0.000000
     7  H    1.095095   0.000000
 Stoichiometry    CH2N4
 Framework group  CS[SG(CH2N4)]
 Deg. of freedom    11
 Full point group                 CS      NOp   2
 Largest Abelian subgroup         CS      NOp   2
 Largest concise Abelian subgroup C1      NOp   1
                         Standard orientation:                         
 ---------------------------------------------------------------------
 Center     Atomic     Atomic              Coordinates (Angstroms)
 Number     Number      Type              X           Y           Z
 ---------------------------------------------------------------------
    1          7             0       -0.749856   -0.976985    0.000000
    2          7             0       -1.189084    0.313179    0.000000
    3          7             0        0.000000    1.094500    0.000000
    4          1             0       -0.035046    2.138829    0.000000
    5          7             0        0.698179   -1.042195    0.000000
    6          6             0        1.098231    0.253921    0.000000
    7          1             0        2.130979    0.618154    0.000000
 ---------------------------------------------------------------------
 Rotational constants (GHZ):      9.6999225      9.3984350      4.7733996
 Standard basis: STO-3G (5D, 7F)
 There are    22 symmetry adapted basis functions of A'  symmetry.
 There are     5 symmetry adapted basis functions of A"  symmetry.
 Integral buffers will be    262144 words long.
 Raffenetti 2 integral format.
 Two-electron integral symmetry is turned on.
    27 basis functions,    81 primitive gaussians,    27 cartesian basis functions
    18 alpha electrons       18 beta electrons
       nuclear repulsion energy       159.4996318345 Hartrees.
 NAtoms=    7 NActive=    7 NUniq=    7 SFac= 1.00D+00 NAtFMM=   60 Big=F
 One-electron integrals computed using PRISM.
 NBasis=    27 RedAO= T  NBF=    22     5
 NBsUse=    27 1.00D-06 NBFU=    22     5
 Initial guess read from the read-write file:
 Initial guess orbital symmetries:
       Occupied  (A') (A') (A') (A') (A') (A') (A') (A') (A') (A')
                 (A') (A') (A") (A') (A") (A") (A') (A')
       Virtual   (A") (A") (A') (A') (A') (A') (A') (A') (A')
 Requested convergence on RMS density matrix=1.00D-08 within 128 cycles.
 Requested convergence on MAX density matrix=1.00D-06.
 Requested convergence on             energy=1.00D-06.
 No special actions if energy rises.
 Keep R1 integrals in memory in canonical form, NReq=      558036.
 SCF Done:  E(RmPW+HF-PW91) =  -254.873882247     A.U. after   10 cycles
             Convg  =    0.2131D-08             -V/T =  2.0179
             S**2   =   0.0000
 ***** Axes restored to original set *****
 -------------------------------------------------------------------
 Center     Atomic                   Forces (Hartrees/Bohr)
 Number     Number              X              Y              Z
 -------------------------------------------------------------------
    1          7           0.001535786   -0.001488062    0.000000000
    2          7           0.000904121    0.000624643    0.000000000
    3          7          -0.001130950    0.000062203    0.000000000
    4          1          -0.000004407    0.000588942    0.000000000
    5          7          -0.002525984   -0.000109005    0.000000000
    6          6           0.000564763    0.000290026    0.000000000
    7          1           0.000656671    0.000031253    0.000000000
 -------------------------------------------------------------------
 Cartesian Forces:  Max     0.002525984 RMS     0.000834897

 GradGradGradGradGradGradGradGradGradGradGradGradGradGradGradGradGradGrad
 Berny optimization.
 Internal  Forces:  Max     0.001807574 RMS     0.000566416
 Search for a local minimum.
 Step number   4 out of a maximum of  36
 All quantities printed in internal units (Hartrees-Bohrs-Radians)
 Update second derivatives using D2CorX and points  1  2  3  4
 Trust test= 1.04D+00 RLast= 2.32D-02 DXMaxT set to 4.24D-01
     Eigenvalues ---    0.01980   0.02190   0.02343   0.02650   0.14167
     Eigenvalues ---    0.16061   0.23561   0.28180   0.39101   0.39683
     Eigenvalues ---    0.46850   0.50471   0.55345   0.64257   0.67755
     Eigenvalues --- 1000.000001000.000001000.000001000.000001000.00000
     Eigenvalues --- 1000.000001000.000001000.000001000.000001000.00000
     Eigenvalues --- 1000.00000
 RFO step:  Lambda=-2.41812046D-05.
 Quartic linear search produced a step of  0.03964.
 Iteration  1 RMS(Cart)=  0.00150338 RMS(Int)=  0.00000137
 Iteration  2 RMS(Cart)=  0.00000125 RMS(Int)=  0.00000059
 Iteration  3 RMS(Cart)=  0.00000000 RMS(Int)=  0.00000059
 Variable       Old X    -DE/DX   Delta X   Delta X   Delta X     New X
                                 (Linear)    (Quad)   (Total)
    R1        2.57547   0.00078   0.00045   0.00279   0.00324   2.57872
    R2        2.73916  -0.00181  -0.00038  -0.00544  -0.00582   2.73334
    R3        2.68872  -0.00039  -0.00027  -0.00134  -0.00162   2.68710
    R4        1.97461   0.00059  -0.00009   0.00088   0.00078   1.97539
    R5        2.61349   0.00060  -0.00023   0.00021  -0.00002   2.61347
    R6        2.56332   0.00088   0.00010   0.00178   0.00188   2.56519
    R7        2.06943   0.00063  -0.00010   0.00131   0.00122   2.07065
    A1        1.94393  -0.00058   0.00019  -0.00292  -0.00274   1.94120
    A2        1.82400   0.00077  -0.00020   0.00237   0.00217   1.82616
    A3        2.11859   0.00029   0.00021   0.00169   0.00191   2.12050
    A4        1.90698  -0.00056   0.00004  -0.00116  -0.00113   1.90585
    A5        2.25762   0.00027  -0.00025  -0.00053  -0.00078   2.25684
    A6        1.82517   0.00081  -0.00025   0.00338   0.00313   1.82830
    A7        1.92470  -0.00044   0.00022  -0.00166  -0.00144   1.92326
    A8        2.14925   0.00041  -0.00024   0.00144   0.00120   2.15045
    A9        2.20924   0.00003   0.00002   0.00022   0.00024   2.20947
    D1        0.00000   0.00000   0.00000   0.00000   0.00000   0.00000
    D2        0.00000   0.00000   0.00000   0.00000   0.00000   0.00000
    D3        3.14159   0.00000   0.00000   0.00000   0.00000   3.14159
    D4        0.00000   0.00000   0.00000   0.00000   0.00000   0.00000
    D5        0.00000   0.00000   0.00000   0.00000   0.00000   0.00000
    D6        3.14159   0.00000   0.00000   0.00000   0.00000   3.14159
    D7        3.14159   0.00000   0.00000   0.00000   0.00000   3.14159
    D8        0.00000   0.00000   0.00000   0.00000   0.00000   0.00000
    D9        0.00000   0.00000   0.00000   0.00000   0.00000   0.00000
   D10        3.14159   0.00000   0.00000   0.00000   0.00000   3.14159
         Item               Value     Threshold  Converged?
 Maximum Force            0.001808     0.000450     NO 
 RMS     Force            0.000566     0.000300     NO 
 Maximum Displacement     0.004477     0.001800     NO 
 RMS     Displacement     0.001503     0.001200     NO 
 Predicted change in Energy=-1.223941D-05
 GradGradGradGradGradGradGradGradGradGradGradGradGradGradGradGradGradGrad

                          Input orientation:                          
 ---------------------------------------------------------------------
 Center     Atomic     Atomic              Coordinates (Angstroms)
 Number     Number      Type              X           Y           Z
 ---------------------------------------------------------------------
    1          7             0       -0.756752   -0.998081    0.000000
    2          7             0       -1.199423    0.292720    0.000000
    3          7             0       -0.014507    1.078800    0.000000
    4          1             0       -0.052175    2.123452    0.000000
    5          7             0        0.688511   -1.055966    0.000000
    6          6             0        1.086468    0.241833    0.000000
    7          1             0        2.119064    0.608424    0.000000
 ---------------------------------------------------------------------
                    Distance matrix (angstroms):
                    1          2          3          4          5
     1  N    0.000000
     2  N    1.364597   0.000000
     3  N    2.205530   1.421952   0.000000
     4  H    3.200062   2.160499   1.045331   0.000000
     5  N    1.446422   2.320183   2.247545   3.264554   0.000000
     6  C    2.221452   2.286457   1.382989   2.199318   1.357443
     7  H    3.294113   3.333470   2.184806   2.647562   2.194692
                    6          7
     6  C    0.000000
     7  H    1.095739   0.000000
 Stoichiometry    CH2N4
 Framework group  CS[SG(CH2N4)]
 Deg. of freedom    11
 Full point group                 CS      NOp   2
 Largest Abelian subgroup         CS      NOp   2
 Largest concise Abelian subgroup C1      NOp   1
                         Standard orientation:                         
 ---------------------------------------------------------------------
 Center     Atomic     Atomic              Coordinates (Angstroms)
 Number     Number      Type              X           Y           Z
 ---------------------------------------------------------------------
    1          7             0       -0.749233   -0.979042    0.000000
    2          7             0       -1.187556    0.313243    0.000000
    3          7             0        0.000000    1.095328    0.000000
    4          1             0       -0.034151    2.140102    0.000000
    5          7             0        0.695827   -1.041791    0.000000
    6          6             0        1.098151    0.254660    0.000000
    7          1             0        2.131975    0.617773    0.000000
 ---------------------------------------------------------------------
 Rotational constants (GHZ):      9.6815863      9.4206086      4.7746573
 Standard basis: STO-3G (5D, 7F)
 There are    22 symmetry adapted basis functions of A'  symmetry.
 There are     5 symmetry adapted basis functions of A"  symmetry.
 Integral buffers will be    262144 words long.
 Raffenetti 2 integral format.
 Two-electron integral symmetry is turned on.
    27 basis functions,    81 primitive gaussians,    27 cartesian basis functions
    18 alpha electrons       18 beta electrons
       nuclear repulsion energy       159.5125743703 Hartrees.
 NAtoms=    7 NActive=    7 NUniq=    7 SFac= 1.00D+00 NAtFMM=   60 Big=F
 One-electron integrals computed using PRISM.
 NBasis=    27 RedAO= T  NBF=    22     5
 NBsUse=    27 1.00D-06 NBFU=    22     5
 Initial guess read from the read-write file:
 Initial guess orbital symmetries:
       Occupied  (A') (A') (A') (A') (A') (A') (A') (A') (A') (A')
                 (A') (A') (A") (A') (A") (A") (A') (A')
       Virtual   (A") (A") (A') (A') (A') (A') (A') (A') (A')
 Requested convergence on RMS density matrix=1.00D-08 within 128 cycles.
 Requested convergence on MAX density matrix=1.00D-06.
 Requested convergence on             energy=1.00D-06.
 No special actions if energy rises.
 Keep R1 integrals in memory in canonical form, NReq=      558036.
 SCF Done:  E(RmPW+HF-PW91) =  -254.873892724     A.U. after   10 cycles
             Convg  =    0.1848D-08             -V/T =  2.0179
             S**2   =   0.0000
 ***** Axes restored to original set *****
 -------------------------------------------------------------------
 Center     Atomic                   Forces (Hartrees/Bohr)
 Number     Number              X              Y              Z
 -------------------------------------------------------------------
    1          7           0.000954269    0.000824969    0.000000000
    2          7          -0.000702070    0.000160541    0.000000000
    3          7          -0.000525669   -0.000514731    0.000000000
    4          1          -0.000222966    0.000174043    0.000000000
    5          7          -0.000348524   -0.000167440    0.000000000
    6          6           0.000719150   -0.000295856    0.000000000
    7          1           0.000125811   -0.000181525    0.000000000
 -------------------------------------------------------------------
 Cartesian Forces:  Max     0.000954269 RMS     0.000410235

 GradGradGradGradGradGradGradGradGradGradGradGradGradGradGradGradGradGrad
 Berny optimization.
 Internal  Forces:  Max     0.000926418 RMS     0.000343873
 Search for a local minimum.
 Step number   5 out of a maximum of  36
 All quantities printed in internal units (Hartrees-Bohrs-Radians)
 Update second derivatives using D2CorX and points  1  2  3  4  5

 Trust test= 8.56D-01 RLast= 9.15D-03 DXMaxT set to 4.24D-01
     Eigenvalues ---    0.01980   0.02189   0.02343   0.02650   0.13344
     Eigenvalues ---    0.15997   0.18155   0.38020   0.38658   0.41004
     Eigenvalues ---    0.49630   0.51013   0.55850   0.64116   0.68518
     Eigenvalues --- 1000.000001000.000001000.000001000.000001000.00000
     Eigenvalues --- 1000.000001000.000001000.000001000.000001000.00000
     Eigenvalues --- 1000.00000
 RFO step:  Lambda=-7.42378630D-06.
 Quartic linear search produced a step of -0.12695.
 Iteration  1 RMS(Cart)=  0.00108915 RMS(Int)=  0.00000069
 Iteration  2 RMS(Cart)=  0.00000061 RMS(Int)=  0.00000021
 Variable       Old X    -DE/DX   Delta X   Delta X   Delta X     New X
                                 (Linear)    (Quad)   (Total)
    R1        2.57872  -0.00021  -0.00041   0.00119   0.00078   2.57950
    R2        2.73334  -0.00040   0.00074  -0.00332  -0.00258   2.73076
    R3        2.68710  -0.00018   0.00021  -0.00099  -0.00079   2.68631
    R4        1.97539   0.00018  -0.00010   0.00054   0.00044   1.97583
    R5        2.61347   0.00087   0.00000   0.00121   0.00121   2.61468
    R6        2.56519  -0.00026  -0.00024   0.00047   0.00023   2.56542
    R7        2.07065   0.00006  -0.00015   0.00054   0.00039   2.07103
    A1        1.94120   0.00093   0.00035   0.00163   0.00198   1.94318
    A2        1.82616  -0.00074  -0.00028  -0.00193  -0.00220   1.82396
    A3        2.12050  -0.00040  -0.00024  -0.00122  -0.00146   2.11904
    A4        1.90585   0.00036   0.00014   0.00144   0.00159   1.90744
    A5        2.25684   0.00004   0.00010  -0.00023  -0.00013   2.25671
    A6        1.82830  -0.00024  -0.00040   0.00049   0.00009   1.82840
    A7        1.92326  -0.00030   0.00018  -0.00164  -0.00146   1.92180
    A8        2.15045   0.00037  -0.00015   0.00207   0.00192   2.15237
    A9        2.20947  -0.00006  -0.00003  -0.00043  -0.00046   2.20901
    D1        0.00000   0.00000   0.00000   0.00000   0.00000   0.00000
    D2        0.00000   0.00000   0.00000   0.00000   0.00000   0.00000
    D3        3.14159   0.00000   0.00000   0.00000   0.00000   3.14159
    D4        0.00000   0.00000   0.00000   0.00000   0.00000   0.00000
    D5        0.00000   0.00000   0.00000   0.00000   0.00000   0.00000
    D6        3.14159   0.00000   0.00000   0.00000   0.00000   3.14159
    D7        3.14159   0.00000   0.00000   0.00000   0.00000   3.14159
    D8        0.00000   0.00000   0.00000   0.00000   0.00000   0.00000
    D9        0.00000   0.00000   0.00000   0.00000   0.00000   0.00000
   D10        3.14159   0.00000   0.00000   0.00000   0.00000   3.14159
         Item               Value     Threshold  Converged?
 Maximum Force            0.000926     0.000450     NO 
 RMS     Force            0.000344     0.000300     NO 
 Maximum Displacement     0.002437     0.001800     NO 
 RMS     Displacement     0.001089     0.001200     YES
 Predicted change in Energy=-3.935594D-06
 GradGradGradGradGradGradGradGradGradGradGradGradGradGradGradGradGradGrad

                          Input orientation:                          
 ---------------------------------------------------------------------
 Center     Atomic     Atomic              Coordinates (Angstroms)
 Number     Number      Type              X           Y           Z
 ---------------------------------------------------------------------
    1          7             0       -0.755618   -0.997162    0.000000
    2          7             0       -1.200261    0.293398    0.000000
    3          7             0       -0.015079    1.078324    0.000000
    4          1             0       -0.053464    2.123185    0.000000
    5          7             0        0.688247   -1.055795    0.000000
    6          6             0        1.087083    0.241859    0.000000
    7          1             0        2.120278    0.607374    0.000000
 ---------------------------------------------------------------------
                    Distance matrix (angstroms):
                    1          2          3          4          5
     1  N    0.000000
     2  N    1.365011   0.000000
     3  N    2.203642   1.421535   0.000000
     4  H    3.198372   2.159458   1.045566   0.000000
     5  N    1.445055   2.320945   2.247027   3.264360   0.000000
     6  C    2.220523   2.287925   1.383631   2.200053   1.357563
     7  H    3.293222   3.335349   2.186674   2.650064   2.194731
                    6          7
     6  C    0.000000
     7  H    1.095943   0.000000
 Stoichiometry    CH2N4
 Framework group  CS[SG(CH2N4)]
 Deg. of freedom    11
 Full point group                 CS      NOp   2
 Largest Abelian subgroup         CS      NOp   2
 Largest concise Abelian subgroup C1      NOp   1
                         Standard orientation:                         
 ---------------------------------------------------------------------
 Center     Atomic     Atomic              Coordinates (Angstroms)
 Number     Number      Type              X           Y           Z
 ---------------------------------------------------------------------
    1          7             0       -0.748601   -0.977956    0.000000
    2          7             0       -1.188224    0.314324    0.000000
    3          7             0        0.000000    1.094636    0.000000
    4          1             0       -0.034323    2.139638    0.000000
    5          7             0        0.695025   -1.042201    0.000000
    6          6             0        1.098903    0.253893    0.000000
    7          1             0        2.133510    0.615388    0.000000
 ---------------------------------------------------------------------
 Rotational constants (GHZ):      9.6933793      9.4128503      4.7755277
 Standard basis: STO-3G (5D, 7F)
 There are    22 symmetry adapted basis functions of A'  symmetry.
 There are     5 symmetry adapted basis functions of A"  symmetry.
 Integral buffers will be    262144 words long.
 Raffenetti 2 integral format.
 Two-electron integral symmetry is turned on.
    27 basis functions,    81 primitive gaussians,    27 cartesian basis functions
    18 alpha electrons       18 beta electrons
       nuclear repulsion energy       159.5249307895 Hartrees.
 NAtoms=    7 NActive=    7 NUniq=    7 SFac= 1.00D+00 NAtFMM=   60 Big=F
 One-electron integrals computed using PRISM.
 NBasis=    27 RedAO= T  NBF=    22     5
 NBsUse=    27 1.00D-06 NBFU=    22     5
 Initial guess read from the read-write file:
 Initial guess orbital symmetries:
       Occupied  (A') (A') (A') (A') (A') (A') (A') (A') (A') (A')
                 (A') (A') (A") (A') (A") (A") (A') (A')
       Virtual   (A") (A") (A') (A') (A') (A') (A') (A') (A')
 Requested convergence on RMS density matrix=1.00D-08 within 128 cycles.
 Requested convergence on MAX density matrix=1.00D-06.
 Requested convergence on             energy=1.00D-06.
 No special actions if energy rises.
 Keep R1 integrals in memory in canonical form, NReq=      558036.
 SCF Done:  E(RmPW+HF-PW91) =  -254.873895839     A.U. after    9 cycles
             Convg  =    0.9856D-08             -V/T =  2.0179
             S**2   =   0.0000
 ***** Axes restored to original set *****
 -------------------------------------------------------------------
 Center     Atomic                   Forces (Hartrees/Bohr)
 Number     Number              X              Y              Z
 -------------------------------------------------------------------
    1          7          -0.000372292    0.000058824    0.000000000
    2          7           0.000235088   -0.000360623    0.000000000
    3          7           0.000166443    0.000325203    0.000000000
    4          1          -0.000090650   -0.000004611    0.000000000
    5          7           0.000045828    0.000031689    0.000000000
    6          6           0.000126527    0.000017230    0.000000000
    7          1          -0.000110944   -0.000067711    0.000000000
 -------------------------------------------------------------------
 Cartesian Forces:  Max     0.000372292 RMS     0.000155131

 GradGradGradGradGradGradGradGradGradGradGradGradGradGradGradGradGradGrad
 Berny optimization.
 Internal  Forces:  Max     0.000278049 RMS     0.000107183
 Search for a local minimum.
 Step number   6 out of a maximum of  36
 All quantities printed in internal units (Hartrees-Bohrs-Radians)
 Update second derivatives using D2CorX and points  1  2  3  4  5
                                                        6
 Trust test= 7.92D-01 RLast= 5.41D-03 DXMaxT set to 4.24D-01
     Eigenvalues ---    0.01981   0.02189   0.02343   0.02650   0.14738
     Eigenvalues ---    0.15835   0.19351   0.38243   0.39975   0.41101
     Eigenvalues ---    0.48874   0.49937   0.54836   0.63844   0.70790
     Eigenvalues --- 1000.000001000.000001000.000001000.000001000.00000
     Eigenvalues --- 1000.000001000.000001000.000001000.000001000.00000
     Eigenvalues --- 1000.00000
 RFO step:  Lambda=-6.24061186D-07.
 Quartic linear search produced a step of -0.17745.
 Iteration  1 RMS(Cart)=  0.00039999 RMS(Int)=  0.00000015
 Iteration  2 RMS(Cart)=  0.00000016 RMS(Int)=  0.00000002
 Variable       Old X    -DE/DX   Delta X   Delta X   Delta X     New X
                                 (Linear)    (Quad)   (Total)
    R1        2.57950  -0.00023  -0.00014  -0.00070  -0.00084   2.57866
    R2        2.73076   0.00011   0.00046   0.00018   0.00064   2.73140
    R3        2.68631   0.00012   0.00014   0.00020   0.00034   2.68665
    R4        1.97583   0.00000  -0.00008   0.00006  -0.00001   1.97582
    R5        2.61468   0.00003  -0.00022   0.00048   0.00026   2.61495
    R6        2.56542   0.00009  -0.00004  -0.00008  -0.00012   2.56530
    R7        2.07103  -0.00013  -0.00007  -0.00021  -0.00028   2.07075
    A1        1.94318  -0.00019  -0.00035  -0.00002  -0.00037   1.94281
    A2        1.82396   0.00028   0.00039   0.00034   0.00073   1.82469
    A3        2.11904  -0.00001   0.00026  -0.00074  -0.00048   2.11856
    A4        1.90744  -0.00018  -0.00028  -0.00033  -0.00061   1.90683
    A5        2.25671   0.00018   0.00002   0.00106   0.00109   2.25780
    A6        1.82840   0.00011  -0.00002   0.00008   0.00006   1.82846
    A7        1.92180  -0.00002   0.00026  -0.00006   0.00020   1.92200
    A8        2.15237   0.00003  -0.00034   0.00047   0.00013   2.15250
    A9        2.20901  -0.00001   0.00008  -0.00040  -0.00032   2.20869
    D1        0.00000   0.00000   0.00000   0.00000   0.00000   0.00000
    D2        0.00000   0.00000   0.00000   0.00000   0.00000   0.00000
    D3        3.14159   0.00000   0.00000   0.00000   0.00000   3.14159
    D4        0.00000   0.00000   0.00000   0.00000   0.00000   0.00000
    D5        0.00000   0.00000   0.00000   0.00000   0.00000   0.00000
    D6        3.14159   0.00000   0.00000   0.00000   0.00000   3.14159
    D7        3.14159   0.00000   0.00000   0.00000   0.00000   3.14159
    D8        0.00000   0.00000   0.00000   0.00000   0.00000   0.00000
    D9        0.00000   0.00000   0.00000   0.00000   0.00000   0.00000
   D10        3.14159   0.00000   0.00000   0.00000   0.00000   3.14159
         Item               Value     Threshold  Converged?
 Maximum Force            0.000278     0.000450     YES
 RMS     Force            0.000107     0.000300     YES
 Maximum Displacement     0.001248     0.001800     YES
 RMS     Displacement     0.000400     0.001200     YES
 Predicted change in Energy=-4.730244D-07
 Optimization completed.
    -- Stationary point found.
                           ----------------------------
                           !   Optimized Parameters   !
                           ! (Angstroms and Degrees)  !
 --------------------------                            --------------------------
 ! Name  Definition              Value          Derivative Info.                !
 --------------------------------------------------------------------------------
 ! R1    R(1,2)                  1.365          -DE/DX =   -0.0002              !
 ! R2    R(1,5)                  1.4451         -DE/DX =    0.0001              !
 ! R3    R(2,3)                  1.4215         -DE/DX =    0.0001              !
 ! R4    R(3,4)                  1.0456         -DE/DX =    0.0                 !
 ! R5    R(3,6)                  1.3836         -DE/DX =    0.0                 !
 ! R6    R(5,6)                  1.3576         -DE/DX =    0.0001              !
 ! R7    R(6,7)                  1.0959         -DE/DX =   -0.0001              !
 ! A1    A(2,1,5)              111.336          -DE/DX =   -0.0002              !
 ! A2    A(1,2,3)              104.5052         -DE/DX =    0.0003              !
 ! A3    A(2,3,4)              121.4119         -DE/DX =    0.0                 !
 ! A4    A(2,3,6)              109.2882         -DE/DX =   -0.0002              !
 ! A5    A(4,3,6)              129.2999         -DE/DX =    0.0002              !
 ! A6    A(1,5,6)              104.7595         -DE/DX =    0.0001              !
 ! A7    A(3,6,5)              110.111          -DE/DX =    0.0                 !
 ! A8    A(3,6,7)              123.3217         -DE/DX =    0.0                 !
 ! A9    A(5,6,7)              126.5672         -DE/DX =    0.0                 !
 ! D1    D(5,1,2,3)              0.0            -DE/DX =    0.0                 !
 ! D2    D(2,1,5,6)              0.0            -DE/DX =    0.0                 !
 ! D3    D(1,2,3,4)            180.0            -DE/DX =    0.0                 !
 ! D4    D(1,2,3,6)              0.0            -DE/DX =    0.0                 !
 ! D5    D(2,3,6,5)              0.0            -DE/DX =    0.0                 !
 ! D6    D(2,3,6,7)            180.0            -DE/DX =    0.0                 !
 ! D7    D(4,3,6,5)            180.0            -DE/DX =    0.0                 !
 ! D8    D(4,3,6,7)              0.0            -DE/DX =    0.0                 !
 ! D9    D(1,5,6,3)              0.0            -DE/DX =    0.0                 !
 ! D10   D(1,5,6,7)            180.0            -DE/DX =    0.0                 !
 --------------------------------------------------------------------------------
 GradGradGradGradGradGradGradGradGradGradGradGradGradGradGradGradGradGrad

                          Input orientation:                          
 ---------------------------------------------------------------------
 Center     Atomic     Atomic              Coordinates (Angstroms)
 Number     Number      Type              X           Y           Z
 ---------------------------------------------------------------------
    1          7             0       -0.755618   -0.997162    0.000000
    2          7             0       -1.200261    0.293398    0.000000
    3          7             0       -0.015079    1.078324    0.000000
    4          1             0       -0.053464    2.123185    0.000000
    5          7             0        0.688247   -1.055795    0.000000
    6          6             0        1.087083    0.241859    0.000000
    7          1             0        2.120278    0.607374    0.000000
 ---------------------------------------------------------------------
                    Distance matrix (angstroms):
                    1          2          3          4          5
     1  N    0.000000
     2  N    1.365011   0.000000
     3  N    2.203642   1.421535   0.000000
     4  H    3.198372   2.159458   1.045566   0.000000
     5  N    1.445055   2.320945   2.247027   3.264360   0.000000
     6  C    2.220523   2.287925   1.383631   2.200053   1.357563
     7  H    3.293222   3.335349   2.186674   2.650064   2.194731
                    6          7
     6  C    0.000000
     7  H    1.095943   0.000000
 Stoichiometry    CH2N4
 Framework group  CS[SG(CH2N4)]
 Deg. of freedom    11
 Full point group                 CS      NOp   2
 Largest Abelian subgroup         CS      NOp   2
 Largest concise Abelian subgroup C1      NOp   1
                         Standard orientation:                         
 ---------------------------------------------------------------------
 Center     Atomic     Atomic              Coordinates (Angstroms)
 Number     Number      Type              X           Y           Z
 ---------------------------------------------------------------------
    1          7             0       -0.748601   -0.977956    0.000000
    2          7             0       -1.188224    0.314324    0.000000
    3          7             0        0.000000    1.094636    0.000000
    4          1             0       -0.034323    2.139638    0.000000
    5          7             0        0.695025   -1.042201    0.000000
    6          6             0        1.098903    0.253893    0.000000
    7          1             0        2.133510    0.615388    0.000000
 ---------------------------------------------------------------------
 Rotational constants (GHZ):      9.6933793      9.4128503      4.7755277

 **********************************************************************

            Population analysis using the SCF density.

 **********************************************************************

 Orbital symmetries:
       Occupied  (A') (A') (A') (A') (A') (A') (A') (A') (A') (A')
                 (A') (A') (A") (A') (A") (A") (A') (A')
       Virtual   (A") (A") (A') (A') (A') (A') (A') (A') (A')
 The electronic state is 1-A'.
 Alpha  occ. eigenvalues --  -14.36075 -14.29289 -14.26402 -14.24100 -10.16806
 Alpha  occ. eigenvalues --   -1.09008  -0.90911  -0.86382  -0.64156  -0.62178
 Alpha  occ. eigenvalues --   -0.55511  -0.44994  -0.42945  -0.31083  -0.26335
 Alpha  occ. eigenvalues --   -0.25185  -0.24513  -0.22937
 Alpha virt. eigenvalues --    0.04882   0.09425   0.23053   0.25735   0.35504
 Alpha virt. eigenvalues --    0.36805   0.38772   0.53135   0.58985
          Condensed to atoms (all electrons):
              1          2          3          4          5          6
     1  N    6.574150   0.313801  -0.044097   0.001832   0.258997  -0.040569
     2  N    0.313801   6.550519   0.270822  -0.017294  -0.024586  -0.049633
     3  N   -0.044097   0.270822   6.311165   0.332496  -0.045522   0.393704
     4  H    0.001832  -0.017294   0.332496   0.439997   0.001401  -0.022557
     5  N    0.258997  -0.024586  -0.045522   0.001401   6.562293   0.417322
     6  C   -0.040569  -0.049633   0.393704  -0.022557   0.417322   4.849162
     7  H    0.001508   0.001044  -0.019295  -0.000512  -0.016273   0.385571
              7
     1  N    0.001508
     2  N    0.001044
     3  N   -0.019295
     4  H   -0.000512
     5  N   -0.016273
     6  C    0.385571
     7  H    0.516395
 Mulliken atomic charges:
              1
     1  N   -0.065621
     2  N   -0.044673
     3  N   -0.199273
     4  H    0.264637
     5  N   -0.153631
     6  C    0.067000
     7  H    0.131562
 Sum of Mulliken charges=   0.00000
 Atomic charges with hydrogens summed into heavy atoms:
              1
     1  N   -0.065621
     2  N   -0.044673
     3  N    0.065364
     4  H    0.000000
     5  N   -0.153631
     6  C    0.198562
     7  H    0.000000
 Sum of Mulliken charges=   0.00000
 Electronic spatial extent (au):  <R**2>=   264.0662
 Charge=     0.0000 electrons
 Dipole moment (field-independent basis, Debye):
    X=     2.1502    Y=     4.4417    Z=     0.0000  Tot=     4.9348
 Quadrupole moment (field-independent basis, Debye-Ang):
   XX=   -27.4065   YY=   -24.6820   ZZ=   -25.9124
   XY=     1.7770   XZ=     0.0000   YZ=     0.0000
 Traceless Quadrupole moment (field-independent basis, Debye-Ang):
   XX=    -1.4062   YY=     1.3183   ZZ=     0.0879
   XY=     1.7770   XZ=     0.0000   YZ=     0.0000
 Octapole moment (field-independent basis, Debye-Ang**2):
  XXX=     8.5881  YYY=    19.8560  ZZZ=     0.0000  XYY=    -0.5600
  XXY=     3.7626  XXZ=     0.0000  XZZ=    -1.1131  YZZ=    -0.3490
  YYZ=     0.0000  XYZ=     0.0000
 Hexadecapole moment (field-independent basis, Debye-Ang**3):
 XXXX=  -139.9432 YYYY=  -115.0510 ZZZZ=   -17.4446 XXXY=     5.9643
 XXXZ=     0.0000 YYYX=    -0.7995 YYYZ=     0.0000 ZZZX=     0.0000
 ZZZY=     0.0000 XXYY=   -51.2578 XXZZ=   -27.6428 YYZZ=   -26.0492
 XXYZ=     0.0000 YYXZ=     0.0000 ZZXY=    -0.4585
 N-N= 1.595249307895D+02 E-N=-9.125523398944D+02  KE= 2.503841376922D+02
 Symmetry A'   KE= 2.405320617131D+02
 Symmetry A"   KE= 9.852075979035D+00
 1|1|UNPC-UNK|FOpt|RmPW1PW91|STO-3G|C1H2N4|PCUSER|28-Mar-2006|0||#MPW1P
 W91/STO-3G OPT FREQ||1htz 1H-Tetrazole casno=288948 method=25 basis=20
 ||0,1|N,-0.7447936549,-0.9808586286,0.|N,-1.1894367954,0.3097018263,0.
 |N,-0.0042555397,1.0946274335,0.|H,-0.0426405804,2.1394884857,0.|N,0.6
 990709582,-1.039491374,0.|C,1.0979073641,0.2581631828,0.|H,2.131101618
 2,0.6236776175,0.||Version=x86-Win32-G03RevB.05|State=1-A'|HF=-254.873
 8958|RMSD=9.856e-009|RMSF=1.551e-004|Dipole=0.8391564,1.7507943,0.|PG=
 CS [SG(C1H2N4)]||@


 THERE IS NO CURE FOR BIRTH AND DEATH SAVE TO ENJOY THE INTERVAL.

                               -- GEORGE SANTAYANA
 Job cpu time:  0 days  0 hours  1 minutes 38.0 seconds.
 File lengths (MBytes):  RWF=     11 Int=      0 D2E=      0 Chk=      4 Scr=      1
 Normal termination of Gaussian 03 at Tue Mar 28 22:48:50 2006.
 Link1:  Proceeding to internal job step number  2.
 -------------------------------------------------------------------
 #N Geom=AllCheck Guess=Read SCRF=Check GenChk RmPW1PW91/STO-3G Freq
 -------------------------------------------------------------------
 1/10=4,29=7,30=1,38=1,40=1,46=1/1,3;
 2/40=1/2;
 3/6=3,11=2,16=1,25=1,30=1,70=2,71=2,74=-7/1,2,3;
 4/5=1,7=1/1;
 5/5=2,38=6/2;
 8/6=4,10=90,11=11/1;
 11/6=1,8=1,9=11,15=111,16=1/1,2,10;
 10/6=1/2;
 6/7=2,8=2,9=2,10=2,18=1,28=1/1;
 7/8=1,10=1,25=1/1,2,3,16;
 1/10=4,30=1,46=1/3;
 99//99;
 -------------------------------------------------
 1htz 1H-Tetrazole casno=288948 method=25 basis=20
 -------------------------------------------------
 Redundant internal coordinates taken from checkpoint file:
 gxx.chk
 Charge =  0 Multiplicity = 1
 N,0,-0.7447936549,-0.9808586286,0.
 N,0,-1.1894367954,0.3097018263,0.
 N,0,-0.0042555397,1.0946274335,0.
 H,0,-0.0426405804,2.1394884857,0.
 N,0,0.6990709582,-1.039491374,0.
 C,0,1.0979073641,0.2581631828,0.
 H,0,2.1311016182,0.6236776175,0.
 Recover connectivity data from disk.

 GradGradGradGradGradGradGradGradGradGradGradGradGradGradGradGradGradGrad
 Berny optimization.
 Initialization pass.
                           ----------------------------
                           !    Initial Parameters    !
                           ! (Angstroms and Degrees)  !
 --------------------------                            --------------------------
 ! Name  Definition              Value          Derivative Info.                !
 --------------------------------------------------------------------------------
 ! R1    R(1,2)                  1.365          calculate D2E/DX2 analytically  !
 ! R2    R(1,5)                  1.4451         calculate D2E/DX2 analytically  !
 ! R3    R(2,3)                  1.4215         calculate D2E/DX2 analytically  !
 ! R4    R(3,4)                  1.0456         calculate D2E/DX2 analytically  !
 ! R5    R(3,6)                  1.3836         calculate D2E/DX2 analytically  !
 ! R6    R(5,6)                  1.3576         calculate D2E/DX2 analytically  !
 ! R7    R(6,7)                  1.0959         calculate D2E/DX2 analytically  !
 ! A1    A(2,1,5)              111.336          calculate D2E/DX2 analytically  !
 ! A2    A(1,2,3)              104.5052         calculate D2E/DX2 analytically  !
 ! A3    A(2,3,4)              121.4119         calculate D2E/DX2 analytically  !
 ! A4    A(2,3,6)              109.2882         calculate D2E/DX2 analytically  !
 ! A5    A(4,3,6)              129.2999         calculate D2E/DX2 analytically  !
 ! A6    A(1,5,6)              104.7595         calculate D2E/DX2 analytically  !
 ! A7    A(3,6,5)              110.111          calculate D2E/DX2 analytically  !
 ! A8    A(3,6,7)              123.3217         calculate D2E/DX2 analytically  !
 ! A9    A(5,6,7)              126.5672         calculate D2E/DX2 analytically  !
 ! D1    D(5,1,2,3)              0.0            calculate D2E/DX2 analytically  !
 ! D2    D(2,1,5,6)              0.0            calculate D2E/DX2 analytically  !
 ! D3    D(1,2,3,4)            180.0            calculate D2E/DX2 analytically  !
 ! D4    D(1,2,3,6)              0.0            calculate D2E/DX2 analytically  !
 ! D5    D(2,3,6,5)              0.0            calculate D2E/DX2 analytically  !
 ! D6    D(2,3,6,7)            180.0            calculate D2E/DX2 analytically  !
 ! D7    D(4,3,6,5)            180.0            calculate D2E/DX2 analytically  !
 ! D8    D(4,3,6,7)              0.0            calculate D2E/DX2 analytically  !
 ! D9    D(1,5,6,3)              0.0            calculate D2E/DX2 analytically  !
 ! D10   D(1,5,6,7)            180.0            calculate D2E/DX2 analytically  !
 --------------------------------------------------------------------------------
 Trust Radius=3.00D-01 FncErr=1.00D-07 GrdErr=1.00D-07
 Number of steps in this run=   2 maximum allowed number of steps=   2.
 GradGradGradGradGradGradGradGradGradGradGradGradGradGradGradGradGradGrad

                          Input orientation:                          
 ---------------------------------------------------------------------
 Center     Atomic     Atomic              Coordinates (Angstroms)
 Number     Number      Type              X           Y           Z
 ---------------------------------------------------------------------
    1          7             0       -0.744794   -0.980859    0.000000
    2          7             0       -1.189437    0.309702    0.000000
    3          7             0       -0.004256    1.094627    0.000000
    4          1             0       -0.042641    2.139488    0.000000
    5          7             0        0.699071   -1.039491    0.000000
    6          6             0        1.097907    0.258163    0.000000
    7          1             0        2.131102    0.623678    0.000000
 ---------------------------------------------------------------------
                    Distance matrix (angstroms):
                    1          2          3          4          5
     1  N    0.000000
     2  N    1.365011   0.000000
     3  N    2.203642   1.421535   0.000000
     4  H    3.198372   2.159458   1.045566   0.000000
     5  N    1.445055   2.320945   2.247027   3.264360   0.000000
     6  C    2.220523   2.287925   1.383631   2.200053   1.357563
     7  H    3.293222   3.335349   2.186674   2.650064   2.194731
                    6          7
     6  C    0.000000
     7  H    1.095943   0.000000
 Stoichiometry    CH2N4
 Framework group  CS[SG(CH2N4)]
 Deg. of freedom    11
 Full point group                 CS      NOp   2
 Largest Abelian subgroup         CS      NOp   2
 Largest concise Abelian subgroup C1      NOp   1
                         Standard orientation:                         
 ---------------------------------------------------------------------
 Center     Atomic     Atomic              Coordinates (Angstroms)
 Number     Number      Type              X           Y           Z
 ---------------------------------------------------------------------
    1          7             0       -0.748601   -0.977956    0.000000
    2          7             0       -1.188224    0.314324    0.000000
    3          7             0        0.000000    1.094636    0.000000
    4          1             0       -0.034323    2.139638    0.000000
    5          7             0        0.695025   -1.042201    0.000000
    6          6             0        1.098903    0.253893    0.000000
    7          1             0        2.133510    0.615388    0.000000
 ---------------------------------------------------------------------
 Rotational constants (GHZ):      9.6933793      9.4128503      4.7755277
 Standard basis: STO-3G (5D, 7F)
 There are    22 symmetry adapted basis functions of A'  symmetry.
 There are     5 symmetry adapted basis functions of A"  symmetry.
[...]
 XXXX=  -139.9432 YYYY=  -115.0510 ZZZZ=   -17.4446 XXXY=     5.9643
 XXXZ=     0.0000 YYYX=    -0.7995 YYYZ=     0.0000 ZZZX=     0.0000
 ZZZY=     0.0000 XXYY=   -51.2578 XXZZ=   -27.6428 YYZZ=   -26.0492
 XXYZ=     0.0000 YYXZ=     0.0000 ZZXY=    -0.4585
 N-N= 1.595249307895D+02 E-N=-9.125523401161D+02  KE= 2.503841377667D+02
 Symmetry A'   KE= 2.405320617789D+02
 Symmetry A"   KE= 9.852075987766D+00
  Exact polarizability:  24.463   1.195  25.304   0.000   0.000   6.167
 Approx polarizability:  52.223  -0.925  60.454   0.000   0.000   7.574
 Full mass-weighted force constant matrix:
 Low frequencies ---  -15.0212  -13.7663    0.0005    0.0006    0.0008    8.3234
 Low frequencies ---  490.7058  649.2971  665.5553
 Diagonal vibrational polarizability:
        1.0710265       0.8092724      11.2534291
 Harmonic frequencies (cm**-1), IR intensities (KM/Mole), Raman scattering
 activities (A**4/AMU), depolarization ratios for plane and unpolarized
 incident light, reduced masses (AMU), force constants (mDyne/A),
 and normal coordinates:
                     1                      2                      3
                    A"                     A"                     A"
 Frequencies --   490.7049               649.2971               665.5551
 Red. masses --     1.9133                 2.0551                 7.6151
 Frc consts  --     0.2714                 0.5105                 1.9874
 IR Inten    --    83.4634                15.2983                 8.8174
 Atom AN      X      Y      Z        X      Y      Z        X      Y      Z
   1   7     0.00   0.00   0.03     0.00   0.00   0.01     0.00   0.00   0.47
   2   7     0.00   0.00  -0.11     0.00   0.00   0.11     0.00   0.00  -0.37
   3   7     0.00   0.00   0.23     0.00   0.00  -0.11     0.00   0.00   0.06
   4   1     0.00   0.00  -0.95     0.00   0.00  -0.86     0.00   0.00   0.69
   5   7     0.00   0.00   0.01     0.00   0.00  -0.16     0.00   0.00  -0.35
   6   6     0.00   0.00  -0.09     0.00   0.00   0.20     0.00   0.00   0.16
   7   1     0.00   0.00  -0.19     0.00   0.00   0.43     0.00   0.00   0.08
                     4                      5                      6
                    A"                     A'                     A'
 Frequencies --   850.0560               931.8045               973.9473
 Red. masses --     1.2612                 5.6674                 5.9132
 Frc consts  --     0.5369                 2.8992                 3.3048
 IR Inten    --    11.0953                 1.0107                 0.2356
 Atom AN      X      Y      Z        X      Y      Z        X      Y      Z
   1   7     0.00   0.00   0.03    -0.03   0.22   0.00     0.18  -0.06   0.00
   2   7     0.00   0.00   0.00    -0.21   0.14   0.00     0.11  -0.07   0.00
   3   7     0.00   0.00   0.02    -0.10  -0.06   0.00     0.02   0.40   0.00
   4   1     0.00   0.00   0.04     0.45  -0.04   0.00     0.40   0.43   0.00
   5   7     0.00   0.00   0.01     0.40  -0.24   0.00     0.00  -0.21   0.00
   6   6     0.00   0.00  -0.15    -0.07  -0.12   0.00    -0.37  -0.06   0.00
   7   1     0.00   0.00   0.99    -0.31   0.58   0.00    -0.26  -0.44   0.00
                     7                      8                      9
                    A'                     A'                     A'
 Frequencies --  1047.0855              1057.1164              1146.6614
 Red. masses --     4.1639                 3.5554                 1.5140
 Frc consts  --     2.6898                 2.3409                 1.1728
 IR Inten    --    17.4965                17.7710                 7.5811
 Atom AN      X      Y      Z        X      Y      Z        X      Y      Z
   1   7     0.35   0.06   0.00     0.17   0.07   0.00    -0.07  -0.12   0.00
   2   7    -0.23   0.03   0.00     0.24   0.18   0.00     0.06   0.02   0.00
   3   7     0.04  -0.14   0.00    -0.17  -0.13   0.00     0.07  -0.03   0.00
   4   1     0.86  -0.12   0.00    -0.73  -0.16   0.00     0.50  -0.02   0.00
   5   7    -0.20   0.04   0.00    -0.10  -0.09   0.00    -0.03   0.00   0.00
   6   6    -0.03   0.03   0.00    -0.09  -0.05   0.00    -0.06   0.08   0.00
   7   1    -0.02  -0.03   0.00    -0.26   0.42   0.00    -0.31   0.78   0.00
                    10                     11                     12
                    A'                     A'                     A'
 Frequencies --  1249.5688              1269.2446              1488.6501
 Red. masses --     9.4688                 3.0007                 3.7453
 Frc consts  --     8.7109                 2.8482                 4.8902
 IR Inten    --     0.1238                 1.6436                14.1320
 Atom AN      X      Y      Z        X      Y      Z        X      Y      Z
   1   7    -0.07   0.54   0.00    -0.04  -0.04   0.00     0.00  -0.01   0.00
   2   7     0.19  -0.51   0.00     0.13   0.08   0.00    -0.08   0.06   0.00
   3   7     0.11  -0.11   0.00    -0.08  -0.13   0.00     0.28  -0.14   0.00
   4   1     0.18  -0.15   0.00     0.61  -0.13   0.00    -0.75  -0.21   0.00
   5   7    -0.07   0.08   0.00     0.12   0.23   0.00     0.07  -0.06   0.00
   6   6    -0.17  -0.02   0.00    -0.19  -0.08   0.00    -0.24   0.22   0.00
   7   1    -0.35   0.41   0.00    -0.03  -0.67   0.00    -0.07  -0.40   0.00
                    13                     14                     15
                    A'                     A'                     A'
 Frequencies --  1527.2986              3541.8376              3780.2091
 Red. masses --     3.4965                 1.1016                 1.0867
 Frc consts  --     4.8055                 8.1422                 9.1495
 IR Inten    --    32.1473                39.0902                92.2751
 Atom AN      X      Y      Z        X      Y      Z        X      Y      Z
   1   7     0.06  -0.05   0.00     0.00   0.00   0.00     0.00   0.00   0.00
   2   7    -0.11   0.01   0.00     0.00   0.00   0.00     0.00   0.00   0.00
   3   7     0.15   0.07   0.00     0.00   0.00   0.00     0.00  -0.08   0.00
   4   1    -0.60   0.05   0.00     0.00   0.05   0.00    -0.04   1.00   0.00
   5   7     0.02   0.21   0.00     0.00   0.00   0.00     0.00   0.00   0.00
   6   6    -0.06  -0.34   0.00     0.09   0.03   0.00    -0.01   0.00   0.00
   7   1    -0.40   0.52   0.00    -0.94  -0.33   0.00     0.05   0.01   0.00

 -------------------
 - Thermochemistry -
 -------------------
 Temperature   298.150 Kelvin.  Pressure   1.00000 Atm.
 Atom  1 has atomic number  7 and mass  14.00307
 Atom  2 has atomic number  7 and mass  14.00307
 Atom  3 has atomic number  7 and mass  14.00307
 Atom  4 has atomic number  1 and mass   1.00783
 Atom  5 has atomic number  7 and mass  14.00307
 Atom  6 has atomic number  6 and mass  12.00000
 Atom  7 has atomic number  1 and mass   1.00783
 Molecular mass:    70.02795 amu.
 Principal axes and moments of inertia in atomic units:
                           1         2         3
     EIGENVALUES --   186.18287 191.73164 377.91451
           X            0.90169   0.43238   0.00000
           Y           -0.43238   0.90169   0.00000
           Z            0.00000   0.00000   1.00000
 This molecule is an asymmetric top.
 Rotational symmetry number  1.
 Rotational temperatures (Kelvin)      0.46521     0.45175     0.22919
 Rotational constants (GHZ):           9.69338     9.41285     4.77553
 Zero-point vibrational energy     123628.3 (Joules/Mol)
                                   29.54787 (Kcal/Mol)
 Warning -- explicit consideration of   1 degrees of freedom as
           vibrations may cause significant error
 Vibrational temperatures:    706.01   934.19   957.58  1223.04  1340.66
          (Kelvin)           1401.29  1506.52  1520.95  1649.79  1797.85
                             1826.16  2141.83  2197.44  5095.91  5438.87
 
 Zero-point correction=                           0.047088 (Hartree/Particle)
 Thermal correction to Energy=                    0.050684
 Thermal correction to Enthalpy=                  0.051628
 Thermal correction to Gibbs Free Energy=         0.020810
 Sum of electronic and zero-point Energies=           -254.826808
 Sum of electronic and thermal Energies=              -254.823212
 Sum of electronic and thermal Enthalpies=            -254.822268
 Sum of electronic and thermal Free Energies=         -254.853086
 
                     E (Thermal)             CV                S
                      KCal/Mol        Cal/Mol-Kelvin    Cal/Mol-Kelvin
 Total                   31.805             11.869             64.863
 Electronic               0.000              0.000              0.000
 Translational            0.889              2.981             38.656
 Rotational               0.889              2.981             24.115
 Vibrational             30.027              5.907              2.091
 Vibration  1             0.846              1.271              0.682
                       Q            Log10(Q)             Ln(Q)
 Total Bot       0.268079D-09         -9.571737        -22.039739
 Total V=0       0.122174D+13         12.086978         27.831296
 Vib (Bot)       0.279924D-21        -21.552959        -49.627523
 Vib (Bot)  1    0.337686D+00         -0.471488         -1.085640
 Vib (V=0)       0.127572D+01          0.105756          0.243512
 Vib (V=0)  1    0.110335D+01          0.042713          0.098351
 Electronic      0.100000D+01          0.000000          0.000000
 Translational   0.230336D+08          7.362362         16.952466
 Rotational      0.415776D+05          4.618860         10.635318
 ***** Axes restored to original set *****
 -------------------------------------------------------------------
 Center     Atomic                   Forces (Hartrees/Bohr)
 Number     Number              X              Y              Z
 -------------------------------------------------------------------
    1          7          -0.000372296    0.000058827    0.000000000
    2          7           0.000235077   -0.000360630    0.000000000
    3          7           0.000166447    0.000325208    0.000000000
    4          1          -0.000090650   -0.000004608    0.000000000
    5          7           0.000045832    0.000031691    0.000000000
    6          6           0.000126539    0.000017225    0.000000000
    7          1          -0.000110948   -0.000067712    0.000000000
 -------------------------------------------------------------------
 Cartesian Forces:  Max     0.000372296 RMS     0.000155133

 GradGradGradGradGradGradGradGradGradGradGradGradGradGradGradGradGradGrad
 Berny optimization.
 Internal  Forces:  Max     0.000278046 RMS     0.000107184
 Search for a local minimum.
 Step number   1 out of a maximum of   2
 All quantities printed in internal units (Hartrees-Bohrs-Radians)
 Second derivative matrix not updated -- analytic derivatives used.
     Eigenvalues ---    0.00688   0.02579   0.06344   0.07173   0.10328
     Eigenvalues ---    0.10888   0.19588   0.26532   0.35825   0.41657
     Eigenvalues ---    0.43928   0.47201   0.50710   0.57979   0.62047
     Eigenvalues --- 1000.000001000.000001000.000001000.000001000.00000
     Eigenvalues --- 1000.000001000.000001000.000001000.000001000.00000
     Eigenvalues --- 1000.00000
 Angle between quadratic step and forces=  35.18 degrees.
 Linear search not attempted -- first point.
 Iteration  1 RMS(Cart)=  0.00046910 RMS(Int)=  0.00000025
 Iteration  2 RMS(Cart)=  0.00000024 RMS(Int)=  0.00000003
 Variable       Old X    -DE/DX   Delta X   Delta X   Delta X     New X
                                 (Linear)    (Quad)   (Total)
    R1        2.57950  -0.00023   0.00000  -0.00083  -0.00083   2.57866
    R2        2.73076   0.00011   0.00000   0.00066   0.00066   2.73142
    R3        2.68631   0.00013   0.00000   0.00038   0.00038   2.68669
    R4        1.97583   0.00000   0.00000  -0.00003  -0.00003   1.97581
    R5        2.61468   0.00003   0.00000   0.00018   0.00018   2.61487
    R6        2.56542   0.00009   0.00000  -0.00007  -0.00007   2.56535
    R7        2.07103  -0.00013   0.00000  -0.00028  -0.00028   2.07075
    A1        1.94318  -0.00019   0.00000  -0.00040  -0.00040   1.94278
    A2        1.82396   0.00028   0.00000   0.00074   0.00074   1.82470
    A3        2.11904  -0.00001   0.00000  -0.00077  -0.00077   2.11827
    A4        1.90744  -0.00018   0.00000  -0.00059  -0.00059   1.90685
    A5        2.25671   0.00018   0.00000   0.00136   0.00136   2.25807
    A6        1.82840   0.00011   0.00000   0.00007   0.00007   1.82847
    A7        1.92180  -0.00002   0.00000   0.00019   0.00019   1.92199
    A8        2.15237   0.00003   0.00000   0.00019   0.00019   2.15256
    A9        2.20901  -0.00001   0.00000  -0.00037  -0.00037   2.20864
    D1        0.00000   0.00000   0.00000   0.00000   0.00000   0.00000
    D2        0.00000   0.00000   0.00000   0.00000   0.00000   0.00000
    D3        3.14159   0.00000   0.00000   0.00000   0.00000   3.14159
    D4        0.00000   0.00000   0.00000   0.00000   0.00000   0.00000
    D5        0.00000   0.00000   0.00000   0.00000   0.00000   0.00000
    D6        3.14159   0.00000   0.00000   0.00000   0.00000   3.14159
    D7        3.14159   0.00000   0.00000   0.00000   0.00000   3.14159
    D8        0.00000   0.00000   0.00000   0.00000   0.00000   0.00000
    D9        0.00000   0.00000   0.00000   0.00000   0.00000   0.00000
   D10        3.14159   0.00000   0.00000   0.00000   0.00000   3.14159
         Item               Value     Threshold  Converged?
 Maximum Force            0.000278     0.000450     YES
 RMS     Force            0.000107     0.000300     YES
 Maximum Displacement     0.001589     0.001800     YES
 RMS     Displacement     0.000469     0.001200     YES
 Predicted change in Energy=-5.044404D-07
 Optimization completed.
    -- Stationary point found.
                           ----------------------------
                           !   Optimized Parameters   !
                           ! (Angstroms and Degrees)  !
 --------------------------                            --------------------------
 ! Name  Definition              Value          Derivative Info.                !
 --------------------------------------------------------------------------------
 ! R1    R(1,2)                  1.365          -DE/DX =   -0.0002              !
 ! R2    R(1,5)                  1.4451         -DE/DX =    0.0001              !
 ! R3    R(2,3)                  1.4215         -DE/DX =    0.0001              !
 ! R4    R(3,4)                  1.0456         -DE/DX =    0.0                 !
 ! R5    R(3,6)                  1.3836         -DE/DX =    0.0                 !
 ! R6    R(5,6)                  1.3576         -DE/DX =    0.0001              !
 ! R7    R(6,7)                  1.0959         -DE/DX =   -0.0001              !
 ! A1    A(2,1,5)              111.336          -DE/DX =   -0.0002              !
 ! A2    A(1,2,3)              104.5052         -DE/DX =    0.0003              !
 ! A3    A(2,3,4)              121.4119         -DE/DX =    0.0                 !
 ! A4    A(2,3,6)              109.2882         -DE/DX =   -0.0002              !
 ! A5    A(4,3,6)              129.2999         -DE/DX =    0.0002              !
 ! A6    A(1,5,6)              104.7595         -DE/DX =    0.0001              !
 ! A7    A(3,6,5)              110.111          -DE/DX =    0.0                 !
 ! A8    A(3,6,7)              123.3217         -DE/DX =    0.0                 !
 ! A9    A(5,6,7)              126.5672         -DE/DX =    0.0                 !
 ! D1    D(5,1,2,3)              0.0            -DE/DX =    0.0                 !
 ! D2    D(2,1,5,6)              0.0            -DE/DX =    0.0                 !
 ! D3    D(1,2,3,4)            180.0            -DE/DX =    0.0                 !
 ! D4    D(1,2,3,6)              0.0            -DE/DX =    0.0                 !
 ! D5    D(2,3,6,5)              0.0            -DE/DX =    0.0                 !
 ! D6    D(2,3,6,7)            180.0            -DE/DX =    0.0                 !
 ! D7    D(4,3,6,5)            180.0            -DE/DX =    0.0                 !
 ! D8    D(4,3,6,7)              0.0            -DE/DX =    0.0                 !
 ! D9    D(1,5,6,3)              0.0            -DE/DX =    0.0                 !
 ! D10   D(1,5,6,7)            180.0            -DE/DX =    0.0                 !
 --------------------------------------------------------------------------------
 GradGradGradGradGradGradGradGradGradGradGradGradGradGradGradGradGradGrad

 1|1|UNPC-UNK|Freq|RmPW1PW91|STO-3G|C1H2N4|PCUSER|28-Mar-2006|0||#N GEO
 M=ALLCHECK GUESS=READ SCRF=CHECK GENCHK RMPW1PW91/STO-3G FREQ||1htz 1H
 -Tetrazole casno=288948 method=25 basis=20||0,1|N,-0.7447936549,-0.980
 8586286,0.|N,-1.1894367954,0.3097018263,0.|N,-0.0042555397,1.094627433
 5,0.|H,-0.0426405804,2.1394884857,0.|N,0.6990709582,-1.039491374,0.|C,
 1.0979073641,0.2581631828,0.|H,2.1311016182,0.6236776175,0.||Version=x
 86-Win32-G03RevB.05|State=1-A'|HF=-254.8738958|RMSD=1.381e-009|RMSF=1.
 551e-004|Dipole=0.8391564,1.7507943,0.|DipoleDeriv=0.0580227,0.2160727
 ,0.,0.1590046,-0.0765511,0.,0.,0.,-0.152657,0.0550169,0.3016603,0.,0.0
 839434,0.0718941,0.,0.,0.,-0.0575287,-0.232835,-0.0913778,0.,-0.124784
 2,-0.4608313,0.,0.,0.,-0.2020276,0.2081613,-0.0342425,0.,-0.0117114,0.
 2801534,0.,0.,0.,0.3439803,-0.3566671,-0.1948132,0.,-0.1816848,-0.1012
 536,0.,0.,0.,-0.1652398,0.0505445,-0.2349892,0.,0.0700688,0.1779686,0.
 ,0.,0.,0.1028538,0.2177567,0.0376898,0.,0.0051635,0.1086199,0.,0.,0.,0
 .1306191|Polar=24.4532572,1.1915308,25.3137277,0.,0.,6.1668555|PG=CS [
 SG(C1H2N4)]|NImag=0||0.41098225,0.04559818,0.53885707,0.,0.,0.10039725
 ,-0.12752422,0.03570880,0.,0.52562058,0.09788921,-0.29907912,0.,-0.055
 54428,0.46756198,0.,0.,-0.07596595,0.,0.,0.08827600,-0.01960478,-0.063
 71185,0.,-0.24777327,-0.08011862,0.,0.62417096,0.01021144,-0.13560871,
 0.,-0.04889226,-0.12041405,0.,-0.08600398,1.05616815,0.,0.,0.01768357,
 0.,0.,-0.04941594,0.,0.,0.06680402,-0.00965170,-0.00887920,0.,0.020161
 32,-0.02154438,0.,-0.07430283,0.01877577,0.,0.05490350,-0.00213862,0.0
 0169516,0.,0.00796022,-0.00610038,0.,0.02313108,-0.50248443,0.,-0.0176
 3174,0.50498421,0.,0.,0.00762040,0.,0.,-0.01185370,0.,0.,-0.00293847,0
 .,0.,0.01120874,-0.18559398,0.00707092,0.,-0.07145163,0.10764422,0.,0.
 01989990,-0.03356372,0.,-0.00576614,0.00088104,0.,0.37557236,-0.027092
 60,-0.08468386,0.,0.00104201,-0.03737507,0.,0.08766756,-0.10070714,0.,
 0.00796982,0.00226887,0.,0.00615758,0.59662446,0.,0.,-0.07358038,0.,0.
 ,0.02817674,0.,0.,0.01950819,0.,0.,0.00631723,0.,0.,0.09153680,-0.0693
 2710,-0.01776868,0.,-0.10204925,-0.05052250,0.,-0.28886613,0.15397940,
 0.,0.01391641,-0.01308500,0.,-0.13599638,-0.07898232,0.,0.97261961,-0.
 12127859,-0.01610441,0.,0.05605626,0.00188634,0.,0.09081173,-0.2083331
 3,0.,0.02130369,-0.00098912,0.,-0.06068154,-0.37892044,0.,0.12837764,0
 .70036225,0.,0.,0.01382432,0.,0.,0.01576456,0.,0.,-0.04917352,0.,0.,-0
 .00942524,0.,0.,-0.06613348,0.,0.,0.12406767,0.00071953,0.00198184,0.,
 0.00301647,0.00219635,0.,-0.01352386,-0.01450666,0.,0.00073944,0.00088
 301,0.,0.00333587,0.00323797,0.,-0.39029716,-0.11458918,0.,0.39600970,
 -0.00318902,-0.00507614,0.,0.00366925,-0.00647971,0.,0.02822408,0.0113
 7932,0.,0.00000605,0.00062569,0.,-0.02750850,0.00279318,0.,-0.12199854
 ,-0.09790148,0.,0.12079668,0.09465913,0.,0.,0.01002080,0.,0.,0.0050183
 0,0.,0.,-0.00246785,0.,0.,-0.00092896,0.,0.,-0.00582509,0.,0.,-0.02892
 432,0.,0.,0.02310712||0.00037230,-0.00005883,0.,-0.00023508,0.00036063
 ,0.,-0.00016645,-0.00032521,0.,0.00009065,0.00000461,0.,-0.00004583,-0
 .00003169,0.,-0.00012654,-0.00001723,0.,0.00011095,0.00006771,0.|||@


 THERE IS NO CURE FOR BIRTH AND DEATH SAVE TO ENJOY THE INTERVAL.

                               -- GEORGE SANTAYANA
 Job cpu time:  0 days  0 hours  0 minutes 32.0 seconds.
 File lengths (MBytes):  RWF=     11 Int=      0 D2E=      0 Chk=      4 Scr=      1
 Normal termination of Gaussian 03 at Tue Mar 28 22:49:22 2006.
