 Entering Link 1 = C:\G03W\l1.exe PID=      1096.
  
 Copyright (c) 1988,1990,1992,1993,1995,1998,2003, Gaussian, Inc.
                  All Rights Reserved.
  
 This is the Gaussian(R) 03 program.  It is based on the
 the Gaussian(R) 98 system (copyright 1998, Gaussian, Inc.),
 the Gaussian(R) 94 system (copyright 1995, Gaussian, Inc.),
 the Gaussian 92(TM) system (copyright 1992, Gaussian, Inc.),
 the Gaussian 90(TM) system (copyright 1990, Gaussian, Inc.),
 the Gaussian 88(TM) system (copyright 1988, Gaussian, Inc.),
 the Gaussian 86(TM) system (copyright 1986, Carnegie Mellon
 University), and the Gaussian 82(TM) system (copyright 1983,
 Carnegie Mellon University). Gaussian is a federally registered
 trademark of Gaussian, Inc.
  
 This software contains proprietary and confidential information,
 including trade secrets, belonging to Gaussian, Inc.
  
 This software is provided under written license and may be
 used, copied, transmitted, or stored only in accord with that
 written license.
  
 The following legend is applicable only to US Government
 contracts under DFARS:
  
                    RESTRICTED RIGHTS LEGEND
  
 Use, duplication or disclosure by the US Government is subject
 to restrictions as set forth in subparagraph (c)(1)(ii) of the
 Rights in Technical Data and Computer Software clause at DFARS
 252.227-7013.
  
 Gaussian, Inc.
 Carnegie Office Park, Building 6, Pittsburgh, PA 15106 USA
  
 The following legend is applicable only to US Government
 contracts under FAR:
  
                    RESTRICTED RIGHTS LEGEND
  
 Use, reproduction and disclosure by the US Government is subject
 to restrictions as set forth in subparagraph (c) of the
 Commercial Computer Software - Restricted Rights clause at FAR
 52.227-19.
  
 Gaussian, Inc.
 Carnegie Office Park, Building 6, Pittsburgh, PA 15106 USA
  
  
 ---------------------------------------------------------------
 Warning -- This program may not be used in any manner that
 competes with the business of Gaussian, Inc. or will provide
 assistance to any competitor of Gaussian, Inc.  The licensee
 of this program is prohibited from giving any competitor of
 Gaussian, Inc. access to this program.  By using this program,
 the user acknowledges that Gaussian, Inc. is engaged in the
 business of creating and licensing software in the field of
 computational chemistry and represents and warrants to the
 licensee that it is not a competitor of Gaussian, Inc. and that
 it will not use this program in any manner prohibited above.
 ---------------------------------------------------------------
  

 Cite this work as:
 Gaussian 03, Revision B.05,
 M. J. Frisch, G. W. Trucks, H. B. Schlegel, G. E. Scuseria, 
 M. A. Robb, J. R. Cheeseman, J. A. Montgomery, Jr., T. Vreven, 
 K. N. Kudin, J. C. Burant, J. M. Millam, S. S. Iyengar, J. Tomasi, 
 V. Barone, B. Mennucci, M. Cossi, G. Scalmani, N. Rega, 
 G. A. Petersson, H. Nakatsuji, M. Hada, M. Ehara, K. Toyota, 
 R. Fukuda, J. Hasegawa, M. Ishida, T. Nakajima, Y. Honda, O. Kitao, 
 H. Nakai, M. Klene, X. Li, J. E. Knox, H. P. Hratchian, J. B. Cross, 
 C. Adamo, J. Jaramillo, R. Gomperts, R. E. Stratmann, O. Yazyev, 
 A. J. Austin, R. Cammi, C. Pomelli, J. W. Ochterski, P. Y. Ayala, 
 K. Morokuma, G. A. Voth, P. Salvador, J. J. Dannenberg, 
 V. G. Zakrzewski, S. Dapprich, A. D. Daniels, M. C. Strain, 
 O. Farkas, D. K. Malick, A. D. Rabuck, K. Raghavachari, 
 J. B. Foresman, J. V. Ortiz, Q. Cui, A. G. Baboul, S. Clifford, 
 J. Cioslowski, B. B. Stefanov, G. Liu, A. Liashenko, P. Piskorz, 
 I. Komaromi, R. L. Martin, D. J. Fox, T. Keith, M. A. Al-Laham, 
 C. Y. Peng, A. Nanayakkara, M. Challacombe, P. M. W. Gill, 
 B. Johnson, W. Chen, M. W. Wong, C. Gonzalez, and J. A. Pople, 
 Gaussian, Inc., Pittsburgh PA, 2003.
 
 **********************************************
 Gaussian 03:  x86-Win32-G03RevB.05  8-Nov-2003
                  08-Feb-2005 
 **********************************************
 %mem=24000000
 Default route:  MaxDisk=60000MB
 ------------------------------
 #mPW1PW91/6-311G(d,p) opt freq
 ------------------------------
 1/14=-1,18=20,26=3,38=1/1,3;
 2/9=110,17=6,18=5,40=1/2;
 3/5=4,6=6,7=101,11=2,16=1,25=1,30=1,74=-7/1,2,3;
 4//1;
 5/5=2,38=5/2;
 6/7=2,8=2,9=2,10=2,28=1/1;
 7//1,2,3,16;
 1/14=-1,18=20/3(1);
 99//99;
 2/9=110/2;
 3/5=4,6=6,7=101,11=2,16=1,25=1,30=1,74=-7/1,2,3;
 4/5=5,16=3/1;
 5/5=2,38=5/2;
 7//1,2,3,16;
 1/14=-1,18=20/3(-5);
 2/9=110/2;
 6/7=2,8=2,9=2,10=2,19=2,28=1/1;
 99/9=1/99;
 -----------------------------------------------------------
 1H tetrazole c CH-NH-N=N-N= casno=288948 method=25 basis=21
 -----------------------------------------------------------
 Symbolic Z-matrix:
 Charge =  0 Multiplicity = 1
 7                    -1.12329  -0.25456   0. 
 7                    -0.67158   0.91328   0. 
 7                     0.65055   0.80984   0. 
 1                     1.224     1.62189   0. 
 7                    -0.13465  -1.16105   0. 
 6                     0.96218  -0.48332   0. 
 1                     1.95569  -0.87454   0. 
 

 GradGradGradGradGradGradGradGradGradGradGradGradGradGradGradGradGradGrad
 Berny optimization.
 Initialization pass.
                           ----------------------------
                           !    Initial Parameters    !
                           ! (Angstroms and Degrees)  !
 --------------------------                            --------------------------
 ! Name  Definition              Value          Derivative Info.                !
 --------------------------------------------------------------------------------
 ! R1    R(1,2)                  1.2522         estimate D2E/DX2                !
 ! R2    R(1,5)                  1.3413         estimate D2E/DX2                !
 ! R3    R(2,3)                  1.3262         estimate D2E/DX2                !
 ! R4    R(3,4)                  0.9941         estimate D2E/DX2                !
 ! R5    R(3,6)                  1.3302         estimate D2E/DX2                !
 ! R6    R(5,6)                  1.2893         estimate D2E/DX2                !
 ! R7    R(6,7)                  1.0678         estimate D2E/DX2                !
 ! A1    A(2,1,5)              111.3714         estimate D2E/DX2                !
 ! A2    A(1,2,3)              106.673          estimate D2E/DX2                !
 ! A3    A(2,3,4)              120.7559         estimate D2E/DX2                !
 ! A4    A(2,3,6)              108.0227         estimate D2E/DX2                !
 ! A5    A(4,3,6)              131.2214         estimate D2E/DX2                !
 ! A6    A(1,5,6)              105.77           estimate D2E/DX2                !
 ! A7    A(3,6,5)              108.1628         estimate D2E/DX2                !
 ! A8    A(3,6,7)              125.0426         estimate D2E/DX2                !
 ! A9    A(5,6,7)              126.7945         estimate D2E/DX2                !
 ! D1    D(5,1,2,3)              0.0            estimate D2E/DX2                !
 ! D2    D(2,1,5,6)              0.0            estimate D2E/DX2                !
 ! D3    D(1,2,3,4)            180.0            estimate D2E/DX2                !
 ! D4    D(1,2,3,6)              0.0            estimate D2E/DX2                !
 ! D5    D(2,3,6,5)              0.0            estimate D2E/DX2                !
 ! D6    D(2,3,6,7)            180.0            estimate D2E/DX2                !
 ! D7    D(4,3,6,5)            180.0            estimate D2E/DX2                !
 ! D8    D(4,3,6,7)              0.0            estimate D2E/DX2                !
 ! D9    D(1,5,6,3)              0.0            estimate D2E/DX2                !
 ! D10   D(1,5,6,7)            180.0            estimate D2E/DX2                !
 --------------------------------------------------------------------------------
 Trust Radius=3.00D-01 FncErr=1.00D-07 GrdErr=1.00D-06
 Number of steps in this run=  36 maximum allowed number of steps= 100.
 GradGradGradGradGradGradGradGradGradGradGradGradGradGradGradGradGradGrad

                          Input orientation:                          
 ---------------------------------------------------------------------
 Center     Atomic     Atomic              Coordinates (Angstroms)
 Number     Number      Type              X           Y           Z
 ---------------------------------------------------------------------
    1          7             0       -1.123293   -0.254560    0.000000
    2          7             0       -0.671576    0.913277    0.000000
    3          7             0        0.650545    0.809842    0.000000
    4          1             0        1.224004    1.621891    0.000000
    5          7             0       -0.134646   -1.161053    0.000000
    6          6             0        0.962183   -0.483316    0.000000
    7          1             0        1.955691   -0.874535    0.000000
 ---------------------------------------------------------------------
                    Distance matrix (angstroms):
                    1          2          3          4          5
     1  N    0.000000
     2  N    1.252155   0.000000
     3  N    2.068684   1.326161   0.000000
     4  H    3.005141   2.023699   0.994122   0.000000
     5  N    1.341325   2.142694   2.121545   3.096887   0.000000
     6  C    2.097985   2.149335   1.330179   2.121426   1.289326
     7  H    3.140782   3.177861   2.130852   2.601444   2.109882
                    6          7
     6  C    0.000000
     7  H    1.067760   0.000000
 Stoichiometry    CH2N4
 Framework group  CS[SG(CH2N4)]
 Deg. of freedom    11
 Full point group                 CS      NOp   2
 Largest Abelian subgroup         CS      NOp   2
 Largest concise Abelian subgroup C1      NOp   1
                         Standard orientation:                         
 ---------------------------------------------------------------------
 Center     Atomic     Atomic              Coordinates (Angstroms)
 Number     Number      Type              X           Y           Z
 ---------------------------------------------------------------------
    1          7             0       -0.716312   -0.901934    0.000000
    2          7             0       -1.095520    0.291420    0.000000
    3          7             0        0.000000    1.038775    0.000000
    4          1             0       -0.061479    2.030994    0.000000
    5          7             0        0.622151   -0.989495    0.000000
    6          6             0        1.052813    0.225779    0.000000
    7          1             0        2.072370    0.542976    0.000000
 ---------------------------------------------------------------------
 Rotational constants (GHZ):     10.9198664     10.7343935      5.4131678
 Standard basis: 6-311G(d,p) (5D, 7F)
 There are    75 symmetry adapted basis functions of A'  symmetry.
 There are    27 symmetry adapted basis functions of A"  symmetry.
 Integral buffers will be    262144 words long.
 Raffenetti 2 integral format.
 Two-electron integral symmetry is turned on.
   102 basis functions,   176 primitive gaussians,   107 cartesian basis functions
    18 alpha electrons       18 beta electrons
       nuclear repulsion energy       169.8288291610 Hartrees.
 NAtoms=    7 NActive=    7 NUniq=    7 SFac= 1.00D+00 NAtFMM=   60 Big=F
 One-electron integrals computed using PRISM.
 NBasis=   102 RedAO= T  NBF=    75    27
 NBsUse=   102 1.00D-06 NBFU=    75    27
 Harris functional with IExCor=  908 diagonalized for initial guess.
 ExpMin= 1.03D-01 ExpMax= 6.29D+03 ExpMxC= 9.49D+02 IAcc=1 IRadAn=         1 AccDes= 1.00D-06
 HarFok:  IExCor= 908 AccDes= 1.00D-06 IRadAn=         1 IDoV=1
 ScaDFX=  1.000000  1.000000  1.000000  1.000000
 Initial guess orbital symmetries:
       Occupied  (A') (A') (A') (A') (A') (A') (A') (A') (A') (A')
                 (A') (A') (A") (A') (A") (A') (A") (A')
       Virtual   (A") (A") (A') (A') (A') (A') (A') (A') (A') (A')
                 (A") (A') (A') (A') (A') (A") (A') (A") (A') (A')
                 (A') (A") (A") (A') (A') (A') (A') (A') (A') (A")
                 (A') (A") (A') (A') (A") (A') (A") (A") (A') (A')
                 (A") (A') (A") (A') (A') (A') (A') (A') (A") (A")
                 (A') (A') (A") (A') (A') (A") (A') (A') (A") (A")
                 (A') (A') (A') (A') (A') (A') (A") (A') (A") (A')
                 (A") (A") (A') (A') (A') (A') (A') (A') (A') (A')
                 (A') (A') (A') (A')
 The electronic state of the initial guess is 1-A'.
 Requested convergence on RMS density matrix=1.00D-08 within 128 cycles.
 Requested convergence on MAX density matrix=1.00D-06.
 Requested convergence on             energy=1.00D-06.
 No special actions if energy rises.
 Keep R1 integrals in memory in canonical form, NReq=    17862147.
 Integral accuracy reduced to 1.0D-05 until final iterations.
 Initial convergence to 1.0D-05 achieved.  Increase integral accuracy.
 SCF Done:  E(RmPW+HF-PW91) =  -258.249841677     A.U. after   14 cycles
             Convg  =    0.3588D-08             -V/T =  2.0017
             S**2   =   0.0000

 **********************************************************************

            Population analysis using the SCF density.

 **********************************************************************

 Orbital symmetries:
       Occupied  (A') (A') (A') (A') (A') (A') (A') (A') (A') (A')
                 (A') (A") (A') (A') (A") (A") (A') (A')
       Virtual   (A") (A") (A') (A') (A') (A') (A') (A') (A') (A")
                 (A') (A') (A') (A') (A') (A") (A') (A") (A') (A')
                 (A') (A") (A') (A") (A') (A') (A') (A') (A') (A")
                 (A') (A") (A') (A") (A') (A') (A") (A') (A") (A')
                 (A') (A") (A") (A') (A') (A') (A') (A') (A") (A")
                 (A') (A') (A') (A") (A') (A") (A') (A') (A") (A")
                 (A') (A') (A') (A') (A') (A') (A") (A') (A") (A')
                 (A") (A") (A') (A') (A') (A') (A') (A') (A') (A')
                 (A') (A') (A') (A')
 The electronic state is 1-A'.
 Alpha  occ. eigenvalues --  -14.50601 -14.46806 -14.44924 -14.41993 -10.32253
 Alpha  occ. eigenvalues --   -1.20664  -0.99075  -0.93991  -0.71315  -0.70035
 Alpha  occ. eigenvalues --   -0.63029  -0.53377  -0.52594  -0.40500  -0.35511
 Alpha  occ. eigenvalues --   -0.33429  -0.32071  -0.30534
 Alpha virt. eigenvalues --   -0.01221   0.02639   0.03096   0.07458   0.18585
 Alpha virt. eigenvalues --    0.19856   0.22779   0.30235   0.34555   0.39729
 Alpha virt. eigenvalues --    0.43130   0.44635   0.50549   0.56699   0.57431
 Alpha virt. eigenvalues --    0.57774   0.60573   0.61320   0.63708   0.66227
 Alpha virt. eigenvalues --    0.70006   0.70744   0.74705   0.75215   0.84332
 Alpha virt. eigenvalues --    0.86202   0.93669   0.98462   1.02200   1.04761
 Alpha virt. eigenvalues --    1.18323   1.21384   1.22838   1.35630   1.36044
 Alpha virt. eigenvalues --    1.50560   1.59248   1.63087   1.63253   1.76936
 Alpha virt. eigenvalues --    1.80396   1.80897   1.88346   1.89760   2.08268
 Alpha virt. eigenvalues --    2.14602   2.25865   2.28040   2.34423   2.36111
 Alpha virt. eigenvalues --    2.41871   2.48639   2.52584   2.54253   2.59831
 Alpha virt. eigenvalues --    2.64862   2.68305   2.79933   2.80394   2.82233
 Alpha virt. eigenvalues --    2.85370   2.91066   3.14973   3.19176   3.38882
 Alpha virt. eigenvalues --    3.51364   3.55767   3.60256   3.67641   3.82704
 Alpha virt. eigenvalues --    3.87604   3.96967   4.00021   4.03000   4.47341
 Alpha virt. eigenvalues --    4.63176   4.87863   5.03440   5.81925  24.00808
 Alpha virt. eigenvalues --   35.34016  35.60418  35.68523  35.74855
          Condensed to atoms (all electrons):
              1          2          3          4          5          6
     1  N    6.687261   0.295484  -0.070668   0.007843   0.306616  -0.143885
     2  N    0.295484   6.761729   0.209948  -0.025727  -0.097285  -0.119975
     3  N   -0.070668   0.209948   6.535811   0.352017  -0.066519   0.356255
     4  H    0.007843  -0.025727   0.352017   0.431604   0.008368  -0.031875
     5  N    0.306616  -0.097285  -0.066519   0.008368   6.642010   0.481643
     6  C   -0.143885  -0.119975   0.356255  -0.031875   0.481643   4.801206
     7  H    0.002607   0.003846  -0.031677  -0.000769  -0.019960   0.411797
              7
     1  N    0.002607
     2  N    0.003846
     3  N   -0.031677
     4  H   -0.000769
     5  N   -0.019960
     6  C    0.411797
     7  H    0.484207
 Mulliken atomic charges:
              1
     1  N   -0.085258
     2  N   -0.028021
     3  N   -0.285167
     4  H    0.258538
     5  N   -0.254873
     6  C    0.244833
     7  H    0.149948
 Sum of Mulliken charges=   0.00000
 Atomic charges with hydrogens summed into heavy atoms:
              1
     1  N   -0.085258
     2  N   -0.028021
     3  N   -0.026629
     4  H    0.000000
     5  N   -0.254873
     6  C    0.394781
     7  H    0.000000
 Sum of Mulliken charges=   0.00000
 Electronic spatial extent (au):  <R**2>=   244.1024
 Charge=     0.0000 electrons
 Dipole moment (field-independent basis, Debye):
    X=     2.4818    Y=     4.7759    Z=     0.0000  Tot=     5.3822
 Quadrupole moment (field-independent basis, Debye-Ang):
   XX=   -28.7130   YY=   -26.3173   ZZ=   -27.9820
   XY=     1.7746   XZ=     0.0000   YZ=     0.0000
 Traceless Quadrupole moment (field-independent basis, Debye-Ang):
   XX=    -1.0423   YY=     1.3534   ZZ=    -0.3112
   XY=     1.7746   XZ=     0.0000   YZ=     0.0000
 Octapole moment (field-independent basis, Debye-Ang**2):
  XXX=    11.6817  YYY=    22.0350  ZZZ=     0.0000  XYY=    -0.5956
  XXY=     4.5495  XXZ=     0.0000  XZZ=    -0.7348  YZZ=     0.5351
  YYZ=     0.0000  XYZ=     0.0000
 Hexadecapole moment (field-independent basis, Debye-Ang**3):
 XXXX=  -137.6378 YYYY=  -116.8420 ZZZZ=   -24.7314 XXXY=     6.4581
 XXXZ=     0.0000 YYYX=    -0.4141 YYYZ=     0.0000 ZZZX=     0.0000
 ZZZY=     0.0000 XXYY=   -51.9450 XXZZ=   -29.4521 YYZZ=   -27.7663
 XXYZ=     0.0000 YYXZ=     0.0000 ZZXY=    -0.1030
 N-N= 1.698288291610D+02 E-N=-9.433129906254D+02  KE= 2.578125499892D+02
 Symmetry A'   KE= 2.482986069500D+02
 Symmetry A"   KE= 9.513943039118D+00
 ***** Axes restored to original set *****
 -------------------------------------------------------------------
 Center     Atomic                   Forces (Hartrees/Bohr)
 Number     Number              X              Y              Z
 -------------------------------------------------------------------
    1          7          -0.021333838   -0.022142782    0.000000000
    2          7          -0.003105891    0.034159545    0.000000000
    3          7           0.004907181    0.002434872    0.000000000
    4          1           0.006367536    0.009188550    0.000000000
    5          7          -0.008160005   -0.021813693    0.000000000
    6          6           0.015187709    0.000529826    0.000000000
    7          1           0.006137307   -0.002356318    0.000000000
 -------------------------------------------------------------------
 Cartesian Forces:  Max     0.034159545 RMS     0.012137171

 GradGradGradGradGradGradGradGradGradGradGradGradGradGradGradGradGradGrad
 Berny optimization.
 Internal  Forces:  Max     0.032954205 RMS     0.009592324
 Search for a local minimum.
 Step number   1 out of a maximum of  36
 All quantities printed in internal units (Hartrees-Bohrs-Radians)
 Second derivative matrix not updated -- first step.
     Eigenvalues ---    0.02505   0.02639   0.02674   0.02834   0.16000
     Eigenvalues ---    0.16000   0.22605   0.24688   0.37515   0.48737
     Eigenvalues ---    0.50885   0.56605   0.58506   0.66912   0.78894
     Eigenvalues --- 1000.000001000.000001000.000001000.000001000.00000
     Eigenvalues --- 1000.000001000.000001000.000001000.000001000.00000
     Eigenvalues --- 1000.00000
 RFO step:  Lambda=-3.47386877D-03.
 Linear search not attempted -- first point.
 Iteration  1 RMS(Cart)=  0.01504414 RMS(Int)=  0.00002084
 Iteration  2 RMS(Cart)=  0.00001936 RMS(Int)=  0.00000782
 Iteration  3 RMS(Cart)=  0.00000000 RMS(Int)=  0.00000782
 Variable       Old X    -DE/DX   Delta X   Delta X   Delta X     New X
                                 (Linear)    (Quad)   (Total)
    R1        2.36623   0.03295   0.00000   0.04098   0.04099   2.40722
    R2        2.53474   0.01323   0.00000   0.02424   0.02425   2.55899
    R3        2.50608   0.01474   0.00000   0.02421   0.02421   2.53029
    R4        1.87862   0.01118   0.00000   0.02277   0.02277   1.90139
    R5        2.51367   0.01522   0.00000   0.02380   0.02379   2.53747
    R6        2.43647   0.02223   0.00000   0.03066   0.03065   2.46713
    R7        2.01777   0.00658   0.00000   0.01737   0.01737   2.03514
    A1        1.94380  -0.00118   0.00000   0.00214   0.00216   1.94596
    A2        1.86179  -0.00237   0.00000  -0.00550  -0.00549   1.85631
    A3        2.10759  -0.00103   0.00000  -0.00239  -0.00239   2.10520
    A4        1.88535   0.00186   0.00000   0.00356   0.00355   1.88890
    A5        2.29025  -0.00083   0.00000  -0.00117  -0.00116   2.28908
    A6        1.84604  -0.00058   0.00000  -0.00339  -0.00339   1.84264
    A7        1.88780   0.00226   0.00000   0.00318   0.00317   1.89096
    A8        2.18241  -0.00120   0.00000  -0.00199  -0.00198   2.18043
    A9        2.21298  -0.00107   0.00000  -0.00120  -0.00119   2.21179
    D1        0.00000   0.00000   0.00000   0.00000   0.00000   0.00000
    D2        0.00000   0.00000   0.00000   0.00000   0.00000   0.00000
    D3        3.14159   0.00000   0.00000   0.00000   0.00000   3.14159
    D4        0.00000   0.00000   0.00000   0.00000   0.00000   0.00000
    D5        0.00000   0.00000   0.00000   0.00000   0.00000   0.00000
    D6        3.14159   0.00000   0.00000   0.00000   0.00000   3.14159
    D7        3.14159   0.00000   0.00000   0.00000   0.00000   3.14159
    D8        0.00000   0.00000   0.00000   0.00000   0.00000   0.00000
    D9        0.00000   0.00000   0.00000   0.00000   0.00000   0.00000
   D10        3.14159   0.00000   0.00000   0.00000   0.00000   3.14159
         Item               Value     Threshold  Converged?
 Maximum Force            0.032954     0.000450     NO 
 RMS     Force            0.009592     0.000300     NO 
 Maximum Displacement     0.031848     0.001800     NO 
 RMS     Displacement     0.015039     0.001200     NO 
 Predicted change in Energy=-1.745936D-03
 GradGradGradGradGradGradGradGradGradGradGradGradGradGradGradGradGradGrad

                          Input orientation:                          
 ---------------------------------------------------------------------
 Center     Atomic     Atomic              Coordinates (Angstroms)
 Number     Number      Type              X           Y           Z
 ---------------------------------------------------------------------
    1          7             0       -1.139071   -0.262158    0.000000
    2          7             0       -0.681406    0.926634    0.000000
    3          7             0        0.653071    0.816986    0.000000
    4          1             0        1.234728    1.637997    0.000000
    5          7             0       -0.141501   -1.177906    0.000000
    6          6             0        0.967194   -0.488524    0.000000
    7          1             0        1.969892   -0.881483    0.000000
 ---------------------------------------------------------------------
                    Distance matrix (angstroms):
                    1          2          3          4          5
     1  N    0.000000
     2  N    1.273846   0.000000
     3  N    2.091967   1.338974   0.000000
     4  H    3.040643   2.043920   1.006173   0.000000
     5  N    1.354157   2.172691   2.147310   3.134217   0.000000
     6  C    2.118394   2.172684   1.342770   2.143284   1.305547
     7  H    3.170049   3.209154   2.149143   2.624547   2.132099
                    6          7
     6  C    0.000000
     7  H    1.076949   0.000000
 Stoichiometry    CH2N4
 Framework group  CS[SG(CH2N4)]
 Deg. of freedom    11
 Full point group                 CS      NOp   2
 Largest Abelian subgroup         CS      NOp   2
 Largest concise Abelian subgroup C1      NOp   1
                         Standard orientation:                         
 ---------------------------------------------------------------------
 Center     Atomic     Atomic              Coordinates (Angstroms)
 Number     Number      Type              X           Y           Z
 ---------------------------------------------------------------------
    1          7             0       -0.721393   -0.913957    0.000000
    2          7             0       -1.109060    0.299467    0.000000
    3          7             0        0.000000    1.049692    0.000000
    4          1             0       -0.060678    2.054034    0.000000
    5          7             0        0.629822   -1.003175    0.000000
    6          6             0        1.062468    0.228600    0.000000
    7          1             0        2.090286    0.550172    0.000000
 ---------------------------------------------------------------------
 Rotational constants (GHZ):     10.6795276     10.4846285      5.2905903
 Standard basis: 6-311G(d,p) (5D, 7F)
 There are    75 symmetry adapted basis functions of A'  symmetry.
 There are    27 symmetry adapted basis functions of A"  symmetry.
 Integral buffers will be    262144 words long.
 Raffenetti 2 integral format.
 Two-electron integral symmetry is turned on.
   102 basis functions,   176 primitive gaussians,   107 cartesian basis functions
    18 alpha electrons       18 beta electrons
       nuclear repulsion energy       167.8795147847 Hartrees.
 NAtoms=    7 NActive=    7 NUniq=    7 SFac= 1.00D+00 NAtFMM=   60 Big=F
 One-electron integrals computed using PRISM.
 NBasis=   102 RedAO= T  NBF=    75    27
 NBsUse=   102 1.00D-06 NBFU=    75    27
 Initial guess read from the read-write file:
 Initial guess orbital symmetries:
       Occupied  (A') (A') (A') (A') (A') (A') (A') (A') (A') (A')
                 (A') (A") (A') (A') (A") (A") (A') (A')
       Virtual   (A") (A") (A') (A') (A') (A') (A') (A') (A') (A")
                 (A') (A') (A') (A') (A') (A") (A') (A") (A') (A')
                 (A') (A") (A') (A") (A') (A') (A') (A') (A') (A")
                 (A') (A") (A') (A") (A') (A') (A") (A') (A") (A')
                 (A') (A") (A") (A') (A') (A') (A') (A') (A") (A")
                 (A') (A') (A') (A") (A') (A") (A') (A') (A") (A")
                 (A') (A') (A') (A') (A') (A') (A") (A') (A") (A')
                 (A") (A") (A') (A') (A') (A') (A') (A') (A') (A')
                 (A') (A') (A') (A')
 Harris functional with IExCor=  908 diagonalized for initial guess.
 ExpMin= 1.03D-01 ExpMax= 6.29D+03 ExpMxC= 9.49D+02 IAcc=1 IRadAn=         1 AccDes= 1.00D-06
 HarFok:  IExCor= 908 AccDes= 1.00D-06 IRadAn=         1 IDoV=1
 ScaDFX=  1.000000  1.000000  1.000000  1.000000
 Requested convergence on RMS density matrix=1.00D-08 within 128 cycles.
 Requested convergence on MAX density matrix=1.00D-06.
 Requested convergence on             energy=1.00D-06.
 No special actions if energy rises.
 Keep R1 integrals in memory in canonical form, NReq=    17862147.
 Integral accuracy reduced to 1.0D-05 until final iterations.
 Initial convergence to 1.0D-05 achieved.  Increase integral accuracy.
 SCF Done:  E(RmPW+HF-PW91) =  -258.251661875     A.U. after   11 cycles
             Convg  =    0.9914D-08             -V/T =  2.0027
             S**2   =   0.0000
 ***** Axes restored to original set *****
 -------------------------------------------------------------------
 Center     Atomic                   Forces (Hartrees/Bohr)
 Number     Number              X              Y              Z
 -------------------------------------------------------------------
    1          7          -0.002092698   -0.005313924    0.000000000
    2          7           0.001001945    0.006227088    0.000000000
    3          7           0.000371905   -0.002922147    0.000000000
    4          1          -0.000093798   -0.000155334    0.000000000
    5          7          -0.000692682    0.000185949    0.000000000
    6          6           0.001768629    0.001823339    0.000000000
    7          1          -0.000263301    0.000155029    0.000000000
 -------------------------------------------------------------------
 Cartesian Forces:  Max     0.006227088 RMS     0.002049021

 GradGradGradGradGradGradGradGradGradGradGradGradGradGradGradGradGradGrad
 Berny optimization.
 Internal  Forces:  Max     0.005070877 RMS     0.001182179
 Search for a local minimum.
 Step number   2 out of a maximum of  36
 All quantities printed in internal units (Hartrees-Bohrs-Radians)
 Update second derivatives using D2CorX and points  1  2
 Trust test= 1.04D+00 RLast= 7.25D-02 DXMaxT set to 3.00D-01
     Eigenvalues ---    0.02506   0.02639   0.02674   0.02834   0.15999
     Eigenvalues ---    0.16000   0.22526   0.24680   0.37705   0.48917
     Eigenvalues ---    0.50784   0.56097   0.61025   0.67095   0.71706
     Eigenvalues --- 1000.000001000.000001000.000001000.000001000.00000
     Eigenvalues --- 1000.000001000.000001000.000001000.000001000.00000
     Eigenvalues --- 1000.00000
 RFO step:  Lambda=-5.08174416D-05.
 Quartic linear search produced a step of  0.07380.
 Iteration  1 RMS(Cart)=  0.00203974 RMS(Int)=  0.00000370
 Iteration  2 RMS(Cart)=  0.00000330 RMS(Int)=  0.00000163
 Iteration  3 RMS(Cart)=  0.00000000 RMS(Int)=  0.00000163
 Variable       Old X    -DE/DX   Delta X   Delta X   Delta X     New X
                                 (Linear)    (Quad)   (Total)
    R1        2.40722   0.00507   0.00302   0.00478   0.00781   2.41503
    R2        2.55899  -0.00006   0.00179  -0.00101   0.00078   2.55977
    R3        2.53029   0.00080   0.00179   0.00010   0.00189   2.53218
    R4        1.90139  -0.00018   0.00168  -0.00163   0.00005   1.90144
    R5        2.53747  -0.00149   0.00176  -0.00466  -0.00291   2.53456
    R6        2.46713   0.00112   0.00226  -0.00036   0.00190   2.46903
    R7        2.03514  -0.00030   0.00128  -0.00177  -0.00049   2.03465
    A1        1.94596  -0.00096   0.00016  -0.00147  -0.00131   1.94465
    A2        1.85631  -0.00132  -0.00040  -0.00369  -0.00409   1.85222
    A3        2.10520  -0.00072  -0.00018  -0.00244  -0.00262   2.10258
    A4        1.88890   0.00144   0.00026   0.00502   0.00528   1.89418
    A5        2.28908  -0.00073  -0.00009  -0.00257  -0.00266   2.28642
    A6        1.84264   0.00076  -0.00025   0.00281   0.00255   1.84519
    A7        1.89096   0.00008   0.00023  -0.00266  -0.00243   1.88853
    A8        2.18043  -0.00010  -0.00015   0.00097   0.00082   2.18125
    A9        2.21179   0.00002  -0.00009   0.00170   0.00161   2.21340
    D1        0.00000   0.00000   0.00000   0.00000   0.00000   0.00000
    D2        0.00000   0.00000   0.00000   0.00000   0.00000   0.00000
    D3        3.14159   0.00000   0.00000   0.00000   0.00000   3.14159
    D4        0.00000   0.00000   0.00000   0.00000   0.00000   0.00000
    D5        0.00000   0.00000   0.00000   0.00000   0.00000   0.00000
    D6        3.14159   0.00000   0.00000   0.00000   0.00000   3.14159
    D7        3.14159   0.00000   0.00000   0.00000   0.00000   3.14159
    D8        0.00000   0.00000   0.00000   0.00000   0.00000   0.00000
    D9        0.00000   0.00000   0.00000   0.00000   0.00000   0.00000
   D10        3.14159   0.00000   0.00000   0.00000   0.00000   3.14159
         Item               Value     Threshold  Converged?
 Maximum Force            0.005071     0.000450     NO 
 RMS     Force            0.001182     0.000300     NO 
 Maximum Displacement     0.005821     0.001800     NO 
 RMS     Displacement     0.002039     0.001200     NO 
 Predicted change in Energy=-3.320351D-05
 GradGradGradGradGradGradGradGradGradGradGradGradGradGradGradGradGradGrad

                          Input orientation:                          
 ---------------------------------------------------------------------
 Center     Atomic     Atomic              Coordinates (Angstroms)
 Number     Number      Type              X           Y           Z
 ---------------------------------------------------------------------
    1          7             0       -1.140976   -0.263171    0.000000
    2          7             0       -0.682439    0.929714    0.000000
    3          7             0        0.652632    0.815210    0.000000
    4          1             0        1.235087    1.635685    0.000000
    5          7             0       -0.141433   -1.177376    0.000000
    6          6             0        0.968618   -0.488268    0.000000
    7          1             0        1.971419   -0.880247    0.000000
 ---------------------------------------------------------------------
                    Distance matrix (angstroms):
                    1          2          3          4          5
     1  N    0.000000
     2  N    1.277979   0.000000
     3  N    2.092829   1.339972   0.000000
     4  H    3.041599   2.043356   1.006198   0.000000
     5  N    1.354569   2.175435   2.144980   3.131792   0.000000
     6  C    2.121569   2.176388   1.341232   2.140604   1.306554
     7  H    3.172978   3.212309   2.147970   2.621470   2.133642
                    6          7
     6  C    0.000000
     7  H    1.076689   0.000000
 Stoichiometry    CH2N4
 Framework group  CS[SG(CH2N4)]
 Deg. of freedom    11
 Full point group                 CS      NOp   2
 Largest Abelian subgroup         CS      NOp   2
 Largest concise Abelian subgroup C1      NOp   1
                         Standard orientation:                         
 ---------------------------------------------------------------------
 Center     Atomic     Atomic              Coordinates (Angstroms)
 Number     Number      Type              X           Y           Z
 ---------------------------------------------------------------------
    1          7             0       -0.720851   -0.916646    0.000000
    2          7             0       -1.111742    0.300085    0.000000
    3          7             0        0.000000    1.048120    0.000000
    4          1             0       -0.060826    2.052477    0.000000
    5          7             0        0.631030   -1.001938    0.000000
    6          6             0        1.063548    0.230949    0.000000
    7          1             0        2.090478    0.554481    0.000000
 ---------------------------------------------------------------------
 Rotational constants (GHZ):     10.6654243     10.4707425      5.2835934
 Standard basis: 6-311G(d,p) (5D, 7F)
 There are    75 symmetry adapted basis functions of A'  symmetry.
 There are    27 symmetry adapted basis functions of A"  symmetry.
 Integral buffers will be    262144 words long.
 Raffenetti 2 integral format.
 Two-electron integral symmetry is turned on.
   102 basis functions,   176 primitive gaussians,   107 cartesian basis functions
    18 alpha electrons       18 beta electrons
       nuclear repulsion energy       167.7603502779 Hartrees.
 NAtoms=    7 NActive=    7 NUniq=    7 SFac= 1.00D+00 NAtFMM=   60 Big=F
 One-electron integrals computed using PRISM.
 NBasis=   102 RedAO= T  NBF=    75    27
 NBsUse=   102 1.00D-06 NBFU=    75    27
 Initial guess read from the read-write file:
 Initial guess orbital symmetries:
       Occupied  (A') (A') (A') (A') (A') (A') (A') (A') (A') (A')
                 (A') (A") (A') (A') (A") (A") (A') (A')
       Virtual   (A") (A") (A') (A') (A') (A') (A') (A') (A') (A")
                 (A') (A') (A') (A') (A') (A") (A') (A") (A') (A')
                 (A') (A") (A') (A") (A') (A') (A') (A') (A') (A")
                 (A') (A") (A') (A") (A') (A') (A") (A') (A") (A')
                 (A') (A") (A") (A') (A') (A') (A') (A') (A") (A")
                 (A') (A') (A') (A") (A') (A") (A') (A') (A") (A")
                 (A') (A') (A') (A') (A') (A') (A") (A') (A") (A')
                 (A") (A") (A') (A') (A') (A') (A') (A') (A') (A')
                 (A') (A') (A') (A')
 Requested convergence on RMS density matrix=1.00D-08 within 128 cycles.
 Requested convergence on MAX density matrix=1.00D-06.
 Requested convergence on             energy=1.00D-06.
 No special actions if energy rises.
 Keep R1 integrals in memory in canonical form, NReq=    17862147.
 SCF Done:  E(RmPW+HF-PW91) =  -258.251699626     A.U. after    9 cycles
             Convg  =    0.7512D-08             -V/T =  2.0027
             S**2   =   0.0000
 ***** Axes restored to original set *****
 -------------------------------------------------------------------
 Center     Atomic                   Forces (Hartrees/Bohr)
 Number     Number              X              Y              Z
 -------------------------------------------------------------------
    1          7           0.000456735   -0.002477717    0.000000000
    2          7           0.001453075    0.001277541    0.000000000
    3          7          -0.000049041   -0.000285745    0.000000000
    4          1          -0.000045950   -0.000089873    0.000000000
    5          7          -0.001311552    0.000274889    0.000000000
    6          6          -0.000343601    0.001270924    0.000000000
    7          1          -0.000159665    0.000029981    0.000000000
 -------------------------------------------------------------------
 Cartesian Forces:  Max     0.002477717 RMS     0.000808906

 GradGradGradGradGradGradGradGradGradGradGradGradGradGradGradGradGradGrad
 Berny optimization.
 Internal  Forces:  Max     0.001660270 RMS     0.000527749
 Search for a local minimum.
 Step number   3 out of a maximum of  36
 All quantities printed in internal units (Hartrees-Bohrs-Radians)
 Update second derivatives using D2CorX and points  1  2  3
 Trust test= 1.14D+00 RLast= 1.24D-02 DXMaxT set to 3.00D-01
     Eigenvalues ---    0.02505   0.02638   0.02674   0.02834   0.16000
     Eigenvalues ---    0.16005   0.24417   0.27314   0.37591   0.39042
     Eigenvalues ---    0.49264   0.52111   0.62029   0.67490   0.70985
     Eigenvalues --- 1000.000001000.000001000.000001000.000001000.00000
     Eigenvalues --- 1000.000001000.000001000.000001000.000001000.00000
     Eigenvalues --- 1000.00000
 RFO step:  Lambda=-1.51956041D-05.
 Quartic linear search produced a step of  0.14764.
 Iteration  1 RMS(Cart)=  0.00118917 RMS(Int)=  0.00000041
 Iteration  2 RMS(Cart)=  0.00000041 RMS(Int)=  0.00000004
 Variable       Old X    -DE/DX   Delta X   Delta X   Delta X     New X
                                 (Linear)    (Quad)   (Total)
    R1        2.41503   0.00166   0.00115   0.00323   0.00439   2.41942
    R2        2.55977  -0.00148   0.00012  -0.00265  -0.00254   2.55723
    R3        2.53218  -0.00080   0.00028  -0.00119  -0.00091   2.53127
    R4        1.90144  -0.00010   0.00001  -0.00007  -0.00007   1.90137
    R5        2.53456  -0.00076  -0.00043  -0.00166  -0.00209   2.53247
    R6        2.46903   0.00052   0.00028   0.00107   0.00136   2.47038
    R7        2.03465  -0.00016  -0.00007  -0.00039  -0.00046   2.03418
    A1        1.94465  -0.00013  -0.00019  -0.00003  -0.00022   1.94443
    A2        1.85222   0.00005  -0.00060   0.00041  -0.00020   1.85202
    A3        2.10258   0.00014  -0.00039   0.00073   0.00035   2.10293
    A4        1.89418  -0.00027   0.00078  -0.00138  -0.00060   1.89358
    A5        2.28642   0.00013  -0.00039   0.00064   0.00025   2.28668
    A6        1.84519  -0.00026   0.00038  -0.00130  -0.00092   1.84427
    A7        1.88853   0.00062  -0.00036   0.00229   0.00193   1.89047
    A8        2.18125  -0.00029   0.00012  -0.00102  -0.00089   2.18036
    A9        2.21340  -0.00033   0.00024  -0.00128  -0.00104   2.21236
    D1        0.00000   0.00000   0.00000   0.00000   0.00000   0.00000
    D2        0.00000   0.00000   0.00000   0.00000   0.00000   0.00000
    D3        3.14159   0.00000   0.00000   0.00000   0.00000   3.14159
    D4        0.00000   0.00000   0.00000   0.00000   0.00000   0.00000
    D5        0.00000   0.00000   0.00000   0.00000   0.00000   0.00000
    D6        3.14159   0.00000   0.00000   0.00000   0.00000   3.14159
    D7        3.14159   0.00000   0.00000   0.00000   0.00000   3.14159
    D8        0.00000   0.00000   0.00000   0.00000   0.00000   0.00000
    D9        0.00000   0.00000   0.00000   0.00000   0.00000   0.00000
   D10        3.14159   0.00000   0.00000   0.00000   0.00000   3.14159
         Item               Value     Threshold  Converged?
 Maximum Force            0.001660     0.000450     NO 
 RMS     Force            0.000528     0.000300     NO 
 Maximum Displacement     0.003350     0.001800     NO 
 RMS     Displacement     0.001189     0.001200     YES
 Predicted change in Energy=-8.202639D-06
 GradGradGradGradGradGradGradGradGradGradGradGradGradGradGradGradGradGrad

                          Input orientation:                          
 ---------------------------------------------------------------------
 Center     Atomic     Atomic              Coordinates (Angstroms)
 Number     Number      Type              X           Y           Z
 ---------------------------------------------------------------------
    1          7             0       -1.140838   -0.264944    0.000000
    2          7             0       -0.681451    0.930101    0.000000
    3          7             0        0.653114    0.815357    0.000000
    4          1             0        1.236006    1.635478    0.000000
    5          7             0       -0.142099   -1.178037    0.000000
    6          6             0        0.967785   -0.487302    0.000000
    7          1             0        1.970391   -0.879107    0.000000
 ---------------------------------------------------------------------
                    Distance matrix (angstroms):
                    1          2          3          4          5
     1  N    0.000000
     2  N    1.280300   0.000000
     3  N    2.094114   1.339489   0.000000
     4  H    3.043188   2.043086   1.006162   0.000000
     5  N    1.353226   2.176039   2.146155   3.132896   0.000000
     6  C    2.120315   2.174629   1.340127   2.139659   1.307271
     7  H    3.171268   3.210218   2.146259   2.619630   2.133535
                    6          7
     6  C    0.000000
     7  H    1.076443   0.000000
 Stoichiometry    CH2N4
 Framework group  CS[SG(CH2N4)]
 Deg. of freedom    11
 Full point group                 CS      NOp   2
 Largest Abelian subgroup         CS      NOp   2
 Largest concise Abelian subgroup C1      NOp   1
                         Standard orientation:                         
 ---------------------------------------------------------------------
 Center     Atomic     Atomic              Coordinates (Angstroms)
 Number     Number      Type              X           Y           Z
 ---------------------------------------------------------------------
    1          7             0       -0.719659   -0.917918    0.000000
    2          7             0       -1.111400    0.300977    0.000000
    3          7             0        0.000000    1.048653    0.000000
    4          1             0       -0.060395    2.053001    0.000000
    5          7             0        0.630910   -1.002672    0.000000
    6          6             0        1.062116    0.231434    0.000000
    7          1             0        2.088743    0.555113    0.000000
 ---------------------------------------------------------------------
 Rotational constants (GHZ):     10.6591020     10.4765562      5.2835204
 Standard basis: 6-311G(d,p) (5D, 7F)
 There are    75 symmetry adapted basis functions of A'  symmetry.
 There are    27 symmetry adapted basis functions of A"  symmetry.
 Integral buffers will be    262144 words long.
 Raffenetti 2 integral format.
 Two-electron integral symmetry is turned on.
   102 basis functions,   176 primitive gaussians,   107 cartesian basis functions
    18 alpha electrons       18 beta electrons
       nuclear repulsion energy       167.7544570970 Hartrees.
 NAtoms=    7 NActive=    7 NUniq=    7 SFac= 1.00D+00 NAtFMM=   60 Big=F
 One-electron integrals computed using PRISM.
 NBasis=   102 RedAO= T  NBF=    75    27
 NBsUse=   102 1.00D-06 NBFU=    75    27
 Initial guess read from the read-write file:
 Initial guess orbital symmetries:
       Occupied  (A') (A') (A') (A') (A') (A') (A') (A') (A') (A')
                 (A') (A") (A') (A') (A") (A") (A') (A')
       Virtual   (A") (A") (A') (A') (A') (A') (A') (A') (A') (A")
                 (A') (A') (A') (A') (A') (A") (A') (A") (A') (A')
                 (A') (A") (A') (A") (A') (A') (A') (A') (A') (A")
                 (A') (A") (A') (A") (A') (A') (A") (A') (A") (A')
                 (A') (A") (A") (A') (A') (A') (A') (A') (A") (A")
                 (A') (A') (A') (A") (A') (A") (A') (A') (A") (A")
                 (A') (A') (A') (A') (A') (A') (A") (A') (A") (A')
                 (A") (A") (A') (A') (A') (A') (A') (A') (A') (A')
                 (A') (A') (A') (A')
 Requested convergence on RMS density matrix=1.00D-08 within 128 cycles.
 Requested convergence on MAX density matrix=1.00D-06.
 Requested convergence on             energy=1.00D-06.
 No special actions if energy rises.
 Keep R1 integrals in memory in canonical form, NReq=    17862147.
 SCF Done:  E(RmPW+HF-PW91) =  -258.251707292     A.U. after    9 cycles
             Convg  =    0.4359D-08             -V/T =  2.0027
             S**2   =   0.0000
 ***** Axes restored to original set *****
 -------------------------------------------------------------------
 Center     Atomic                   Forces (Hartrees/Bohr)
 Number     Number              X              Y              Z
 -------------------------------------------------------------------
    1          7           0.000793178   -0.000217575    0.000000000
    2          7           0.000154285   -0.000142418    0.000000000
    3          7          -0.000751336   -0.000335984    0.000000000
    4          1          -0.000028030   -0.000073867    0.000000000
    5          7          -0.000557300    0.000923361    0.000000000
    6          6           0.000364137   -0.000073482    0.000000000
    7          1           0.000025066   -0.000080035    0.000000000
 -------------------------------------------------------------------
 Cartesian Forces:  Max     0.000923361 RMS     0.000359391

 GradGradGradGradGradGradGradGradGradGradGradGradGradGradGradGradGradGrad
 Berny optimization.
 Internal  Forces:  Max     0.000759755 RMS     0.000233683
 Search for a local minimum.
 Step number   4 out of a maximum of  36
 All quantities printed in internal units (Hartrees-Bohrs-Radians)
 Update second derivatives using D2CorX and points  1  2  3  4
 Trust test= 9.35D-01 RLast= 6.33D-03 DXMaxT set to 3.00D-01
     Eigenvalues ---    0.02505   0.02639   0.02675   0.02834   0.15962
     Eigenvalues ---    0.16002   0.22311   0.25863   0.37676   0.43787
     Eigenvalues ---    0.48944   0.53048   0.62621   0.66976   0.70263
     Eigenvalues --- 1000.000001000.000001000.000001000.000001000.00000
     Eigenvalues --- 1000.000001000.000001000.000001000.000001000.00000
     Eigenvalues --- 1000.00000
 RFO step:  Lambda=-3.03190884D-06.
 Quartic linear search produced a step of -0.06092.
 Iteration  1 RMS(Cart)=  0.00047546 RMS(Int)=  0.00000015
 Iteration  2 RMS(Cart)=  0.00000016 RMS(Int)=  0.00000006
 Variable       Old X    -DE/DX   Delta X   Delta X   Delta X     New X
                                 (Linear)    (Quad)   (Total)
    R1        2.41942  -0.00039  -0.00027   0.00047   0.00021   2.41962
    R2        2.55723  -0.00076   0.00015  -0.00185  -0.00169   2.55553
    R3        2.53127  -0.00040   0.00006  -0.00080  -0.00075   2.53052
    R4        1.90137  -0.00008   0.00000  -0.00014  -0.00013   1.90124
    R5        2.53247  -0.00014   0.00013  -0.00057  -0.00044   2.53203
    R6        2.47038  -0.00018  -0.00008   0.00011   0.00003   2.47041
    R7        2.03418   0.00005   0.00003   0.00006   0.00009   2.03427
    A1        1.94443   0.00013   0.00001   0.00019   0.00021   1.94464
    A2        1.85202  -0.00018   0.00001  -0.00082  -0.00081   1.85121
    A3        2.10293  -0.00011  -0.00002  -0.00043  -0.00045   2.10248
    A4        1.89358   0.00024   0.00004   0.00102   0.00105   1.89464
    A5        2.28668  -0.00013  -0.00002  -0.00059  -0.00060   2.28607
    A6        1.84427   0.00024   0.00006   0.00068   0.00074   1.84501
    A7        1.89047  -0.00043  -0.00012  -0.00107  -0.00119   1.88928
    A8        2.18036   0.00027   0.00005   0.00090   0.00095   2.18131
    A9        2.21236   0.00015   0.00006   0.00017   0.00023   2.21260
    D1        0.00000   0.00000   0.00000   0.00000   0.00000   0.00000
    D2        0.00000   0.00000   0.00000   0.00000   0.00000   0.00000
    D3        3.14159   0.00000   0.00000   0.00000   0.00000   3.14159
    D4        0.00000   0.00000   0.00000   0.00000   0.00000   0.00000
    D5        0.00000   0.00000   0.00000   0.00000   0.00000   0.00000
    D6        3.14159   0.00000   0.00000   0.00000   0.00000   3.14159
    D7        3.14159   0.00000   0.00000   0.00000   0.00000   3.14159
    D8        0.00000   0.00000   0.00000   0.00000   0.00000   0.00000
    D9        0.00000   0.00000   0.00000   0.00000   0.00000   0.00000
   D10        3.14159   0.00000   0.00000   0.00000   0.00000   3.14159
         Item               Value     Threshold  Converged?
 Maximum Force            0.000760     0.000450     NO 
 RMS     Force            0.000234     0.000300     YES
 Maximum Displacement     0.001366     0.001800     YES
 RMS     Displacement     0.000475     0.001200     YES
 Predicted change in Energy=-1.548817D-06
 GradGradGradGradGradGradGradGradGradGradGradGradGradGradGradGradGradGrad

                          Input orientation:                          
 ---------------------------------------------------------------------
 Center     Atomic     Atomic              Coordinates (Angstroms)
 Number     Number      Type              X           Y           Z
 ---------------------------------------------------------------------
    1          7             0       -1.140418   -0.264977    0.000000
    2          7             0       -0.681423    0.930334    0.000000
    3          7             0        0.652695    0.815023    0.000000
    4          1             0        1.235548    1.635087    0.000000
    5          7             0       -0.142200   -1.177314    0.000000
    6          6             0        0.968097   -0.487218    0.000000
    7          1             0        1.970609   -0.879389    0.000000
 ---------------------------------------------------------------------
                    Distance matrix (angstroms):
                    1          2          3          4          5
     1  N    0.000000
     2  N    1.280409   0.000000
     3  N    2.093241   1.339092   0.000000
     4  H    3.042279   2.042414   1.006092   0.000000
     5  N    1.352330   2.175533   2.145057   3.131739   0.000000
     6  C    2.120196   2.174942   1.339892   2.139091   1.307285
     7  H    3.171118   3.210665   2.146609   2.619715   2.133711
                    6          7
     6  C    0.000000
     7  H    1.076488   0.000000
 Stoichiometry    CH2N4
 Framework group  CS[SG(CH2N4)]
 Deg. of freedom    11
 Full point group                 CS      NOp   2
 Largest Abelian subgroup         CS      NOp   2
 Largest concise Abelian subgroup C1      NOp   1
                         Standard orientation:                         
 ---------------------------------------------------------------------
 Center     Atomic     Atomic              Coordinates (Angstroms)
 Number     Number      Type              X           Y           Z
 ---------------------------------------------------------------------
    1          7             0       -0.719330   -0.917737    0.000000
    2          7             0       -1.111460    0.301148    0.000000
    3          7             0        0.000000    1.048026    0.000000
    4          1             0       -0.060320    2.052308    0.000000
    5          7             0        0.630353   -1.002321    0.000000
    6          6             0        1.062367    0.231517    0.000000
    7          1             0        2.089172    0.554781    0.000000
 ---------------------------------------------------------------------
 Rotational constants (GHZ):     10.6643583     10.4803093      5.2857664
 Standard basis: 6-311G(d,p) (5D, 7F)
 There are    75 symmetry adapted basis functions of A'  symmetry.
 There are    27 symmetry adapted basis functions of A"  symmetry.
 Integral buffers will be    262144 words long.
 Raffenetti 2 integral format.
 Two-electron integral symmetry is turned on.
   102 basis functions,   176 primitive gaussians,   107 cartesian basis functions
    18 alpha electrons       18 beta electrons
       nuclear repulsion energy       167.7884804777 Hartrees.
 NAtoms=    7 NActive=    7 NUniq=    7 SFac= 1.00D+00 NAtFMM=   60 Big=F
 One-electron integrals computed using PRISM.
 NBasis=   102 RedAO= T  NBF=    75    27
 NBsUse=   102 1.00D-06 NBFU=    75    27
 Initial guess read from the read-write file:
 Initial guess orbital symmetries:
       Occupied  (A') (A') (A') (A') (A') (A') (A') (A') (A') (A')
                 (A') (A") (A') (A') (A") (A") (A') (A')
       Virtual   (A") (A") (A') (A') (A') (A') (A') (A') (A') (A")
                 (A') (A') (A') (A') (A') (A") (A') (A") (A') (A')
                 (A') (A") (A') (A") (A') (A') (A') (A') (A') (A")
                 (A') (A") (A') (A") (A') (A') (A") (A') (A") (A')
                 (A') (A") (A") (A') (A') (A') (A') (A') (A") (A")
                 (A') (A') (A') (A") (A') (A") (A') (A') (A") (A")
                 (A') (A') (A') (A') (A') (A') (A") (A') (A") (A')
                 (A") (A") (A') (A') (A') (A') (A') (A') (A') (A')
                 (A') (A') (A') (A')
 Requested convergence on RMS density matrix=1.00D-08 within 128 cycles.
 Requested convergence on MAX density matrix=1.00D-06.
 Requested convergence on             energy=1.00D-06.
 No special actions if energy rises.
 Keep R1 integrals in memory in canonical form, NReq=    17862147.
 SCF Done:  E(RmPW+HF-PW91) =  -258.251709204     A.U. after    8 cycles
             Convg  =    0.7719D-08             -V/T =  2.0027
             S**2   =   0.0000
 ***** Axes restored to original set *****
 -------------------------------------------------------------------
 Center     Atomic                   Forces (Hartrees/Bohr)
 Number     Number              X              Y              Z
 -------------------------------------------------------------------
    1          7           0.000263230   -0.000085526    0.000000000
    2          7           0.000153163   -0.000283382    0.000000000
    3          7          -0.000225389    0.000186510    0.000000000
    4          1           0.000024363   -0.000006932    0.000000000
    5          7          -0.000379483    0.000289864    0.000000000
    6          6           0.000176980   -0.000079038    0.000000000
    7          1          -0.000012864   -0.000021496    0.000000000
 -------------------------------------------------------------------
 Cartesian Forces:  Max     0.000379483 RMS     0.000159287

 GradGradGradGradGradGradGradGradGradGradGradGradGradGradGradGradGradGrad
 Berny optimization.
 Internal  Forces:  Max     0.000360170 RMS     0.000098192
 Search for a local minimum.
 Step number   5 out of a maximum of  36
 All quantities printed in internal units (Hartrees-Bohrs-Radians)
 Update second derivatives using D2CorX and points  1  2  3  4  5

 Trust test= 1.23D+00 RLast= 3.00D-03 DXMaxT set to 3.00D-01
     Eigenvalues ---    0.02505   0.02638   0.02675   0.02834   0.15547
     Eigenvalues ---    0.16026   0.20268   0.27152   0.38056   0.44198
     Eigenvalues ---    0.48323   0.52802   0.56854   0.66718   0.73013
     Eigenvalues --- 1000.000001000.000001000.000001000.000001000.00000
     Eigenvalues --- 1000.000001000.000001000.000001000.000001000.00000
     Eigenvalues --- 1000.00000
 RFO step:  Lambda=-4.84174404D-07.
 Quartic linear search produced a step of  0.28902.
 Iteration  1 RMS(Cart)=  0.00023616 RMS(Int)=  0.00000005
 Iteration  2 RMS(Cart)=  0.00000004 RMS(Int)=  0.00000003
 Variable       Old X    -DE/DX   Delta X   Delta X   Delta X     New X
                                 (Linear)    (Quad)   (Total)
    R1        2.41962  -0.00016   0.00006  -0.00012  -0.00006   2.41956
    R2        2.55553  -0.00036  -0.00049  -0.00064  -0.00113   2.55441
    R3        2.53052  -0.00017  -0.00022  -0.00025  -0.00046   2.53006
    R4        1.90124   0.00001  -0.00004   0.00001  -0.00002   1.90121
    R5        2.53203   0.00007  -0.00013   0.00016   0.00004   2.53207
    R6        2.47041   0.00009   0.00001   0.00023   0.00024   2.47065
    R7        2.03427   0.00000   0.00002  -0.00007  -0.00004   2.03423
    A1        1.94464   0.00001   0.00006  -0.00032  -0.00026   1.94438
    A2        1.85121   0.00012  -0.00023   0.00052   0.00028   1.85150
    A3        2.10248   0.00006  -0.00013   0.00029   0.00016   2.10264
    A4        1.89464  -0.00009   0.00030  -0.00036  -0.00005   1.89459
    A5        2.28607   0.00003  -0.00017   0.00006  -0.00011   2.28596
    A6        1.84501   0.00007   0.00021   0.00031   0.00053   1.84553
    A7        1.88928  -0.00011  -0.00034  -0.00016  -0.00050   1.88878
    A8        2.18131   0.00007   0.00028   0.00015   0.00043   2.18173
    A9        2.21260   0.00004   0.00007   0.00001   0.00008   2.21267
    D1        0.00000   0.00000   0.00000   0.00000   0.00000   0.00000
    D2        0.00000   0.00000   0.00000   0.00000   0.00000   0.00000
    D3        3.14159   0.00000   0.00000   0.00000   0.00000   3.14159
    D4        0.00000   0.00000   0.00000   0.00000   0.00000   0.00000
    D5        0.00000   0.00000   0.00000   0.00000   0.00000   0.00000
    D6        3.14159   0.00000   0.00000   0.00000   0.00000   3.14159
    D7        3.14159   0.00000   0.00000   0.00000   0.00000   3.14159
    D8        0.00000   0.00000   0.00000   0.00000   0.00000   0.00000
    D9        0.00000   0.00000   0.00000   0.00000   0.00000   0.00000
   D10        3.14159   0.00000   0.00000   0.00000   0.00000   3.14159
         Item               Value     Threshold  Converged?
 Maximum Force            0.000360     0.000450     YES
 RMS     Force            0.000098     0.000300     YES
 Maximum Displacement     0.000767     0.001800     YES
 RMS     Displacement     0.000236     0.001200     YES
 Predicted change in Energy=-3.486102D-07
 Optimization completed.
    -- Stationary point found.
                           ----------------------------
                           !   Optimized Parameters   !
                           ! (Angstroms and Degrees)  !
 --------------------------                            --------------------------
 ! Name  Definition              Value          Derivative Info.                !
 --------------------------------------------------------------------------------
 ! R1    R(1,2)                  1.2804         -DE/DX =   -0.0002              !
 ! R2    R(1,5)                  1.3523         -DE/DX =   -0.0004              !
 ! R3    R(2,3)                  1.3391         -DE/DX =   -0.0002              !
 ! R4    R(3,4)                  1.0061         -DE/DX =    0.0                 !
 ! R5    R(3,6)                  1.3399         -DE/DX =    0.0001              !
 ! R6    R(5,6)                  1.3073         -DE/DX =    0.0001              !
 ! R7    R(6,7)                  1.0765         -DE/DX =    0.0                 !
 ! A1    A(2,1,5)              111.4196         -DE/DX =    0.0                 !
 ! A2    A(1,2,3)              106.0667         -DE/DX =    0.0001              !
 ! A3    A(2,3,4)              120.463          -DE/DX =    0.0001              !
 ! A4    A(2,3,6)              108.5548         -DE/DX =   -0.0001              !
 ! A5    A(4,3,6)              130.9822         -DE/DX =    0.0                 !
 ! A6    A(1,5,6)              105.7111         -DE/DX =    0.0001              !
 ! A7    A(3,6,5)              108.2478         -DE/DX =   -0.0001              !
 ! A8    A(3,6,7)              124.9797         -DE/DX =    0.0001              !
 ! A9    A(5,6,7)              126.7725         -DE/DX =    0.0                 !
 ! D1    D(5,1,2,3)              0.0            -DE/DX =    0.0                 !
 ! D2    D(2,1,5,6)              0.0            -DE/DX =    0.0                 !
 ! D3    D(1,2,3,4)            180.0            -DE/DX =    0.0                 !
 ! D4    D(1,2,3,6)              0.0            -DE/DX =    0.0                 !
 ! D5    D(2,3,6,5)              0.0            -DE/DX =    0.0                 !
 ! D6    D(2,3,6,7)            180.0            -DE/DX =    0.0                 !
 ! D7    D(4,3,6,5)            180.0            -DE/DX =    0.0                 !
 ! D8    D(4,3,6,7)              0.0            -DE/DX =    0.0                 !
 ! D9    D(1,5,6,3)              0.0            -DE/DX =    0.0                 !
 ! D10   D(1,5,6,7)            180.0            -DE/DX =    0.0                 !
 --------------------------------------------------------------------------------
 GradGradGradGradGradGradGradGradGradGradGradGradGradGradGradGradGradGrad

                          Input orientation:                          
 ---------------------------------------------------------------------
 Center     Atomic     Atomic              Coordinates (Angstroms)
 Number     Number      Type              X           Y           Z
 ---------------------------------------------------------------------
    1          7             0       -1.140418   -0.264977    0.000000
    2          7             0       -0.681423    0.930334    0.000000
    3          7             0        0.652695    0.815023    0.000000
    4          1             0        1.235548    1.635087    0.000000
    5          7             0       -0.142200   -1.177314    0.000000
    6          6             0        0.968097   -0.487218    0.000000
    7          1             0        1.970609   -0.879389    0.000000
 ---------------------------------------------------------------------
                    Distance matrix (angstroms):
                    1          2          3          4          5
     1  N    0.000000
     2  N    1.280409   0.000000
     3  N    2.093241   1.339092   0.000000
     4  H    3.042279   2.042414   1.006092   0.000000
     5  N    1.352330   2.175533   2.145057   3.131739   0.000000
     6  C    2.120196   2.174942   1.339892   2.139091   1.307285
     7  H    3.171118   3.210665   2.146609   2.619715   2.133711
                    6          7
     6  C    0.000000
     7  H    1.076488   0.000000
 Stoichiometry    CH2N4
 Framework group  CS[SG(CH2N4)]
 Deg. of freedom    11
 Full point group                 CS      NOp   2
 Largest Abelian subgroup         CS      NOp   2
 Largest concise Abelian subgroup C1      NOp   1
                         Standard orientation:                         
 ---------------------------------------------------------------------
 Center     Atomic     Atomic              Coordinates (Angstroms)
 Number     Number      Type              X           Y           Z
 ---------------------------------------------------------------------
    1          7             0       -0.719330   -0.917737    0.000000
    2          7             0       -1.111460    0.301148    0.000000
    3          7             0        0.000000    1.048026    0.000000
    4          1             0       -0.060320    2.052308    0.000000
    5          7             0        0.630353   -1.002321    0.000000
    6          6             0        1.062367    0.231517    0.000000
    7          1             0        2.089172    0.554781    0.000000
 ---------------------------------------------------------------------
 Rotational constants (GHZ):     10.6643583     10.4803093      5.2857664

 **********************************************************************

            Population analysis using the SCF density.

 **********************************************************************

 Orbital symmetries:
       Occupied  (A') (A') (A') (A') (A') (A') (A') (A') (A') (A')
                 (A') (A") (A') (A') (A") (A") (A') (A')
       Virtual   (A") (A") (A') (A') (A') (A') (A') (A') (A') (A")
                 (A') (A') (A') (A') (A') (A") (A') (A") (A') (A')
                 (A') (A") (A') (A") (A') (A') (A') (A') (A') (A")
                 (A') (A") (A') (A") (A') (A') (A") (A') (A") (A')
                 (A') (A") (A") (A') (A') (A') (A') (A') (A") (A")
                 (A') (A') (A') (A") (A') (A") (A') (A') (A") (A")
                 (A') (A') (A') (A') (A') (A') (A") (A') (A") (A')
                 (A") (A") (A') (A') (A') (A') (A') (A') (A') (A')
                 (A') (A') (A') (A')
 The electronic state is 1-A'.
 Alpha  occ. eigenvalues --  -14.50957 -14.47203 -14.45388 -14.42526 -10.32744
 Alpha  occ. eigenvalues --   -1.19133  -0.98547  -0.93108  -0.70953  -0.69551
 Alpha  occ. eigenvalues --   -0.62427  -0.52574  -0.52270  -0.40279  -0.35353
 Alpha  occ. eigenvalues --   -0.33022  -0.32424  -0.30927
 Alpha virt. eigenvalues --   -0.01918   0.01896   0.02838   0.07176   0.17793
 Alpha virt. eigenvalues --    0.19237   0.22712   0.28525   0.33474   0.39879
 Alpha virt. eigenvalues --    0.41663   0.44218   0.50100   0.55697   0.56855
 Alpha virt. eigenvalues --    0.57954   0.60762   0.61483   0.62648   0.65852
 Alpha virt. eigenvalues --    0.69004   0.70550   0.74369   0.74978   0.83814
 Alpha virt. eigenvalues --    0.85824   0.93498   0.97631   1.01686   1.04697
 Alpha virt. eigenvalues --    1.18020   1.20808   1.22772   1.35321   1.36470
 Alpha virt. eigenvalues --    1.49818   1.59022   1.62015   1.63246   1.75909
 Alpha virt. eigenvalues --    1.78782   1.79701   1.87269   1.88657   2.06813
 Alpha virt. eigenvalues --    2.13244   2.23298   2.25721   2.33503   2.34973
 Alpha virt. eigenvalues --    2.40140   2.47205   2.51904   2.52972   2.58709
 Alpha virt. eigenvalues --    2.62563   2.66889   2.77389   2.78667   2.79470
 Alpha virt. eigenvalues --    2.83816   2.88046   3.11611   3.15752   3.35200
 Alpha virt. eigenvalues --    3.49190   3.55327   3.57965   3.66879   3.80523
 Alpha virt. eigenvalues --    3.86397   3.95181   3.95488   3.99827   4.45986
 Alpha virt. eigenvalues --    4.62120   4.84325   4.99436   5.76365  23.96061
 Alpha virt. eigenvalues --   35.33197  35.57585  35.62809  35.68373
          Condensed to atoms (all electrons):
              1          2          3          4          5          6
     1  N    6.695269   0.285999  -0.066508   0.007382   0.301745  -0.140136
     2  N    0.285999   6.769400   0.207337  -0.024343  -0.091225  -0.119571
     3  N   -0.066508   0.207337   6.540687   0.348394  -0.062150   0.352699
     4  H    0.007382  -0.024343   0.348394   0.430013   0.007734  -0.030315
     5  N    0.301745  -0.091225  -0.062150   0.007734   6.648655   0.468017
     6  C   -0.140136  -0.119571   0.352699  -0.030315   0.468017   4.815409
     7  H    0.002583   0.003801  -0.030492  -0.000666  -0.019368   0.407986
              7
     1  N    0.002583
     2  N    0.003801
     3  N   -0.030492
     4  H   -0.000666
     5  N   -0.019368
     6  C    0.407986
     7  H    0.482760
 Mulliken atomic charges:
              1
     1  N   -0.086333
     2  N   -0.031398
     3  N   -0.289967
     4  H    0.261800
     5  N   -0.253408
     6  C    0.245910
     7  H    0.153396
 Sum of Mulliken charges=   0.00000
 Atomic charges with hydrogens summed into heavy atoms:
              1
     1  N   -0.086333
     2  N   -0.031398
     3  N   -0.028167
     4  H    0.000000
     5  N   -0.253408
     6  C    0.399306
     7  H    0.000000
 Sum of Mulliken charges=   0.00000
 Electronic spatial extent (au):  <R**2>=   248.5611
 Charge=     0.0000 electrons
 Dipole moment (field-independent basis, Debye):
    X=     2.5190    Y=     4.8050    Z=     0.0000  Tot=     5.4253
 Quadrupole moment (field-independent basis, Debye-Ang):
   XX=   -28.7339   YY=   -26.2792   ZZ=   -28.1803
   XY=     1.8135   XZ=     0.0000   YZ=     0.0000
 Traceless Quadrupole moment (field-independent basis, Debye-Ang):
   XX=    -1.0027   YY=     1.4519   ZZ=    -0.4492
   XY=     1.8135   XZ=     0.0000   YZ=     0.0000
 Octapole moment (field-independent basis, Debye-Ang**2):
  XXX=    11.9759  YYY=    22.5348  ZZZ=     0.0000  XYY=    -0.5655
  XXY=     4.6382  XXZ=     0.0000  XZZ=    -0.7222  YZZ=     0.5280
  YYZ=     0.0000  XYZ=     0.0000
 Hexadecapole moment (field-independent basis, Debye-Ang**3):
 XXXX=  -140.0274 YYYY=  -119.0647 ZZZZ=   -25.0598 XXXY=     6.8855
 XXXZ=     0.0000 YYYX=    -0.3563 YYYZ=     0.0000 ZZZX=     0.0000
 ZZZY=     0.0000 XXYY=   -53.0417 XXZZ=   -30.0862 YYZZ=   -28.4233
 XXYZ=     0.0000 YYXZ=     0.0000 ZZXY=    -0.0928
 N-N= 1.677884804777D+02 E-N=-9.390728055223D+02  KE= 2.575496579324D+02
 Symmetry A'   KE= 2.480741359537D+02
 Symmetry A"   KE= 9.475521978738D+00
 1|1|UNPC-UNK|FOpt|RmPW1PW91|6-311G(d,p)|C1H2N4|PCUSER|08-Feb-2005|0||#
 MPW1PW91/6-311G(D,P) OPT FREQ||1H tetrazole c CH-NH-N=N-N= casno=28894
 8 method=25 basis=21||0,1|N,-1.1358438442,-0.2636956239,0.|N,-0.676848
 4391,0.9316162897,0.|N,0.6572698781,0.8163052758,0.|H,1.2401227377,1.6
 363690779,0.|N,-0.1376257257,-1.1760321971,0.|C,0.9726718181,-0.485936
 2996,0.|H,1.97518327,-0.878107492,0.||Version=x86-Win32-G03RevB.05|Sta
 te=1-A'|HF=-258.2517092|RMSD=7.719e-009|RMSF=1.593e-004|Dipole=1.95752
 92,0.8509243,0.|PG=CS [SG(C1H2N4)]||@


 I WOULD TAKE COUNSEL OF MYSELF.
 I WOULD STOP AND LOOK WITHIN
 AND LOOKING WITHIN, LOOK BACK, ALSO
 THAT I MAY LOOK AHEAD WITH CLEARER UNDERSTANDING
 OF THE WAY I HAVE BEEN MOVING, AND IN WHAT DIRECTION.
 I NEED TO KNOW IF I AM GOING FORWARD OR RETREATING,
 WHETHER I HAVE BEEN WASTING, OR ENJOYING
 THE PRECIOUS MOMENTS OF LIFE.  THERE HAVE BEEN FRICTIONS,
 ANNOYANCES AND SOMETIMES WRATH,
 BUT WERE THEY BECAUSE I WAS RIGHT AND OTHERS WRONG.....
 HAVE I HAD MY THOUGHTS TOO SHARPLY FOCUSED
 ON THAT WHICH PLEASED ME, SERVED MY SELF-ESTEEM,
 UNDERGIRDED MY SECURITY,
 OF WHICH I DID NOT INQUIRE WHETHER IT SERVED OR HAMPERED OTHERS.....
 HAVE I BEEN TRYING TO STOP THE CLOCK
 TO HOLD THE WORLD
 IN PERPETUATION OF WHAT WAS AN IS ALREADY SLIPPING AWAY.....
 HAVE I BEEN CRITICAL OF OTHERS FOR WHAT REALLY NEEDED CHANGING IN ME...
 LET ME INDEED TAKE COUNSEL OF MYSELF
 AND SET MY DIRECTIONS STRAIGHT.

                          R.T. WESTON AS ADAPTED BY D. OSBORN 1967
 Job cpu time:  0 days  0 hours  2 minutes 39.0 seconds.
 File lengths (MBytes):  RWF=     16 Int=      0 D2E=      0 Chk=      5 Scr=      1
 Normal termination of Gaussian 03 at Tue Feb 08 18:34:08 2005.
 Link1:  Proceeding to internal job step number  2.
 ----------------------------------------------------------------------
 #N Geom=AllCheck Guess=Read SCRF=Check GenChk RmPW1PW91/6-311G(d,p) Fr
 eq
 ----------------------------------------------------------------------
 1/10=4,29=7,30=1,38=1,40=1,46=1/1,3;
 2/40=1/2;
 3/5=4,6=6,7=101,11=2,16=1,25=1,30=1,70=2,71=2,74=-7/1,2,3;
 4/5=1,7=1/1;
 5/5=2,38=6/2;
 8/6=4,10=90,11=11,27=-725614592/1;
 11/6=1,8=1,9=11,15=111,16=1/1,2,10;
 10/6=1/2;
 6/7=2,8=2,9=2,10=2,18=1,28=1/1;
 7/8=1,10=1,25=1/1,2,3,16;
 1/10=4,30=1,46=1/3;
 99//99;
 -----------------------------------------------------------
 1H tetrazole c CH-NH-N=N-N= casno=288948 method=25 basis=21
 -----------------------------------------------------------
 Redundant internal coordinates taken from checkpoint file:
 gxx.chk
 Charge =  0 Multiplicity = 1
 N,0,-1.1358438442,-0.2636956239,0.
 N,0,-0.6768484391,0.9316162897,0.
 N,0,0.6572698781,0.8163052758,0.
 H,0,1.2401227377,1.6363690779,0.
 N,0,-0.1376257257,-1.1760321971,0.
 C,0,0.9726718181,-0.4859362996,0.
 H,0,1.97518327,-0.878107492,0.
 Recover connectivity data from disk.

 GradGradGradGradGradGradGradGradGradGradGradGradGradGradGradGradGradGrad
 Berny optimization.
 Initialization pass.
                           ----------------------------
                           !    Initial Parameters    !
                           ! (Angstroms and Degrees)  !
 --------------------------                            --------------------------
 ! Name  Definition              Value          Derivative Info.                !
 --------------------------------------------------------------------------------
 ! R1    R(1,2)                  1.2804         calculate D2E/DX2 analytically  !
 ! R2    R(1,5)                  1.3523         calculate D2E/DX2 analytically  !
 ! R3    R(2,3)                  1.3391         calculate D2E/DX2 analytically  !
 ! R4    R(3,4)                  1.0061         calculate D2E/DX2 analytically  !
 ! R5    R(3,6)                  1.3399         calculate D2E/DX2 analytically  !
 ! R6    R(5,6)                  1.3073         calculate D2E/DX2 analytically  !
 ! R7    R(6,7)                  1.0765         calculate D2E/DX2 analytically  !
 ! A1    A(2,1,5)              111.4196         calculate D2E/DX2 analytically  !
 ! A2    A(1,2,3)              106.0667         calculate D2E/DX2 analytically  !
 ! A3    A(2,3,4)              120.463          calculate D2E/DX2 analytically  !
 ! A4    A(2,3,6)              108.5548         calculate D2E/DX2 analytically  !
 ! A5    A(4,3,6)              130.9822         calculate D2E/DX2 analytically  !
 ! A6    A(1,5,6)              105.7111         calculate D2E/DX2 analytically  !
 ! A7    A(3,6,5)              108.2478         calculate D2E/DX2 analytically  !
 ! A8    A(3,6,7)              124.9797         calculate D2E/DX2 analytically  !
 ! A9    A(5,6,7)              126.7725         calculate D2E/DX2 analytically  !
 ! D1    D(5,1,2,3)              0.0            calculate D2E/DX2 analytically  !
 ! D2    D(2,1,5,6)              0.0            calculate D2E/DX2 analytically  !
 ! D3    D(1,2,3,4)            180.0            calculate D2E/DX2 analytically  !
 ! D4    D(1,2,3,6)              0.0            calculate D2E/DX2 analytically  !
 ! D5    D(2,3,6,5)              0.0            calculate D2E/DX2 analytically  !
 ! D6    D(2,3,6,7)            180.0            calculate D2E/DX2 analytically  !
 ! D7    D(4,3,6,5)            180.0            calculate D2E/DX2 analytically  !
 ! D8    D(4,3,6,7)              0.0            calculate D2E/DX2 analytically  !
 ! D9    D(1,5,6,3)              0.0            calculate D2E/DX2 analytically  !
 ! D10   D(1,5,6,7)            180.0            calculate D2E/DX2 analytically  !
 --------------------------------------------------------------------------------
 Trust Radius=3.00D-01 FncErr=1.00D-07 GrdErr=1.00D-07
 Number of steps in this run=   2 maximum allowed number of steps=   2.
 GradGradGradGradGradGradGradGradGradGradGradGradGradGradGradGradGradGrad

                          Input orientation:                          
 ---------------------------------------------------------------------
 Center     Atomic     Atomic              Coordinates (Angstroms)
 Number     Number      Type              X           Y           Z
 ---------------------------------------------------------------------
    1          7             0       -1.135844   -0.263696    0.000000
    2          7             0       -0.676848    0.931616    0.000000
    3          7             0        0.657270    0.816305    0.000000
    4          1             0        1.240123    1.636369    0.000000
    5          7             0       -0.137626   -1.176032    0.000000
    6          6             0        0.972672   -0.485936    0.000000
    7          1             0        1.975183   -0.878107    0.000000
 ---------------------------------------------------------------------
                    Distance matrix (angstroms):
                    1          2          3          4          5
     1  N    0.000000
     2  N    1.280409   0.000000
     3  N    2.093241   1.339092   0.000000
     4  H    3.042279   2.042414   1.006092   0.000000
     5  N    1.352330   2.175533   2.145057   3.131739   0.000000
     6  C    2.120196   2.174942   1.339892   2.139091   1.307285
     7  H    3.171118   3.210665   2.146609   2.619715   2.133711
                    6          7
     6  C    0.000000
     7  H    1.076488   0.000000
 Stoichiometry    CH2N4
 Framework group  CS[SG(CH2N4)]
 Deg. of freedom    11
 Full point group                 CS      NOp   2
 Largest Abelian subgroup         CS      NOp   2
 Largest concise Abelian subgroup C1      NOp   1
                         Standard orientation:                         
 ---------------------------------------------------------------------
 Center     Atomic     Atomic              Coordinates (Angstroms)
 Number     Number      Type              X           Y           Z
 ---------------------------------------------------------------------
    1          7             0       -0.719330   -0.917737    0.000000
    2          7             0       -1.111460    0.301148    0.000000
    3          7             0        0.000000    1.048026    0.000000
    4          1             0       -0.060320    2.052308    0.000000
    5          7             0        0.630353   -1.002321    0.000000
    6          6             0        1.062367    0.231517    0.000000
    7          1             0        2.089172    0.554781    0.000000
 ---------------------------------------------------------------------
 Rotational constants (GHZ):     10.6643583     10.4803093      5.2857664
 Standard basis: 6-311G(d,p) (5D, 7F)
 There are    75 symmetry adapted basis functions of A'  symmetry.
 There are    27 symmetry adapted basis functions of A"  symmetry.
 Integral buffers will be    262144 words long.
 Raffenetti 2 integral format.
 Two-electron integral symmetry is turned on.
   102 basis functions,   176 primitive gaussians,   107 cartesian basis functions
    18 alpha electrons       18 beta electrons
       nuclear repulsion energy       167.7884804777 Hartrees.
 NAtoms=    7 NActive=    7 NUniq=    7 SFac= 1.00D+00 NAtFMM=   60 Big=F
 One-electron integrals computed using PRISM.
 NBasis=   102 RedAO= T  NBF=    75    27
 NBsUse=   102 1.00D-06 NBFU=    75    27
 Initial guess read from the checkpoint file:
 gxx.chk
 Initial guess orbital symmetries:
       Occupied  (A') (A') (A') (A') (A') (A') (A') (A') (A') (A')
                 (A') (A") (A') (A') (A") (A") (A') (A')
       Virtual   (A") (A") (A') (A') (A') (A') (A') (A') (A') (A")
                 (A') (A') (A') (A') (A') (A") (A') (A") (A') (A')
                 (A') (A") (A') (A") (A') (A') (A') (A') (A') (A")
                 (A') (A") (A') (A") (A') (A') (A") (A') (A") (A')
                 (A') (A") (A") (A') (A') (A') (A') (A') (A") (A")
                 (A') (A') (A') (A") (A') (A") (A') (A') (A") (A")
                 (A') (A') (A') (A') (A') (A') (A") (A') (A") (A')
                 (A") (A") (A') (A') (A') (A') (A') (A') (A') (A')
                 (A') (A') (A') (A')
 Requested convergence on RMS density matrix=1.00D-08 within 128 cycles.
 Requested convergence on MAX density matrix=1.00D-06.
 Requested convergence on             energy=1.00D-06.
 No special actions if energy rises.
 Keep R1 integrals in memory in canonical form, NReq=    17862147.
 SCF Done:  E(RmPW+HF-PW91) =  -258.251709204     A.U. after    1 cycles
             Convg  =    0.3532D-08             -V/T =  2.0027
             S**2   =   0.0000
 Range of M.O.s used for correlation:     1   102
 NBasis=   102 NAE=    18 NBE=    18 NFC=     0 NFV=     0
 NROrb=    102 NOA=    18 NOB=    18 NVA=    84 NVB=    84
 Symmetrizing basis deriv contribution to polar:
 IMax=3 JMax=2 DiffMx= 0.00D+00
[...]
  XXX=    11.9759  YYY=    22.5348  ZZZ=     0.0000  XYY=    -0.5655
  XXY=     4.6382  XXZ=     0.0000  XZZ=    -0.7222  YZZ=     0.5280
  YYZ=     0.0000  XYZ=     0.0000
 Hexadecapole moment (field-independent basis, Debye-Ang**3):
 XXXX=  -140.0274 YYYY=  -119.0647 ZZZZ=   -25.0598 XXXY=     6.8855
 XXXZ=     0.0000 YYYX=    -0.3563 YYYZ=     0.0000 ZZZX=     0.0000
 ZZZY=     0.0000 XXYY=   -53.0417 XXZZ=   -30.0862 YYZZ=   -28.4233
 XXYZ=     0.0000 YYXZ=     0.0000 ZZXY=    -0.0928
 N-N= 1.677884804777D+02 E-N=-9.390728050246D+02  KE= 2.575496578561D+02
 Symmetry A'   KE= 2.480741358779D+02
 Symmetry A"   KE= 9.475521978196D+00
  Exact polarizability:  38.494   0.948  37.933   0.000   0.000  17.703
 Approx polarizability:  62.982   0.483  66.586   0.000   0.000  25.737
 Full mass-weighted force constant matrix:
 Low frequencies ---    0.0004    0.0005    0.0009    8.4754   11.1279   15.3045
 Low frequencies ---  626.4006  706.7050  754.2836
 Diagonal vibrational polarizability:
        1.1499952       1.1657835       7.4483310
 Harmonic frequencies (cm**-1), IR intensities (KM/Mole), Raman scattering
 activities (A**4/AMU), depolarization ratios for plane and unpolarized
 incident light, reduced masses (AMU), force constants (mDyne/A),
 and normal coordinates:
                     1                      2                      3
                    A"                     A"                     A"
 Frequencies --   626.4004               706.7049               754.2836
 Red. masses --     1.9762                 1.7811                 7.3986
 Frc consts  --     0.4569                 0.5241                 2.4801
 IR Inten    --    81.0465                14.8044                10.4781
 Atom AN      X      Y      Z        X      Y      Z        X      Y      Z
   1   7     0.00   0.00   0.00     0.00   0.00   0.04     0.00   0.00   0.47
   2   7     0.00   0.00  -0.10     0.00   0.00   0.08     0.00   0.00  -0.40
   3   7     0.00   0.00   0.23     0.00   0.00  -0.07     0.00   0.00   0.11
   4   1     0.00   0.00  -0.91     0.00   0.00  -0.85     0.00   0.00   0.71
   5   7     0.00   0.00   0.04     0.00   0.00  -0.16     0.00   0.00  -0.31
   6   6     0.00   0.00  -0.10     0.00   0.00   0.16     0.00   0.00   0.08
   7   1     0.00   0.00  -0.32     0.00   0.00   0.47     0.00   0.00   0.10
                     4                      5                      6
                    A"                     A'                     A'
 Frequencies --   879.0805               994.0336              1030.2728
 Red. masses --     1.3789                 4.1618                 5.9773
 Frc consts  --     0.6278                 2.4229                 3.7382
 IR Inten    --    17.1270                 4.1710                 0.8510
 Atom AN      X      Y      Z        X      Y      Z        X      Y      Z
   1   7     0.00   0.00   0.02    -0.01   0.17   0.00     0.21  -0.07   0.00
   2   7     0.00   0.00   0.00    -0.13   0.13   0.00     0.13  -0.06   0.00
   3   7     0.00   0.00   0.03    -0.09  -0.04   0.00     0.01   0.40   0.00
   4   1     0.00   0.00   0.04     0.43   0.00   0.00     0.10   0.43   0.00
   5   7     0.00   0.00   0.03     0.31  -0.23   0.00    -0.04  -0.21   0.00
   6   6     0.00   0.00  -0.18    -0.11  -0.11   0.00    -0.35  -0.06   0.00
   7   1     0.00   0.00   0.98    -0.35   0.67   0.00    -0.20  -0.60   0.00
                     7                      8                      9
                    A'                     A'                     A'
 Frequencies --  1083.5540              1099.0896              1163.0769
 Red. masses --     3.8642                 3.5828                 2.0778
 Frc consts  --     2.6731                 2.5500                 1.6560
 IR Inten    --    20.9412                28.4026                13.8420
 Atom AN      X      Y      Z        X      Y      Z        X      Y      Z
   1   7     0.10  -0.01   0.00     0.31   0.03   0.00    -0.14  -0.13   0.00
   2   7     0.32   0.19   0.00    -0.17   0.03   0.00     0.07  -0.05   0.00
   3   7    -0.17  -0.14   0.00     0.07  -0.14   0.00     0.14   0.03   0.00
   4   1    -0.57  -0.17   0.00     0.85  -0.11   0.00     0.45   0.05   0.00
   5   7    -0.13  -0.06   0.00    -0.20   0.03   0.00    -0.02   0.00   0.00
   6   6    -0.08  -0.01   0.00    -0.08   0.05   0.00    -0.08   0.11   0.00
   7   1    -0.28   0.59   0.00    -0.14   0.22   0.00    -0.29   0.79   0.00
                    10                     11                     12
                    A'                     A'                     A'
 Frequencies --  1290.1532              1337.7833              1486.2527
 Red. masses --     2.5147                 9.7087                 3.4238
 Frc consts  --     2.4661                10.2372                 4.4559
 IR Inten    --     1.2820                17.9275                 8.9217
 Atom AN      X      Y      Z        X      Y      Z        X      Y      Z
   1   7    -0.06  -0.06   0.00    -0.03   0.56   0.00    -0.01  -0.01   0.00
   2   7     0.11   0.06   0.00     0.18  -0.47   0.00    -0.06   0.10   0.00
   3   7    -0.06  -0.11   0.00     0.14  -0.13   0.00     0.20  -0.14   0.00
   4   1     0.67  -0.08   0.00    -0.38  -0.20   0.00    -0.70  -0.22   0.00
   5   7     0.12   0.18   0.00    -0.03   0.11   0.00     0.07  -0.13   0.00
   6   6    -0.19  -0.02   0.00    -0.24  -0.07   0.00    -0.17   0.28   0.00
   7   1    -0.02  -0.65   0.00    -0.35   0.12   0.00     0.06  -0.51   0.00
                    13                     14                     15
                    A'                     A'                     A'
 Frequencies --  1539.2452              3307.9615              3696.0838
 Red. masses --     3.3952                 1.1016                 1.0839
 Frc consts  --     4.7394                 7.1022                 8.7245
 IR Inten    --    16.8869                 1.6504               100.3297
 Atom AN      X      Y      Z        X      Y      Z        X      Y      Z
   1   7     0.06  -0.10   0.00     0.00   0.00   0.00     0.00   0.00   0.00
   2   7    -0.11   0.09   0.00     0.00   0.00   0.00     0.00   0.00   0.00
   3   7     0.18   0.02   0.00     0.00   0.00   0.00     0.01  -0.08   0.00
   4   1    -0.76  -0.04   0.00     0.01   0.02   0.00    -0.06   1.00   0.00
   5   7     0.05   0.20   0.00     0.00   0.00   0.00     0.00   0.00   0.00
   6   6    -0.12  -0.27   0.00     0.09   0.03   0.00     0.00   0.00   0.00
   7   1    -0.35   0.32   0.00    -0.95  -0.30   0.00     0.02   0.00   0.00

 -------------------
 - Thermochemistry -
 -------------------
 Temperature   298.150 Kelvin.  Pressure   1.00000 Atm.
 Atom  1 has atomic number  7 and mass  14.00307
 Atom  2 has atomic number  7 and mass  14.00307
 Atom  3 has atomic number  7 and mass  14.00307
 Atom  4 has atomic number  1 and mass   1.00783
 Atom  5 has atomic number  7 and mass  14.00307
 Atom  6 has atomic number  6 and mass  12.00000
 Atom  7 has atomic number  1 and mass   1.00783
 Molecular mass:    70.02795 amu.
 Principal axes and moments of inertia in atomic units:
                           1         2         3
     EIGENVALUES --   169.23111 172.20305 341.43416
           X            0.85379   0.52061   0.00000
           Y           -0.52061   0.85379   0.00000
           Z            0.00000   0.00000   1.00000
 This molecule is an asymmetric top.
 Rotational symmetry number  1.
 Rotational temperatures (Kelvin)      0.51181     0.50297     0.25368
 Rotational constants (GHZ):          10.66436    10.48031     5.28577
 Zero-point vibrational energy     125571.9 (Joules/Mol)
                                   30.01240 (Kcal/Mol)
 Vibrational temperatures:    901.25  1016.79  1085.24  1264.80  1430.19
          (Kelvin)           1482.33  1558.99  1581.34  1673.41  1856.24
                             1924.77  2138.38  2214.63  4759.41  5317.83
 
 Zero-point correction=                           0.047828 (Hartree/Particle)
 Thermal correction to Energy=                    0.051240
 Thermal correction to Enthalpy=                  0.052184
 Thermal correction to Gibbs Free Energy=         0.021774
 Sum of electronic and zero-point Energies=           -258.203881
 Sum of electronic and thermal Energies=              -258.200470
 Sum of electronic and thermal Enthalpies=            -258.199525
 Sum of electronic and thermal Free Energies=         -258.229936
 
                     E (Thermal)             CV                S
                      KCal/Mol        Cal/Mol-Kelvin    Cal/Mol-Kelvin
 Total                   32.153             10.974             64.003
 Electronic               0.000              0.000              0.000
 Translational            0.889              2.981             38.656
 Rotational               0.889              2.981             23.813
 Vibrational             30.376              5.013              1.534
                       Q            Log10(Q)             Ln(Q)
 Total Bot       0.965715D-10        -10.015151        -23.060737
 Total V=0       0.963967D+12         11.984062         27.594323
 Vib (Bot)       0.117416D-21        -21.930274        -50.496321
 Vib (V=0)       0.117203D+01          0.068940          0.158739
 Electronic      0.100000D+01          0.000000          0.000000
 Translational   0.230336D+08          7.362362         16.952466
 Rotational      0.357076D+05          4.552760         10.483118
 ***** Axes restored to original set *****
 -------------------------------------------------------------------
 Center     Atomic                   Forces (Hartrees/Bohr)
 Number     Number              X              Y              Z
 -------------------------------------------------------------------
    1          7           0.000263247   -0.000085332    0.000000000
    2          7           0.000152999   -0.000283511    0.000000000
    3          7          -0.000225389    0.000186466    0.000000000
    4          1           0.000024404   -0.000006887    0.000000000
    5          7          -0.000379447    0.000289863    0.000000000
    6          6           0.000177046   -0.000079103    0.000000000
    7          1          -0.000012860   -0.000021495    0.000000000
 -------------------------------------------------------------------
 Cartesian Forces:  Max     0.000379447 RMS     0.000159286

 GradGradGradGradGradGradGradGradGradGradGradGradGradGradGradGradGradGrad
 Berny optimization.
 Internal  Forces:  Max     0.000360099 RMS     0.000098190
 Search for a local minimum.
 Step number   1 out of a maximum of   2
 All quantities printed in internal units (Hartrees-Bohrs-Radians)
 Second derivative matrix not updated -- analytic derivatives used.
     Eigenvalues ---    0.00946   0.02624   0.07437   0.08005   0.10214
     Eigenvalues ---    0.10679   0.20973   0.26104   0.36247   0.38231
     Eigenvalues ---    0.45322   0.48288   0.49402   0.59789   0.65349
     Eigenvalues --- 1000.000001000.000001000.000001000.000001000.00000
     Eigenvalues --- 1000.000001000.000001000.000001000.000001000.00000
     Eigenvalues --- 1000.00000
 Angle between quadratic step and forces=  22.75 degrees.
 Linear search not attempted -- first point.
 Iteration  1 RMS(Cart)=  0.00023596 RMS(Int)=  0.00000004
 Iteration  2 RMS(Cart)=  0.00000004 RMS(Int)=  0.00000001
 Variable       Old X    -DE/DX   Delta X   Delta X   Delta X     New X
                                 (Linear)    (Quad)   (Total)
    R1        2.41962  -0.00016   0.00000  -0.00011  -0.00011   2.41951
    R2        2.55553  -0.00036   0.00000  -0.00118  -0.00118   2.55436
    R3        2.53052  -0.00017   0.00000  -0.00053  -0.00053   2.52999
    R4        1.90124   0.00001   0.00000   0.00002   0.00002   1.90125
    R5        2.53203   0.00007   0.00000   0.00028   0.00028   2.53231
    R6        2.47041   0.00009   0.00000   0.00029   0.00029   2.47070
    R7        2.03427   0.00000   0.00000  -0.00004  -0.00004   2.03423
    A1        1.94464   0.00001   0.00000   0.00001   0.00001   1.94465
    A2        1.85121   0.00012   0.00000   0.00017   0.00017   1.85138
    A3        2.10248   0.00006   0.00000   0.00016   0.00016   2.10263
    A4        1.89464  -0.00009   0.00000  -0.00004  -0.00004   1.89460
    A5        2.28607   0.00003   0.00000  -0.00011  -0.00011   2.28596
    A6        1.84501   0.00007   0.00000   0.00036   0.00036   1.84537
    A7        1.88928  -0.00011   0.00000  -0.00049  -0.00049   1.88879
    A8        2.18131   0.00007   0.00000   0.00043   0.00043   2.18173
    A9        2.21260   0.00004   0.00000   0.00006   0.00006   2.21266
    D1        0.00000   0.00000   0.00000   0.00000   0.00000   0.00000
    D2        0.00000   0.00000   0.00000   0.00000   0.00000   0.00000
    D3        3.14159   0.00000   0.00000   0.00000   0.00000   3.14159
    D4        0.00000   0.00000   0.00000   0.00000   0.00000   0.00000
    D5        0.00000   0.00000   0.00000   0.00000   0.00000   0.00000
    D6        3.14159   0.00000   0.00000   0.00000   0.00000   3.14159
    D7        3.14159   0.00000   0.00000   0.00000   0.00000   3.14159
    D8        0.00000   0.00000   0.00000   0.00000   0.00000   0.00000
    D9        0.00000   0.00000   0.00000   0.00000   0.00000   0.00000
   D10        3.14159   0.00000   0.00000   0.00000   0.00000   3.14159
         Item               Value     Threshold  Converged?
 Maximum Force            0.000360     0.000450     YES
 RMS     Force            0.000098     0.000300     YES
 Maximum Displacement     0.000578     0.001800     YES
 RMS     Displacement     0.000236     0.001200     YES
 Predicted change in Energy=-3.627381D-07
 Optimization completed.
    -- Stationary point found.
                           ----------------------------
                           !   Optimized Parameters   !
                           ! (Angstroms and Degrees)  !
 --------------------------                            --------------------------
 ! Name  Definition              Value          Derivative Info.                !
 --------------------------------------------------------------------------------
 ! R1    R(1,2)                  1.2804         -DE/DX =   -0.0002              !
 ! R2    R(1,5)                  1.3523         -DE/DX =   -0.0004              !
 ! R3    R(2,3)                  1.3391         -DE/DX =   -0.0002              !
 ! R4    R(3,4)                  1.0061         -DE/DX =    0.0                 !
 ! R5    R(3,6)                  1.3399         -DE/DX =    0.0001              !
 ! R6    R(5,6)                  1.3073         -DE/DX =    0.0001              !
 ! R7    R(6,7)                  1.0765         -DE/DX =    0.0                 !
 ! A1    A(2,1,5)              111.4196         -DE/DX =    0.0                 !
 ! A2    A(1,2,3)              106.0667         -DE/DX =    0.0001              !
 ! A3    A(2,3,4)              120.463          -DE/DX =    0.0001              !
 ! A4    A(2,3,6)              108.5548         -DE/DX =   -0.0001              !
 ! A5    A(4,3,6)              130.9822         -DE/DX =    0.0                 !
 ! A6    A(1,5,6)              105.7111         -DE/DX =    0.0001              !
 ! A7    A(3,6,5)              108.2478         -DE/DX =   -0.0001              !
 ! A8    A(3,6,7)              124.9797         -DE/DX =    0.0001              !
 ! A9    A(5,6,7)              126.7725         -DE/DX =    0.0                 !
 ! D1    D(5,1,2,3)              0.0            -DE/DX =    0.0                 !
 ! D2    D(2,1,5,6)              0.0            -DE/DX =    0.0                 !
 ! D3    D(1,2,3,4)            180.0            -DE/DX =    0.0                 !
 ! D4    D(1,2,3,6)              0.0            -DE/DX =    0.0                 !
 ! D5    D(2,3,6,5)              0.0            -DE/DX =    0.0                 !
 ! D6    D(2,3,6,7)            180.0            -DE/DX =    0.0                 !
 ! D7    D(4,3,6,5)            180.0            -DE/DX =    0.0                 !
 ! D8    D(4,3,6,7)              0.0            -DE/DX =    0.0                 !
 ! D9    D(1,5,6,3)              0.0            -DE/DX =    0.0                 !
 ! D10   D(1,5,6,7)            180.0            -DE/DX =    0.0                 !
 --------------------------------------------------------------------------------
 GradGradGradGradGradGradGradGradGradGradGradGradGradGradGradGradGradGrad

 1|1|UNPC-UNK|Freq|RmPW1PW91|6-311G(d,p)|C1H2N4|PCUSER|08-Feb-2005|0||#
 N GEOM=ALLCHECK GUESS=READ SCRF=CHECK GENCHK RMPW1PW91/6-311G(D,P) FRE
 Q||1H tetrazole c CH-NH-N=N-N= casno=288948 method=25 basis=21||0,1|N,
 -1.1358438442,-0.2636956239,0.|N,-0.6768484391,0.9316162897,0.|N,0.657
 2698781,0.8163052758,0.|H,1.2401227377,1.6363690779,0.|N,-0.1376257257
 ,-1.1760321971,0.|C,0.9726718181,-0.4859362996,0.|H,1.97518327,-0.8781
 07492,0.||Version=x86-Win32-G03RevB.05|State=1-A'|HF=-258.2517092|RMSD
 =3.532e-009|RMSF=1.593e-004|Dipole=1.957528,0.8509247,0.|DipoleDeriv=-
 0.0551253,-0.1597647,0.,-0.2074208,0.0870825,0.,0.,0.,-0.1559582,0.252
 8402,0.2756591,0.,0.2328121,-0.3234788,0.,0.,0.,-0.0988443,-0.3451611,
 -0.3091163,0.,-0.2136622,-0.2337341,0.,0.,0.,-0.1365561,0.2252757,0.05
 05558,0.,0.0322845,0.2709208,0.,0.,0.,0.3416094,-0.3503807,0.1242259,0
 .,-0.0021439,-0.3503768,0.,0.,0.,-0.2119874,0.2148054,0.0129113,0.,0.1
 461044,0.4270117,0.,0.,0.,0.0873235,0.0577458,0.0055289,0.,0.0120258,0
 .1225746,0.,0.,0.,0.174413|Polar=39.1996264,-0.0713505,37.2274422,0.,0
 .,17.7034146|PG=CS [SG(C1H2N4)]|NImag=0||0.57596989,0.09637644,0.51068
 563,0.,0.,0.12947263,-0.14597101,-0.11674384,0.,0.45410616,-0.05705065
 ,-0.34248993,0.,-0.03079086,0.64113084,0.,0.,-0.10082042,0.,0.,0.11989
 421,-0.11746715,-0.11461537,0.,-0.23020144,0.02500413,0.,0.68318775,-0
 .03324176,-0.06559595,0.,0.06134994,-0.12392551,0.,0.20275436,0.951126
 91,0.,0.,0.02749902,0.,0.,-0.07228401,0.,0.,0.10110554,-0.01129838,-0.
 00125543,0.,-0.00700399,-0.03319655,0.,-0.19951906,-0.18177281,0.,0.20
 269572,0.00781841,0.00214024,0.,0.00162901,0.01205111,0.,-0.18986820,-
 0.34605662,0.,0.20063716,0.34211292,0.,0.,0.00824444,0.,0.,-0.01195112
 ,0.,0.,-0.00987986,0.,0.,0.01549820,-0.17442778,0.06584970,0.,-0.00065
 013,0.09324909,0.,-0.00486472,-0.11654985,0.,-0.00015516,-0.00068684,0
 .,0.50744226,0.02856656,-0.13581958,0.,-0.01776733,-0.12809508,0.,0.00
 230475,-0.08465334,0.,0.00912893,-0.00622366,0.,0.10549809,0.54999207,
 0.,0.,-0.09346920,0.,0.,0.03685748,0.,0.,0.02206045,0.,0.,0.00766343,0
 .,0.,0.11374880,-0.12363676,0.07081650,0.,-0.07025261,0.00656915,0.,-0
 .13600836,0.07127271,0.,0.01566343,-0.02009354,0.,-0.31230429,-0.13866
 923,0.,0.95113152,-0.03607308,0.03232722,0.,0.10298849,-0.05230576,0.,
 0.04249839,-0.32640304,0.,0.00655813,-0.00378411,0.,-0.13065528,-0.209
 60293,0.,-0.09546378,0.65810748,0.,0.,0.01982811,0.,0.,0.02203454,0.,0
 .,-0.06647771,0.,0.,-0.00852070,0.,0.,-0.08199505,0.,0.,0.14667246,-0.
 00316882,-0.00042800,0.,-0.00002698,-0.00378431,0.,0.00487297,-0.00381
 258,0.,-0.00038257,0.00056399,0.,-0.01504018,0.01093824,0.,-0.32459293
 ,0.11014712,0.,0.33833852,-0.00639591,-0.00124763,0.,-0.00066541,-0.00
 636566,0.,0.03192194,-0.00449244,0.,-0.00009945,-0.00023987,0.,-0.0167
 0490,0.01440251,0.,0.10556819,-0.09833887,0.,-0.11362445,0.09628196,0.
 ,0.,0.00924543,0.,0.,0.00626933,0.,0.,-0.00202342,0.,0.,-0.00105438,0.
 ,0.,-0.00486590,0.,0.,-0.03154166,0.,0.,0.02397060||-0.00026325,0.0000
 8533,0.,-0.00015300,0.00028351,0.,0.00022539,-0.00018647,0.,-0.0000244
 0,0.00000689,0.,0.00037945,-0.00028986,0.,-0.00017705,0.00007910,0.,0.
 00001286,0.00002150,0.|||@


 WE LEARN WISDOM FROM FAILURE MUCH MORE THAN FROM SUCCESS.
 WE DISCOVER WHAT WILL DO BY FINDING OUT WHAT WILL NOT DO...
 AND HE WHO NEVER MADE A MISTAKE NEVER MADE A DISCOVERY
 Job cpu time:  0 days  0 hours  3 minutes 18.0 seconds.
 File lengths (MBytes):  RWF=     17 Int=      0 D2E=      0 Chk=      5 Scr=      1
 Normal termination of Gaussian 03 at Tue Feb 08 18:37:26 2005.
