 Entering Gaussian System, Link 0=g98
 Initial command:
 /usr/local/apps/g98a6/g98/l1.exe /wrk/rdj3/Gau-9520.inp -scrdir=/wrk/rdj3/
 Entering Link 1 = /usr/local/apps/g98a6/g98/l1.exe PID=     22040.
  
 Copyright (c) 1988,1990,1992,1993,1995,1998 Gaussian, Inc.
                  All Rights Reserved.
  
 This is part of the Gaussian(R) 98 program.  It is based on
 the Gaussian 94(TM) system (copyright 1995 Gaussian, Inc.),
 the Gaussian 92(TM) system (copyright 1992 Gaussian, Inc.),
 the Gaussian 90(TM) system (copyright 1990 Gaussian, Inc.),
 the Gaussian 88(TM) system (copyright 1988 Gaussian, Inc.),
 the Gaussian 86(TM) system (copyright 1986 Carnegie Mellon
 University), and the Gaussian 82(TM) system (copyright 1983
 Carnegie Mellon University). Gaussian is a federally registered
 trademark of Gaussian, Inc.
  
 This software contains proprietary and confidential information,
 including trade secrets, belonging to Gaussian, Inc.
  
 This software is provided under written license and may be
 used, copied, transmitted, or stored only in accord with that
 written license.
  
 The following legend is applicable only to US Government
 contracts under DFARS:
  
                    RESTRICTED RIGHTS LEGEND
  
 Use, duplication or disclosure by the US Government is subject
 to restrictions as set forth in subparagraph (c)(1)(ii) of the
 Rights in Technical Data and Computer Software clause at DFARS
 252.227-7013.
  
 Gaussian, Inc.
 Carnegie Office Park, Building 6, Pittsburgh, PA 15106 USA
  
 The following legend is applicable only to US Government
 contracts under FAR:
  
                    RESTRICTED RIGHTS LEGEND
  
 Use, reproduction and disclosure by the US Government is subject
 to restrictions as set forth in subparagraph (c) of the
 Commercial Computer Software - Restricted Rights clause at FAR
 52.227-19.
  
 Gaussian, Inc.
 Carnegie Office Park, Building 6, Pittsburgh, PA 15106 USA
  
  
 ---------------------------------------------------------------
 Warning -- This program may not be used in any manner that
 competes with the business of Gaussian, Inc. or will provide
 assistance to any competitor of Gaussian, Inc.  The licensee
 of this program is prohibited from giving any competitor of
 Gaussian, Inc. access to this program.  By using this program,
 the user acknowledges that Gaussian, Inc. is engaged in the
 business of creating and licensing software in the field of
 computational chemistry and represents and warrants to the
 licensee that it is not a competitor of Gaussian, Inc. and that
 it will not use this program in any manner prohibited above.
 ---------------------------------------------------------------
  

 Cite this work as:
 Gaussian 98, Revision A.6,
 M. J. Frisch, G. W. Trucks, H. B. Schlegel, G. E. Scuseria, 
 M. A. Robb, J. R. Cheeseman, V. G. Zakrzewski, J. A. Montgomery, Jr., 
 R. E. Stratmann, J. C. Burant, S. Dapprich, J. M. Millam, 
 A. D. Daniels, K. N. Kudin, M. C. Strain, O. Farkas, J. Tomasi, 
 V. Barone, M. Cossi, R. Cammi, B. Mennucci, C. Pomelli, C. Adamo, 
 S. Clifford, J. Ochterski, G. A. Petersson, P. Y. Ayala, Q. Cui, 
 K. Morokuma, D. K. Malick, A. D. Rabuck, K. Raghavachari, 
 J. B. Foresman, J. Cioslowski, J. V. Ortiz, B. B. Stefanov, G. Liu, 
 A. Liashenko, P. Piskorz, I. Komaromi, R. Gomperts, R. L. Martin, 
 D. J. Fox, T. Keith, M. A. Al-Laham, C. Y. Peng, A. Nanayakkara, 
 C. Gonzalez, M. Challacombe, P. M. W. Gill, B. Johnson, W. Chen, 
 M. W. Wong, J. L. Andres, C. Gonzalez, M. Head-Gordon, 
 E. S. Replogle, and J. A. Pople, 
 Gaussian, Inc., Pittsburgh PA, 1998.

 **********************************************
 Gaussian 98:  IBM-RS6000-G98RevA.6 19-Oct-1998
                  18-May-2004 
 **********************************************
 %mem=56000000
 --------------------------
 #MP2/6-31G(2df,p) opt freq
 --------------------------
 1/18=20,38=1/1,3;
 2/9=110,17=6,18=5/2;
 3/5=1,6=6,7=104,11=9,25=1,30=1/1,2,3;
 4//1;
 5/5=2,38=4/2;
 8/6=4,10=1,23=2/1;
 9/15=2,16=-3/6;
 10/5=1/2;
 6/7=2,8=2,9=2,10=2/1;
 7/12=2/1,2,3,16;
 1/18=20/3(1);
 99//99;
 2/9=110/2;
 3/5=1,6=6,7=104,11=9,25=1,30=1/1,2,3;
 4/5=5,16=2/1;
 5/5=2,38=4/2;
 8/6=4,10=1,23=2/1;
 9/15=2,16=-3/6;
 10/5=1/2;
 7/12=2/1,2,3,16;
 1/18=20/3(-8);
 2/9=110/2;
 6/7=2,8=2,9=2,10=2/1;
 99//99;
 -----------------------------------
 1htz casno=288948 method=3 basis=19
 -----------------------------------
 Symbolic Z-matrix:
 Charge =  0 Multiplicity = 1
 N                    -0.71631  -0.90193   0. 
 N                    -1.09552   0.29142   0. 
 N                     0.        1.03878   0. 
 H                    -0.06148   2.03099   0. 
 N                     0.62215  -0.9895    0. 
 C                     1.05281   0.22578   0. 
 H                     2.07237   0.54298   0. 

 GradGradGradGradGradGradGradGradGradGradGradGradGradGradGradGradGradGrad
 Berny optimization.
 Initialization pass.
                         ----------------------------
                         !    Initial Parameters    !
                         ! (Angstroms and Degrees)  !
 ------------------------                            -------------------------
 ! Name  Definition              Value          Derivative Info.             !
 -----------------------------------------------------------------------------
 ! R1    R(1,2)                  1.2522         estimate D2E/DX2             !
 ! R2    R(1,5)                  1.3413         estimate D2E/DX2             !
 ! R3    R(2,3)                  1.3262         estimate D2E/DX2             !
 ! R4    R(3,4)                  0.9941         estimate D2E/DX2             !
 ! R5    R(3,6)                  1.3302         estimate D2E/DX2             !
 ! R6    R(5,6)                  1.2893         estimate D2E/DX2             !
 ! R7    R(6,7)                  1.0678         estimate D2E/DX2             !
 ! A1    A(2,1,5)              111.3714         estimate D2E/DX2             !
 ! A2    A(1,2,3)              106.673          estimate D2E/DX2             !
 ! A3    A(2,3,4)              120.7559         estimate D2E/DX2             !
 ! A4    A(2,3,6)              108.0227         estimate D2E/DX2             !
 ! A5    A(4,3,6)              131.2214         estimate D2E/DX2             !
 ! A6    A(1,5,6)              105.7701         estimate D2E/DX2             !
 ! A7    A(3,6,5)              108.1628         estimate D2E/DX2             !
 ! A8    A(3,6,7)              125.0426         estimate D2E/DX2             !
 ! A9    A(5,6,7)              126.7946         estimate D2E/DX2             !
 ! D1    D(5,1,2,3)              0.             estimate D2E/DX2             !
 ! D2    D(2,1,5,6)              0.             estimate D2E/DX2             !
 ! D3    D(1,2,3,4)            180.             estimate D2E/DX2             !
 ! D4    D(1,2,3,6)              0.             estimate D2E/DX2             !
 ! D5    D(2,3,6,5)              0.             estimate D2E/DX2             !
 ! D6    D(2,3,6,7)            180.             estimate D2E/DX2             !
 ! D7    D(4,3,6,5)            180.             estimate D2E/DX2             !
 ! D8    D(4,3,6,7)              0.             estimate D2E/DX2             !
 ! D9    D(1,5,6,3)              0.             estimate D2E/DX2             !
 ! D10   D(1,5,6,7)            180.             estimate D2E/DX2             !
 -----------------------------------------------------------------------------
 Trust Radius=3.00D-01 FncErr=1.00D-07 GrdErr=1.00D-07
 Number of steps in this run=  36 maximum allowed number of steps= 100.
 GradGradGradGradGradGradGradGradGradGradGradGradGradGradGradGradGradGrad

                          Input orientation:                          
 ---------------------------------------------------------------------
 Center     Atomic     Atomic              Coordinates (Angstroms)
 Number     Number      Type              X           Y           Z
 ---------------------------------------------------------------------
    1          7             0       -0.716312   -0.901934    0.000000
    2          7             0       -1.095520    0.291420    0.000000
    3          7             0        0.000000    1.038775    0.000000
    4          1             0       -0.061479    2.030994    0.000000
    5          7             0        0.622151   -0.989495    0.000000
    6          6             0        1.052813    0.225779    0.000000
    7          1             0        2.072370    0.542976    0.000000
 ---------------------------------------------------------------------
                    Distance matrix (angstroms):
                    1          2          3          4          5
     1  N    0.000000
     2  N    1.252155   0.000000
     3  N    2.068684   1.326161   0.000000
     4  H    3.005141   2.023699   0.994122   0.000000
     5  N    1.341324   2.142694   2.121544   3.096886   0.000000
     6  C    2.097985   2.149336   1.330180   2.121426   1.289326
     7  H    3.140782   3.177862   2.130853   2.601444   2.109882
                    6          7
     6  C    0.000000
     7  H    1.067760   0.000000
 Stoichiometry    CH2N4
 Framework group  CS[SG(CH2N4)]
 Deg. of freedom   11
 Full point group                 CS      NOp   2
 Largest Abelian subgroup         CS      NOp   2
 Largest concise Abelian subgroup C1      NOp   1
                         Standard orientation:                         
 ---------------------------------------------------------------------
 Center     Atomic     Atomic              Coordinates (Angstroms)
 Number     Number      Type              X           Y           Z
 ---------------------------------------------------------------------
    1          7             0       -0.716312   -0.901934    0.000000
    2          7             0       -1.095520    0.291420    0.000000
    3          7             0        0.000000    1.038775    0.000000
    4          1             0       -0.061479    2.030994    0.000000
    5          7             0        0.622151   -0.989495    0.000000
    6          6             0        1.052813    0.225779    0.000000
    7          1             0        2.072370    0.542976    0.000000
 ---------------------------------------------------------------------
 Rotational constants (GHZ):     10.9198663     10.7343948      5.4131681
 Isotopes: N-14,N-14,N-14,H-1,N-14,C-12,H-1
 Standard basis: 6-31G(2df,p) (6D, 7F)
 There are   103 symmetry adapted basis functions of A'  symmetry.
 There are    47 symmetry adapted basis functions of A"  symmetry.
 Crude estimate of integral set expansion from redundant integrals=1.000.
 Integral buffers will be    262144 words long.
 Raffenetti 1 integral format.
 Two-electron integral symmetry is turned on.
   150 basis functions      234 primitive gaussians
    18 alpha electrons       18 beta electrons
       nuclear repulsion energy       169.8288360377 Hartrees.
 One-electron integrals computed using PRISM.
 NBasis=   150 RedAO= T  NBF=   103    47
 NBsUse=   150 1.00D-04 NBFU=   103    47
 Projected INDO Guess.
 Initial guess orbital symmetries:
       Occupied  (A') (A') (A') (A') (A') (A') (A') (A') (A') (A')
                 (A') (A") (A') (A') (A") (A") (A') (A')
       Virtual   (A") (A') (A") (A') (A') (A') (A') (A') (A') (A')
                 (A') (A') (A') (A') (A') (A') (A') (A') (A') (A')
                 (A') (A') (A') (A') (A') (A') (A') (A') (A') (A')
                 (A') (A') (A') (A') (A') (A') (A') (A') (A') (A')
                 (A') (A') (A') (A') (A') (A') (A') (A') (A') (A')
                 (A') (A') (A') (A') (A') (A') (A') (A') (A') (A')
                 (A') (A') (A') (A') (A') (A') (A') (A') (A') (A')
                 (A') (A') (A') (A') (A') (A') (A') (A') (A') (A')
                 (A') (A') (A') (A') (A') (A') (A') (A') (A') (A')
                 (A") (A") (A") (A") (A") (A") (A") (A") (A") (A")
                 (A") (A") (A") (A") (A") (A") (A") (A") (A") (A")
                 (A") (A") (A") (A") (A") (A") (A") (A") (A") (A")
                 (A") (A") (A") (A") (A") (A") (A") (A") (A") (A")
                 (A") (A")
 Requested convergence on RMS density matrix=1.00D-08 within  64 cycles.
 Requested convergence on MAX density matrix=1.00D-06.
 Integral accuracy reduced to 1.0D-05 until final iterations.
 Initial convergence to 1.0D-05 achieved.  Increase integral accuracy.
 SCF Done:  E(RHF) =  -256.781973154     A.U. after   15 cycles
             Convg  =    0.6275D-08             -V/T =  2.0006
             S**2   =   0.0000
 Range of M.O.s used for correlation:     6   150
 NBasis=   150 NAE=    18 NBE=    18 NFC=     5 NFV=     0
 NROrb=    145 NOA=    13 NOB=    13 NVA=   132 NVB=   132

 **** Warning!!: The largest alpha MO coefficient is  0.37958733D+02

 Fully direct method using O(ONN) memory.
 JobTyp=1 Pass  1:  I=   6 to  18.
 Spin components of T(2) and E(2):
     alpha-alpha T2 =       0.3931954252D-01 E2=     -0.1216302470D+00
     alpha-beta  T2 =       0.1992288911D+00 E2=     -0.6632301070D+00
     beta-beta   T2 =       0.3931954252D-01 E2=     -0.1216302470D+00
 ANorm=    0.1130428227D+01
 E2 =    -0.9064906010D+00 EUMP2 =    -0.25768846375503D+03
          Differentiating once with respect to electric field.
                with respect to dipole field.
          Differentiating once with respect to nuclear coordinates.
          There are   1 degrees of freedom in the 1st order CPHF.
 Petite list used in FoFDir.
 MinBra= 0 MaxBra= 3 Meth= 1.
 IRaf=       0 NMat=   1 IRICut=       1 DoRegI=T DoRafI=F ISym2E= 1 JSym2E=1.
   1 vectors were produced by pass  0.
 AX will form   1 AO Fock derivatives at one time.
   1 vectors were produced by pass  1.
   1 vectors were produced by pass  2.
   1 vectors were produced by pass  3.
   1 vectors were produced by pass  4.
   1 vectors were produced by pass  5.
   1 vectors were produced by pass  6.
   1 vectors were produced by pass  7.
   1 vectors were produced by pass  8.
   1 vectors were produced by pass  9.
   1 vectors were produced by pass 10.
   1 vectors were produced by pass 11.
   1 vectors were produced by pass 12.
   1 vectors were produced by pass 13.
   1 vectors were produced by pass 14.
   1 vectors were produced by pass 15.
 Inv2:  IOpt= 1 Iter= 1 AM= 3.84D-16 Conv= 1.00D-12.
 Inverted reduced A of dimension  16 with in-core refinement.

 **********************************************************************

            Population analysis using the SCF density.

 **********************************************************************

 Orbital Symmetries:
       Occupied  (A') (A') (A') (A') (A') (A') (A') (A') (A') (A')
                 (A') (A") (A') (A') (A') (A') (A") (A")
       Virtual   (A") (A') (A") (A') (A') (A') (A') (A') (A') (A")
                 (A') (A') (A') (A') (A') (A") (A') (A') (A") (A")
                 (A') (A') (A') (A") (A") (A') (A") (A') (A") (A')
                 (A') (A") (A") (A') (A') (A') (A') (A") (A") (A')
                 (A') (A") (A') (A") (A') (A') (A') (A') (A") (A')
                 (A') (A') (A') (A') (A') (A") (A') (A') (A") (A')
                 (A') (A") (A') (A") (A') (A") (A') (A") (A') (A')
                 (A") (A') (A') (A") (A') (A") (A') (A') (A") (A')
                 (A') (A') (A") (A') (A') (A") (A') (A') (A") (A")
                 (A") (A') (A') (A") (A") (A") (A') (A") (A") (A')
                 (A") (A') (A") (A') (A') (A") (A") (A') (A") (A')
                 (A") (A') (A') (A') (A') (A') (A') (A') (A") (A')
                 (A') (A') (A') (A') (A') (A') (A') (A') (A') (A')
                 (A') (A')
  The electronic state is 1-A'.
 Alpha  occ. eigenvalues --  -15.67696 -15.65533 -15.63718 -15.59500 -11.33098
 Alpha  occ. eigenvalues --   -1.51415  -1.26067  -1.20372  -0.90895  -0.89101
 Alpha  occ. eigenvalues --   -0.80412  -0.68587  -0.67869  -0.56878  -0.47116
 Alpha  occ. eigenvalues --   -0.46054  -0.45443  -0.42014
 Alpha virt. eigenvalues --    0.15448   0.20226   0.20368   0.25786   0.36209
 Alpha virt. eigenvalues --    0.39109   0.43047   0.47994   0.59677   0.65004
 Alpha virt. eigenvalues --    0.65539   0.67618   0.73904   0.76345   0.77254
 Alpha virt. eigenvalues --    0.80908   0.83486   0.84630   0.87324   0.91303
 Alpha virt. eigenvalues --    0.92456   0.95233   0.99231   1.00952   1.03521
 Alpha virt. eigenvalues --    1.06620   1.08043   1.09301   1.09895   1.12664
 Alpha virt. eigenvalues --    1.19971   1.31196   1.32401   1.32860   1.47575
 Alpha virt. eigenvalues --    1.49322   1.52105   1.60811   1.61983   1.68113
 Alpha virt. eigenvalues --    1.73547   1.74592   1.81405   1.87782   1.88159
 Alpha virt. eigenvalues --    1.90826   1.96010   1.98448   2.04962   2.07394
 Alpha virt. eigenvalues --    2.22387   2.24112   2.33957   2.42113   2.48979
 Alpha virt. eigenvalues --    2.52559   2.64914   2.77316   2.88791   3.11888
 Alpha virt. eigenvalues --    3.22891   3.23294   3.26087   3.32404   3.40429
 Alpha virt. eigenvalues --    3.43711   3.47207   3.54682   3.57863   3.64853
 Alpha virt. eigenvalues --    3.69371   3.71713   3.74249   3.77409   3.83339
 Alpha virt. eigenvalues --    3.84746   3.95640   3.98886   4.08073   4.09624
 Alpha virt. eigenvalues --    4.16185   4.22521   4.30930   4.31836   4.39864
 Alpha virt. eigenvalues --    4.41620   4.43047   4.45172   4.54014   4.56289
 Alpha virt. eigenvalues --    4.59863   4.62087   4.66028   4.72760   4.81442
 Alpha virt. eigenvalues --    4.86538   4.90446   4.92356   4.94664   4.95649
 Alpha virt. eigenvalues --    4.96288   4.99105   5.00259   5.02619   5.08172
 Alpha virt. eigenvalues --    5.22743   5.24589   5.28743   5.29734   5.39612
 Alpha virt. eigenvalues --    5.41502   5.46638   5.49471   5.62399   5.67989
 Alpha virt. eigenvalues --    5.79067   5.90985   5.96115   5.97776   6.04670
 Alpha virt. eigenvalues --    6.19444   6.25640   6.71616   6.86846   8.47258
 Alpha virt. eigenvalues --   10.82029  11.88240  11.90308  11.97229  12.09939
 Alpha virt. eigenvalues --   16.59598  19.75062
          Condensed to atoms (all electrons):
              1          2          3          4          5          6
  1  N    6.386334   0.487979  -0.115277   0.003425   0.424252  -0.120313
  2  N    0.487979   6.454908   0.347298  -0.021379  -0.116117  -0.108272
  3  N   -0.115277   0.347298   6.351756   0.371301  -0.056381   0.426934
  4  H    0.003425  -0.021379   0.371301   0.323683   0.004029  -0.025021
  5  N    0.424252  -0.116117  -0.056381   0.004029   6.449971   0.559179
  6  C   -0.120313  -0.108272   0.426934  -0.025021   0.559179   4.750258
  7  H    0.002593   0.001326  -0.029495   0.000129  -0.019099   0.413384
              7
  1  N    0.002593
  2  N    0.001326
  3  N   -0.029495
  4  H    0.000129
  5  N   -0.019099
  6  C    0.413384
  7  H    0.422140
 Total atomic charges:
              1
  1  N   -0.068994
  2  N   -0.045742
  3  N   -0.296135
  4  H    0.343833
  5  N   -0.245834
  6  C    0.103849
  7  H    0.209022
 Sum of Mulliken charges=   0.00000
 Atomic charges with hydrogens summed into heavy atoms:
              1
  1  N   -0.068994
  2  N   -0.045742
  3  N    0.047698
  4  H    0.000000
  5  N   -0.245834
  6  C    0.312872
  7  H    0.000000
 Sum of Mulliken charges=   0.00000
 Electronic spatial extent (au):  <R**2>=   243.9149
 Charge=     0.0000 electrons
 Dipole moment (Debye):
    X=     2.5969    Y=     4.8203    Z=     0.0000  Tot=     5.4753
 Quadrupole moment (Debye-Ang):
   XX=   -28.3126   YY=   -26.1259   ZZ=   -28.3224
   XY=     1.9391   XZ=     0.0000   YZ=     0.0000
 Octapole moment (Debye-Ang**2):
  XXX=    12.1767  YYY=    22.1768  ZZZ=     0.0000  XYY=    -0.7170
  XXY=     4.8164  XXZ=     0.0000  XZZ=    -0.5502  YZZ=     0.6004
  YYZ=     0.0000  XYZ=     0.0000
 Hexadecapole moment (Debye-Ang**3):
 XXXX=  -136.0069 YYYY=  -114.3097 ZZZZ=   -24.8642 XXXY=     6.6823
 XXXZ=     0.0000 YYYX=    -0.2238 YYYZ=     0.0000 ZZZX=     0.0000
 ZZZY=     0.0000 XXYY=   -51.4192 XXZZ=   -29.1394 YYZZ=   -27.6768
 XXYZ=     0.0000 YYXZ=     0.0000 ZZXY=     0.0115
 N-N= 1.698288360377D+02 E-N=-9.414150258697D+02  KE= 2.566287626533D+02
 Symmetry A'   KE= 2.476276229358D+02
 Symmetry A"   KE= 9.001139717571D+00
 ***** Axes restored to original set *****
 -------------------------------------------------------------------
 Center     Atomic                   Forces (Hartrees/Bohr)
 Number     Number              X              Y              Z
 -------------------------------------------------------------------
    1          7          -0.001578396   -0.059450372    0.000000000
    2          7          -0.037377515    0.051578605    0.000000000
    3          7           0.004036831    0.009825827    0.000000000
    4          1          -0.001490448    0.012706829    0.000000000
    5          7           0.010373196   -0.038948513    0.000000000
    6          6           0.020437164    0.021883908    0.000000000
    7          1           0.005599168    0.002403717    0.000000000
 -------------------------------------------------------------------
 Cartesian Forces:  Max     0.059450372 RMS     0.022285056

 GradGradGradGradGradGradGradGradGradGradGradGradGradGradGradGradGradGrad
 Berny optimization.
 Internal  Forces:  Max     0.062521015 RMS     0.016486481
 Search for a local minimum.
 Step number   1 out of a maximum of  36
 All quantities printed in internal units (Hartrees-Bohrs-Radians)
 Second derivative matrix not updated -- first step.
     Eigenvalues ---    0.02505   0.02639   0.02674   0.02834   0.16000
     Eigenvalues ---    0.16000   0.22605   0.24688   0.37515   0.48737
     Eigenvalues ---    0.50885   0.56605   0.58506   0.66912   0.78894
     Eigenvalues --- 1000.000001000.000001000.000001000.000001000.00000
     Eigenvalues --- 1000.000001000.000001000.000001000.000001000.00000
     Eigenvalues --- 1000.00000
 RFO step:  Lambda=-9.67530427D-03.
 Linear search not attempted -- first point.
 Iteration  1 RMS(Cart)=  0.02279047 RMS(Int)=  0.00005968
 Iteration  2 RMS(Cart)=  0.00004837 RMS(Int)=  0.00003547
 Iteration  3 RMS(Cart)=  0.00000000 RMS(Int)=  0.00003547
 Variable       Old X    -DE/DX   Delta X   Delta X   Delta X     New X
                                 (Linear)    (Quad)   (Total)
    R1        2.36623   0.06252   0.00000   0.07747   0.07751   2.44374
    R2        2.53473   0.02009   0.00000   0.03750   0.03755   2.57228
    R3        2.50608   0.02014   0.00000   0.03238   0.03236   2.53844
    R4        1.87862   0.01277   0.00000   0.02570   0.02570   1.90432
    R5        2.51367   0.02170   0.00000   0.03219   0.03214   2.54581
    R6        2.43647   0.03972   0.00000   0.05420   0.05419   2.49066
    R7        2.01777   0.00606   0.00000   0.01575   0.01575   2.03352
    A1        1.94380  -0.00430   0.00000  -0.00143  -0.00134   1.94246
    A2        1.86179  -0.00333   0.00000  -0.00594  -0.00593   1.85587
    A3        2.10759  -0.00259   0.00000  -0.00661  -0.00657   2.10102
    A4        1.88535   0.00386   0.00000   0.00545   0.00537   1.89072
    A5        2.29024  -0.00127   0.00000   0.00116   0.00120   2.29144
    A6        1.84604  -0.00163   0.00000  -0.00700  -0.00697   1.83907
    A7        1.88780   0.00541   0.00000   0.00893   0.00886   1.89666
    A8        2.18241  -0.00334   0.00000  -0.00822  -0.00819   2.17422
    A9        2.21298  -0.00207   0.00000  -0.00071  -0.00067   2.21231
    D1        0.00000   0.00000   0.00000   0.00000   0.00000   0.00000
    D2        0.00000   0.00000   0.00000   0.00000   0.00000   0.00000
    D3        3.14159   0.00000   0.00000   0.00000   0.00000   3.14159
    D4        0.00000   0.00000   0.00000   0.00000   0.00000   0.00000
    D5        0.00000   0.00000   0.00000   0.00000   0.00000   0.00000
    D6        3.14159   0.00000   0.00000   0.00000   0.00000   3.14159
    D7        3.14159   0.00000   0.00000   0.00000   0.00000   3.14159
    D8        0.00000   0.00000   0.00000   0.00000   0.00000   0.00000
    D9        0.00000   0.00000   0.00000   0.00000   0.00000   0.00000
   D10        3.14159   0.00000   0.00000   0.00000   0.00000   3.14159
         Item               Value     Threshold  Converged?
 Maximum Force            0.062521     0.000450     NO 
 RMS     Force            0.016486     0.000300     NO 
 Maximum Displacement     0.057018     0.001800     NO 
 RMS     Displacement     0.022780     0.001200     NO 
 Predicted change in Energy=-4.772906D-03
 GradGradGradGradGradGradGradGradGradGradGradGradGradGradGradGradGradGrad

                          Input orientation:                          
 ---------------------------------------------------------------------
 Center     Atomic     Atomic              Coordinates (Angstroms)
 Number     Number      Type              X           Y           Z
 ---------------------------------------------------------------------
    1          7             0       -0.727557   -0.930078    0.000000
    2          7             0       -1.116874    0.303099    0.000000
    3          7             0       -0.001336    1.051420    0.000000
    4          1             0       -0.062414    2.057289    0.000000
    5          7             0        0.630684   -1.019668    0.000000
    6          6             0        1.062931    0.225437    0.000000
    7          1             0        2.088589    0.551016    0.000000
 ---------------------------------------------------------------------
                    Distance matrix (angstroms):
                    1          2          3          4          5
     1  N    0.000000
     2  N    1.293172   0.000000
     3  N    2.110387   1.343283   0.000000
     4  H    3.060520   2.046721   1.007722   0.000000
     5  N    1.361192   2.191727   2.165376   3.154053   0.000000
     6  C    2.130977   2.181188   1.347186   2.149904   1.318000
     7  H    3.181874   3.215036   2.148997   2.625962   2.143020
                    6          7
     6  C    0.000000
     7  H    1.076093   0.000000
 Stoichiometry    CH2N4
 Framework group  CS[SG(CH2N4)]
 Deg. of freedom   11
 Full point group                 CS      NOp   2
 Largest Abelian subgroup         CS      NOp   2
 Largest concise Abelian subgroup C1      NOp   1
                         Standard orientation:                         
 ---------------------------------------------------------------------
 Center     Atomic     Atomic              Coordinates (Angstroms)
 Number     Number      Type              X           Y           Z
 ---------------------------------------------------------------------
    1          7             0       -0.723423   -0.925388    0.000000
    2          7             0       -1.114480    0.307238    0.000000
    3          7             0        0.000000    1.057134    0.000000
    4          1             0       -0.062499    2.062916    0.000000
    5          7             0        0.634943   -1.013059    0.000000
    6          6             0        1.065432    0.232654    0.000000
    7          1             0        2.090629    0.559682    0.000000
 ---------------------------------------------------------------------
 Rotational constants (GHZ):     10.5441035     10.3350076      5.2192543
 Isotopes: N-14,N-14,N-14,H-1,N-14,C-12,H-1
 Standard basis: 6-31G(2df,p) (6D, 7F)
 There are   103 symmetry adapted basis functions of A'  symmetry.
 There are    47 symmetry adapted basis functions of A"  symmetry.
 Crude estimate of integral set expansion from redundant integrals=1.000.
 Integral buffers will be    262144 words long.
 Raffenetti 1 integral format.
 Two-electron integral symmetry is turned on.
   150 basis functions      234 primitive gaussians
    18 alpha electrons       18 beta electrons
       nuclear repulsion energy       166.7436949402 Hartrees.
 One-electron integrals computed using PRISM.
 NBasis=   150 RedAO= T  NBF=   103    47
 NBsUse=   150 1.00D-04 NBFU=   103    47
 Initial guess read from the read-write file:
 Initial guess orbital symmetries:
       Occupied  (A') (A') (A') (A') (A') (A') (A') (A') (A') (A')
                 (A') (A") (A') (A') (A') (A') (A") (A")
       Virtual   (A") (A') (A") (A') (A') (A') (A') (A') (A') (A")
                 (A') (A') (A') (A') (A') (A") (A') (A') (A") (A")
                 (A') (A') (A') (A") (A") (A') (A") (A') (A") (A')
                 (A') (A") (A") (A') (A') (A') (A') (A") (A") (A')
                 (A') (A") (A') (A") (A') (A') (A') (A') (A") (A')
                 (A') (A') (A') (A') (A') (A") (A') (A') (A") (A')
                 (A') (A") (A') (A") (A') (A") (A') (A") (A') (A')
                 (A") (A') (A') (A") (A') (A") (A') (A') (A") (A')
                 (A') (A') (A") (A') (A') (A") (A') (A') (A") (A")
                 (A") (A') (A') (A") (A") (A") (A') (A") (A") (A')
                 (A") (A') (A") (A') (A') (A") (A") (A') (A") (A')
                 (A") (A') (A') (A') (A') (A') (A') (A') (A") (A')
                 (A') (A') (A') (A') (A') (A') (A') (A') (A') (A')
                 (A') (A')
 Requested convergence on RMS density matrix=1.00D-08 within  64 cycles.
 Requested convergence on MAX density matrix=1.00D-06.
 Integral accuracy reduced to 1.0D-05 until final iterations.
 Initial convergence to 1.0D-05 achieved.  Increase integral accuracy.
 SCF Done:  E(RHF) =  -256.776628604     A.U. after   13 cycles
             Convg  =    0.7997D-08             -V/T =  2.0022
             S**2   =   0.0000
 Range of M.O.s used for correlation:     6   150
 NBasis=   150 NAE=    18 NBE=    18 NFC=     5 NFV=     0
 NROrb=    145 NOA=    13 NOB=    13 NVA=   132 NVB=   132

 **** Warning!!: The largest alpha MO coefficient is  0.36622663D+02

 Fully direct method using O(ONN) memory.
 JobTyp=1 Pass  1:  I=   6 to  18.
 Spin components of T(2) and E(2):
     alpha-alpha T2 =       0.4092633285D-01 E2=     -0.1230223760D+00
     alpha-beta  T2 =       0.2074538036D+00 E2=     -0.6712116051D+00
     beta-beta   T2 =       0.4092633285D-01 E2=     -0.1230223760D+00
 ANorm=    0.1135476318D+01
 E2 =    -0.9172563571D+00 EUMP2 =    -0.25769388496070D+03
          Differentiating once with respect to electric field.
                with respect to dipole field.
          Differentiating once with respect to nuclear coordinates.
          There are   1 degrees of freedom in the 1st order CPHF.
 Petite list used in FoFDir.
 MinBra= 0 MaxBra= 3 Meth= 1.
 IRaf=       0 NMat=   1 IRICut=       1 DoRegI=T DoRafI=F ISym2E= 1 JSym2E=1.
   1 vectors were produced by pass  0.
 AX will form   1 AO Fock derivatives at one time.
   1 vectors were produced by pass  1.
   1 vectors were produced by pass  2.
   1 vectors were produced by pass  3.
   1 vectors were produced by pass  4.
   1 vectors were produced by pass  5.
   1 vectors were produced by pass  6.
   1 vectors were produced by pass  7.
   1 vectors were produced by pass  8.
   1 vectors were produced by pass  9.
   1 vectors were produced by pass 10.
   1 vectors were produced by pass 11.
   1 vectors were produced by pass 12.
   1 vectors were produced by pass 13.
   1 vectors were produced by pass 14.
   1 vectors were produced by pass 15.
 Inv2:  IOpt= 1 Iter= 1 AM= 3.94D-16 Conv= 1.00D-12.
 Inverted reduced A of dimension  16 with in-core refinement.
 ***** Axes restored to original set *****
 -------------------------------------------------------------------
 Center     Atomic                   Forces (Hartrees/Bohr)
 Number     Number              X              Y              Z
 -------------------------------------------------------------------
    1          7           0.004937200   -0.015866952    0.000000000
    2          7          -0.008214840    0.017888046    0.000000000
    3          7           0.002472627   -0.006138646    0.000000000
    4          1          -0.000229763    0.000206393    0.000000000
    5          7          -0.001161145   -0.002082770    0.000000000
    6          6           0.002284683    0.005918838    0.000000000
    7          1          -0.000088762    0.000075091    0.000000000
 -------------------------------------------------------------------
 Cartesian Forces:  Max     0.017888046 RMS     0.005989858

 GradGradGradGradGradGradGradGradGradGradGradGradGradGradGradGradGradGrad
 Berny optimization.
 Internal  Forces:  Max     0.015633238 RMS     0.003448328
 Search for a local minimum.
 Step number   2 out of a maximum of  36
 All quantities printed in internal units (Hartrees-Bohrs-Radians)
 Update second derivatives using information from points  1  2
 Trust test= 1.14D+00 RLast= 1.17D-01 DXMaxT set to 3.50D-01
     Eigenvalues ---    0.02506   0.02640   0.02677   0.02835   0.15993
     Eigenvalues ---    0.16000   0.22490   0.24611   0.37593   0.48780
     Eigenvalues ---    0.50268   0.56205   0.61085   0.65034   0.69154
     Eigenvalues --- 1000.000001000.000001000.000001000.000001000.00000
     Eigenvalues --- 1000.000001000.000001000.000001000.000001000.00000
     Eigenvalues --- 1000.00000
 RFO step:  Lambda=-3.75861950D-04.
 Quartic linear search produced a step of  0.20363.
 Iteration  1 RMS(Cart)=  0.00647936 RMS(Int)=  0.00004036
 Iteration  2 RMS(Cart)=  0.00003623 RMS(Int)=  0.00001444
 Iteration  3 RMS(Cart)=  0.00000000 RMS(Int)=  0.00001444
 Variable       Old X    -DE/DX   Delta X   Delta X   Delta X     New X
                                 (Linear)    (Quad)   (Total)
    R1        2.44374   0.01563   0.01578   0.01273   0.02853   2.47227
    R2        2.57228   0.00049   0.00765  -0.00282   0.00482   2.57710
    R3        2.53844   0.00044   0.00659  -0.00384   0.00276   2.54120
    R4        1.90432   0.00022   0.00523  -0.00298   0.00225   1.90657
    R5        2.54581  -0.00129   0.00654  -0.00921  -0.00266   2.54315
    R6        2.49066   0.00368   0.01103  -0.00257   0.00845   2.49911
    R7        2.03352  -0.00006   0.00321  -0.00223   0.00098   2.03450
    A1        1.94246  -0.00185  -0.00027  -0.00025  -0.00052   1.94194
    A2        1.85587  -0.00391  -0.00121  -0.01368  -0.01485   1.84102
    A3        2.10102  -0.00238  -0.00134  -0.00976  -0.01111   2.08991
    A4        1.89072   0.00435   0.00109   0.01706   0.01816   1.90889
    A5        2.29144  -0.00197   0.00024  -0.00729  -0.00705   2.28439
    A6        1.83907   0.00136  -0.00142   0.00617   0.00471   1.84378
    A7        1.89666   0.00005   0.00180  -0.00929  -0.00750   1.88915
    A8        2.17422  -0.00012  -0.00167   0.00419   0.00254   2.17676
    A9        2.21231   0.00008  -0.00014   0.00509   0.00497   2.21728
    D1        0.00000   0.00000   0.00000   0.00000   0.00000   0.00000
    D2        0.00000   0.00000   0.00000   0.00000   0.00000   0.00000
    D3        3.14159   0.00000   0.00000   0.00000   0.00000   3.14159
    D4        0.00000   0.00000   0.00000   0.00000   0.00000   0.00000
    D5        0.00000   0.00000   0.00000   0.00000   0.00000   0.00000
    D6        3.14159   0.00000   0.00000   0.00000   0.00000   3.14159
    D7        3.14159   0.00000   0.00000   0.00000   0.00000   3.14159
    D8        0.00000   0.00000   0.00000   0.00000   0.00000   0.00000
    D9        0.00000   0.00000   0.00000   0.00000   0.00000   0.00000
   D10        3.14159   0.00000   0.00000   0.00000   0.00000   3.14159
         Item               Value     Threshold  Converged?
 Maximum Force            0.015633     0.000450     NO 
 RMS     Force            0.003448     0.000300     NO 
 Maximum Displacement     0.018249     0.001800     NO 
 RMS     Displacement     0.006475     0.001200     NO 
 Predicted change in Energy=-3.579826D-04
 GradGradGradGradGradGradGradGradGradGradGradGradGradGradGradGradGradGrad

                          Input orientation:                          
 ---------------------------------------------------------------------
 Center     Atomic     Atomic              Coordinates (Angstroms)
 Number     Number      Type              X           Y           Z
 ---------------------------------------------------------------------
    1          7             0       -0.726918   -0.929603    0.000000
    2          7             0       -1.123702    0.317045    0.000000
    3          7             0        0.002332    1.052156    0.000000
    4          1             0       -0.057413    2.059300    0.000000
    5          7             0        0.634119   -1.015460    0.000000
    6          6             0        1.070136    0.233066    0.000000
    7          1             0        2.095267    0.562002    0.000000
 ---------------------------------------------------------------------
                    Distance matrix (angstroms):
                    1          2          3          4          5
     1  N    0.000000
     2  N    1.308269   0.000000
     3  N    2.111676   1.344746   0.000000
     4  H    3.062969   2.042651   1.008914   0.000000
     5  N    1.363743   2.205789   2.161988   3.151565   0.000000
     6  C    2.140374   2.195445   1.345776   2.146275   1.322470
     7  H    3.192118   3.228276   2.149564   2.622199   2.150196
                    6          7
     6  C    0.000000
     7  H    1.076612   0.000000
 Stoichiometry    CH2N4
 Framework group  CS[SG(CH2N4)]
 Deg. of freedom   11
 Full point group                 CS      NOp   2
 Largest Abelian subgroup         CS      NOp   2
 Largest concise Abelian subgroup C1      NOp   1
                         Standard orientation:                         
 ---------------------------------------------------------------------
 Center     Atomic     Atomic              Coordinates (Angstroms)
 Number     Number      Type              X           Y           Z
 ---------------------------------------------------------------------
    1          7             0       -0.722736   -0.931667    0.000000
    2          7             0       -1.123613    0.313670    0.000000
    3          7             0        0.000000    1.052476    0.000000
    4          1             0       -0.063053    2.059419    0.000000
    5          7             0        0.638576   -1.013053    0.000000
    6          6             0        1.070489    0.236899    0.000000
    7          1             0        2.094534    0.569202    0.000000
 ---------------------------------------------------------------------
 Rotational constants (GHZ):     10.4919894     10.2623461      5.1879486
 Isotopes: N-14,N-14,N-14,H-1,N-14,C-12,H-1
 Standard basis: 6-31G(2df,p) (6D, 7F)
 There are   103 symmetry adapted basis functions of A'  symmetry.
 There are    47 symmetry adapted basis functions of A"  symmetry.
 Crude estimate of integral set expansion from redundant integrals=1.000.
 Integral buffers will be    262144 words long.
 Raffenetti 1 integral format.
 Two-electron integral symmetry is turned on.
   150 basis functions      234 primitive gaussians
    18 alpha electrons       18 beta electrons
       nuclear repulsion energy       166.2257457858 Hartrees.
 One-electron integrals computed using PRISM.
 NBasis=   150 RedAO= T  NBF=   103    47
 NBsUse=   150 1.00D-04 NBFU=   103    47
 Initial guess read from the read-write file:
 Initial guess orbital symmetries:
       Occupied  (A') (A') (A') (A') (A') (A') (A') (A') (A') (A')
                 (A') (A") (A') (A') (A') (A') (A") (A")
       Virtual   (A") (A") (A') (A') (A') (A') (A') (A') (A') (A')
                 (A") (A') (A') (A') (A') (A") (A') (A') (A") (A")
                 (A') (A') (A') (A") (A") (A') (A') (A") (A") (A')
                 (A') (A") (A") (A') (A') (A') (A') (A") (A") (A')
                 (A') (A") (A') (A") (A') (A') (A') (A') (A") (A')
                 (A') (A') (A') (A') (A') (A") (A') (A') (A") (A')
                 (A') (A") (A') (A") (A') (A') (A") (A") (A') (A')
                 (A") (A') (A') (A") (A') (A") (A') (A') (A') (A")
                 (A') (A') (A') (A") (A') (A') (A') (A") (A") (A')
                 (A") (A") (A') (A") (A") (A") (A') (A") (A') (A")
                 (A") (A') (A") (A') (A') (A") (A") (A") (A') (A")
                 (A') (A') (A') (A') (A') (A') (A') (A') (A") (A')
                 (A') (A') (A') (A') (A') (A') (A') (A') (A') (A')
                 (A') (A')
 Requested convergence on RMS density matrix=1.00D-08 within  64 cycles.
 Requested convergence on MAX density matrix=1.00D-06.
 SCF Done:  E(RHF) =  -256.774264030     A.U. after   12 cycles
             Convg  =    0.7871D-08             -V/T =  2.0025
             S**2   =   0.0000
 Range of M.O.s used for correlation:     6   150
 NBasis=   150 NAE=    18 NBE=    18 NFC=     5 NFV=     0
 NROrb=    145 NOA=    13 NOB=    13 NVA=   132 NVB=   132

 **** Warning!!: The largest alpha MO coefficient is  0.36347406D+02

 Fully direct method using O(ONN) memory.
 JobTyp=1 Pass  1:  I=   6 to  18.
 Spin components of T(2) and E(2):
     alpha-alpha T2 =       0.4133365958D-01 E2=     -0.1234373086D+00
     alpha-beta  T2 =       0.2093311947D+00 E2=     -0.6731081745D+00
     beta-beta   T2 =       0.4133365958D-01 E2=     -0.1234373086D+00
 ANorm=    0.1136661125D+01
 E2 =    -0.9199827917D+00 EUMP2 =    -0.25769424682218D+03
          Differentiating once with respect to electric field.
                with respect to dipole field.
          Differentiating once with respect to nuclear coordinates.
          There are   1 degrees of freedom in the 1st order CPHF.
 Petite list used in FoFDir.
 MinBra= 0 MaxBra= 3 Meth= 1.
 IRaf=       0 NMat=   1 IRICut=       1 DoRegI=T DoRafI=F ISym2E= 1 JSym2E=1.
   1 vectors were produced by pass  0.
 AX will form   1 AO Fock derivatives at one time.
   1 vectors were produced by pass  1.
   1 vectors were produced by pass  2.
   1 vectors were produced by pass  3.
   1 vectors were produced by pass  4.
   1 vectors were produced by pass  5.
   1 vectors were produced by pass  6.
   1 vectors were produced by pass  7.
   1 vectors were produced by pass  8.
   1 vectors were produced by pass  9.
   1 vectors were produced by pass 10.
   1 vectors were produced by pass 11.
   1 vectors were produced by pass 12.
   1 vectors were produced by pass 13.
   1 vectors were produced by pass 14.
   1 vectors were produced by pass 15.
 Inv2:  IOpt= 1 Iter= 1 AM= 4.90D-16 Conv= 1.00D-12.
 Inverted reduced A of dimension  16 with in-core refinement.
 ***** Axes restored to original set *****
 -------------------------------------------------------------------
 Center     Atomic                   Forces (Hartrees/Bohr)
 Number     Number              X              Y              Z
 -------------------------------------------------------------------
    1          7           0.004637676   -0.006514024    0.000000000
    2          7           0.002976265    0.005995930    0.000000000
    3          7          -0.000890619   -0.000397866    0.000000000
    4          1           0.000224458   -0.000417410    0.000000000
    5          7          -0.003824791    0.000331146    0.000000000
    6          6          -0.002590194    0.001162864    0.000000000
    7          1          -0.000532795   -0.000160640    0.000000000
 -------------------------------------------------------------------
 Cartesian Forces:  Max     0.006514024 RMS     0.002516949

 GradGradGradGradGradGradGradGradGradGradGradGradGradGradGradGradGradGrad
 Berny optimization.
 Internal  Forces:  Max     0.005168020 RMS     0.001669034
 Search for a local minimum.
 Step number   3 out of a maximum of  36
 All quantities printed in internal units (Hartrees-Bohrs-Radians)
 Update second derivatives using information from points  1  2  3
 Trust test= 1.01D+00 RLast= 4.20D-02 DXMaxT set to 3.50D-01
     Eigenvalues ---    0.02506   0.02637   0.02676   0.02836   0.15982
     Eigenvalues ---    0.16014   0.23829   0.28708   0.35460   0.37638
     Eigenvalues ---    0.49185   0.52481   0.58402   0.66240   0.73633
     Eigenvalues --- 1000.000001000.000001000.000001000.000001000.00000
     Eigenvalues --- 1000.000001000.000001000.000001000.000001000.00000
     Eigenvalues --- 1000.00000
 RFO step:  Lambda=-1.57486037D-04.
 Quartic linear search produced a step of  0.10899.
 Iteration  1 RMS(Cart)=  0.00369458 RMS(Int)=  0.00000534
 Iteration  2 RMS(Cart)=  0.00000403 RMS(Int)=  0.00000278
 Iteration  3 RMS(Cart)=  0.00000000 RMS(Int)=  0.00000278
 Variable       Old X    -DE/DX   Delta X   Delta X   Delta X     New X
                                 (Linear)    (Quad)   (Total)
    R1        2.47227   0.00517   0.00311   0.01189   0.01499   2.48727
    R2        2.57710  -0.00437   0.00053  -0.00693  -0.00640   2.57070
    R3        2.54120  -0.00314   0.00030  -0.00471  -0.00442   2.53679
    R4        1.90657  -0.00043   0.00025  -0.00021   0.00004   1.90661
    R5        2.54315  -0.00218  -0.00029  -0.00420  -0.00449   2.53866
    R6        2.49911   0.00066   0.00092   0.00266   0.00358   2.50269
    R7        2.03450  -0.00056   0.00011  -0.00120  -0.00109   2.03341
    A1        1.94194  -0.00198  -0.00006  -0.00660  -0.00665   1.93529
    A2        1.84102   0.00122  -0.00162   0.00543   0.00381   1.84483
    A3        2.08991   0.00077  -0.00121   0.00335   0.00214   2.09205
    A4        1.90889  -0.00116   0.00198  -0.00475  -0.00277   1.90611
    A5        2.28439   0.00039  -0.00077   0.00140   0.00063   2.28502
    A6        1.84378   0.00040   0.00051   0.00135   0.00187   1.84565
    A7        1.88915   0.00151  -0.00082   0.00457   0.00375   1.89290
    A8        2.17676  -0.00076   0.00028  -0.00259  -0.00231   2.17444
    A9        2.21728  -0.00074   0.00054  -0.00198  -0.00143   2.21584
    D1        0.00000   0.00000   0.00000   0.00000   0.00000   0.00000
    D2        0.00000   0.00000   0.00000   0.00000   0.00000   0.00000
    D3        3.14159   0.00000   0.00000   0.00000   0.00000   3.14159
    D4        0.00000   0.00000   0.00000   0.00000   0.00000   0.00000
    D5        0.00000   0.00000   0.00000   0.00000   0.00000   0.00000
    D6        3.14159   0.00000   0.00000   0.00000   0.00000   3.14159
    D7        3.14159   0.00000   0.00000   0.00000   0.00000   3.14159
    D8        0.00000   0.00000   0.00000   0.00000   0.00000   0.00000
    D9        0.00000   0.00000   0.00000   0.00000   0.00000   0.00000
   D10        3.14159   0.00000   0.00000   0.00000   0.00000   3.14159
         Item               Value     Threshold  Converged?
 Maximum Force            0.005168     0.000450     NO 
 RMS     Force            0.001669     0.000300     NO 
 Maximum Displacement     0.012193     0.001800     NO 
 RMS     Displacement     0.003695     0.001200     NO 
 Predicted change in Energy=-8.230996D-05
 GradGradGradGradGradGradGradGradGradGradGradGradGradGradGradGradGradGrad

                          Input orientation:                          
 ---------------------------------------------------------------------
 Center     Atomic     Atomic              Coordinates (Angstroms)
 Number     Number      Type              X           Y           Z
 ---------------------------------------------------------------------
    1          7             0       -0.724197   -0.935740    0.000000
    2          7             0       -1.119392    0.319734    0.000000
    3          7             0        0.004228    1.054269    0.000000
    4          1             0       -0.053993    2.061522    0.000000
    5          7             0        0.633748   -1.016676    0.000000
    6          6             0        1.068388    0.234336    0.000000
    7          1             0        2.092916    0.563266    0.000000
 ---------------------------------------------------------------------
                    Distance matrix (angstroms):
                    1          2          3          4          5
     1  N    0.000000
     2  N    1.316204   0.000000
     3  N    2.119136   1.342410   0.000000
     4  H    3.071279   2.041789   1.008934   0.000000
     5  N    1.360354   2.204425   2.164511   3.154091   0.000000
     6  C    2.140664   2.189446   1.343401   2.144376   1.324365
     7  H    3.191104   3.221526   2.145624   2.618012   2.150672
                    6          7
     6  C    0.000000
     7  H    1.076035   0.000000
 Stoichiometry    CH2N4
 Framework group  CS[SG(CH2N4)]
 Deg. of freedom   11
 Full point group                 CS      NOp   2
 Largest Abelian subgroup         CS      NOp   2
 Largest concise Abelian subgroup C1      NOp   1
                         Standard orientation:                         
 ---------------------------------------------------------------------
 Center     Atomic     Atomic              Coordinates (Angstroms)
 Number     Number      Type              X           Y           Z
 ---------------------------------------------------------------------
    1          7             0       -0.720965   -0.937945    0.000000
    2          7             0       -1.120860    0.316039    0.000000
    3          7             0        0.000000    1.054779    0.000000
    4          1             0       -0.061994    2.061807    0.000000
    5          7             0        0.637273   -1.013793    0.000000
    6          6             0        1.067224    0.238838    0.000000
    7          1             0        2.090513    0.571604    0.000000
 ---------------------------------------------------------------------
 Rotational constants (GHZ):     10.4788319     10.2642555      5.1852169
 Isotopes: N-14,N-14,N-14,H-1,N-14,C-12,H-1
 Standard basis: 6-31G(2df,p) (6D, 7F)
 There are   103 symmetry adapted basis functions of A'  symmetry.
 There are    47 symmetry adapted basis functions of A"  symmetry.
 Crude estimate of integral set expansion from redundant integrals=1.000.
 Integral buffers will be    262144 words long.
 Raffenetti 1 integral format.
 Two-electron integral symmetry is turned on.
   150 basis functions      234 primitive gaussians
    18 alpha electrons       18 beta electrons
       nuclear repulsion energy       166.1739710926 Hartrees.
 One-electron integrals computed using PRISM.
 NBasis=   150 RedAO= T  NBF=   103    47
 NBsUse=   150 1.00D-04 NBFU=   103    47
 Initial guess read from the read-write file:
 Initial guess orbital symmetries:
       Occupied  (A') (A') (A') (A') (A') (A') (A') (A') (A') (A')
                 (A') (A') (A") (A') (A') (A') (A") (A")
       Virtual   (A") (A") (A') (A') (A') (A') (A') (A') (A') (A')
                 (A") (A') (A') (A') (A') (A') (A") (A') (A") (A")
                 (A') (A') (A') (A") (A") (A') (A') (A") (A") (A')
                 (A') (A") (A") (A') (A') (A') (A') (A") (A") (A')
                 (A') (A") (A') (A") (A') (A') (A') (A') (A") (A')
                 (A') (A') (A') (A') (A') (A") (A') (A') (A") (A')
                 (A') (A") (A') (A") (A') (A') (A") (A") (A') (A')
                 (A") (A') (A') (A") (A') (A") (A') (A') (A') (A")
                 (A') (A') (A') (A') (A") (A') (A') (A") (A") (A')
                 (A") (A') (A") (A") (A") (A") (A') (A") (A') (A")
                 (A") (A') (A") (A') (A') (A") (A") (A") (A') (A")
                 (A') (A') (A') (A') (A') (A') (A') (A') (A") (A')
                 (A') (A') (A') (A') (A') (A') (A') (A') (A') (A')
                 (A') (A')
 Requested convergence on RMS density matrix=1.00D-08 within  64 cycles.
 Requested convergence on MAX density matrix=1.00D-06.
 SCF Done:  E(RHF) =  -256.773495453     A.U. after   11 cycles
             Convg  =    0.6659D-08             -V/T =  2.0025
             S**2   =   0.0000
 Range of M.O.s used for correlation:     6   150
 NBasis=   150 NAE=    18 NBE=    18 NFC=     5 NFV=     0
 NROrb=    145 NOA=    13 NOB=    13 NVA=   132 NVB=   132

 **** Warning!!: The largest alpha MO coefficient is  0.36146999D+02

 Fully direct method using O(ONN) memory.
 JobTyp=1 Pass  1:  I=   6 to  18.
 Spin components of T(2) and E(2):
     alpha-alpha T2 =       0.4145513372D-01 E2=     -0.1235963046D+00
     alpha-beta  T2 =       0.2098090649D+00 E2=     -0.6736322278D+00
     beta-beta   T2 =       0.4145513372D-01 E2=     -0.1235963046D+00
 ANorm=    0.1136978158D+01
 E2 =    -0.9208248370D+00 EUMP2 =    -0.25769432029018D+03
          Differentiating once with respect to electric field.
                with respect to dipole field.
          Differentiating once with respect to nuclear coordinates.
          There are   1 degrees of freedom in the 1st order CPHF.
 Petite list used in FoFDir.
 MinBra= 0 MaxBra= 3 Meth= 1.
 IRaf=       0 NMat=   1 IRICut=       1 DoRegI=T DoRafI=F ISym2E= 1 JSym2E=1.
   1 vectors were produced by pass  0.
 AX will form   1 AO Fock derivatives at one time.
   1 vectors were produced by pass  1.
   1 vectors were produced by pass  2.
   1 vectors were produced by pass  3.
   1 vectors were produced by pass  4.
   1 vectors were produced by pass  5.
   1 vectors were produced by pass  6.
   1 vectors were produced by pass  7.
   1 vectors were produced by pass  8.
   1 vectors were produced by pass  9.
   1 vectors were produced by pass 10.
   1 vectors were produced by pass 11.
   1 vectors were produced by pass 12.
   1 vectors were produced by pass 13.
   1 vectors were produced by pass 14.
   1 vectors were produced by pass 15.
 Inv2:  IOpt= 1 Iter= 1 AM= 4.20D-16 Conv= 1.00D-12.
 Inverted reduced A of dimension  16 with in-core refinement.
 ***** Axes restored to original set *****
 -------------------------------------------------------------------
 Center     Atomic                   Forces (Hartrees/Bohr)
 Number     Number              X              Y              Z
 -------------------------------------------------------------------
    1          7           0.003419734    0.001304454    0.000000000
    2          7          -0.000169246    0.001283203    0.000000000
    3          7          -0.001694205   -0.002496860    0.000000000
    4          1           0.000043955   -0.000509468    0.000000000
    5          7          -0.001969900    0.001578679    0.000000000
    6          6           0.000351259   -0.000914801    0.000000000
    7          1           0.000018402   -0.000245206    0.000000000
 -------------------------------------------------------------------
 Cartesian Forces:  Max     0.003419734 RMS     0.001231163

 GradGradGradGradGradGradGradGradGradGradGradGradGradGradGradGradGradGrad
 Berny optimization.
 Internal  Forces:  Max     0.002331165 RMS     0.000906941
 Search for a local minimum.
 Step number   4 out of a maximum of  36
 All quantities printed in internal units (Hartrees-Bohrs-Radians)
 Update second derivatives using information from points  1  2  3  4
 Trust test= 8.93D-01 RLast= 2.04D-02 DXMaxT set to 3.50D-01
     Eigenvalues ---    0.02506   0.02637   0.02678   0.02836   0.16001
     Eigenvalues ---    0.16025   0.22268   0.24747   0.37571   0.45686
     Eigenvalues ---    0.49086   0.52804   0.58386   0.63854   0.74090
     Eigenvalues --- 1000.000001000.000001000.000001000.000001000.00000
     Eigenvalues --- 1000.000001000.000001000.000001000.000001000.00000
     Eigenvalues --- 1000.00000
 RFO step:  Lambda=-4.05863623D-05.
 Quartic linear search produced a step of -0.09258.
 Iteration  1 RMS(Cart)=  0.00180305 RMS(Int)=  0.00000260
 Iteration  2 RMS(Cart)=  0.00000185 RMS(Int)=  0.00000144
 Iteration  3 RMS(Cart)=  0.00000000 RMS(Int)=  0.00000144
 Variable       Old X    -DE/DX   Delta X   Delta X   Delta X     New X
                                 (Linear)    (Quad)   (Total)
    R1        2.48727  -0.00050  -0.00139   0.00419   0.00280   2.49007
    R2        2.57070  -0.00233   0.00059  -0.00561  -0.00502   2.56567
    R3        2.53679  -0.00192   0.00041  -0.00398  -0.00357   2.53322
    R4        1.90661  -0.00051   0.00000  -0.00074  -0.00074   1.90587
    R5        2.53866   0.00008   0.00042  -0.00089  -0.00047   2.53819
    R6        2.50269  -0.00204  -0.00033  -0.00123  -0.00156   2.50113
    R7        2.03341  -0.00006   0.00010  -0.00034  -0.00024   2.03317
    A1        1.93529   0.00143   0.00062   0.00267   0.00328   1.93857
    A2        1.84483  -0.00173  -0.00035  -0.00458  -0.00492   1.83990
    A3        2.09205  -0.00052  -0.00020  -0.00141  -0.00161   2.09044
    A4        1.90611   0.00107   0.00026   0.00343   0.00369   1.90981
    A5        2.28502  -0.00055  -0.00006  -0.00203  -0.00209   2.28294
    A6        1.84565  -0.00007  -0.00017  -0.00025  -0.00043   1.84522
    A7        1.89290  -0.00070  -0.00035  -0.00127  -0.00162   1.89128
    A8        2.17444   0.00059   0.00021   0.00184   0.00205   2.17649
    A9        2.21584   0.00011   0.00013  -0.00056  -0.00043   2.21541
    D1        0.00000   0.00000   0.00000   0.00000   0.00000   0.00000
    D2        0.00000   0.00000   0.00000   0.00000   0.00000   0.00000
    D3        3.14159   0.00000   0.00000   0.00000   0.00000   3.14159
    D4        0.00000   0.00000   0.00000   0.00000   0.00000   0.00000
    D5        0.00000   0.00000   0.00000   0.00000   0.00000   0.00000
    D6        3.14159   0.00000   0.00000   0.00000   0.00000   3.14159
    D7        3.14159   0.00000   0.00000   0.00000   0.00000   3.14159
    D8        0.00000   0.00000   0.00000   0.00000   0.00000   0.00000
    D9        0.00000   0.00000   0.00000   0.00000   0.00000   0.00000
   D10        3.14159   0.00000   0.00000   0.00000   0.00000   3.14159
         Item               Value     Threshold  Converged?
 Maximum Force            0.002331     0.000450     NO 
 RMS     Force            0.000907     0.000300     NO 
 Maximum Displacement     0.004911     0.001800     NO 
 RMS     Displacement     0.001804     0.001200     NO 
 Predicted change in Energy=-2.106410D-05
 GradGradGradGradGradGradGradGradGradGradGradGradGradGradGradGradGradGrad

                          Input orientation:                          
 ---------------------------------------------------------------------
 Center     Atomic     Atomic              Coordinates (Angstroms)
 Number     Number      Type              X           Y           Z
 ---------------------------------------------------------------------
    1          7             0       -0.721875   -0.933635    0.000000
    2          7             0       -1.120796    0.322215    0.000000
    3          7             0        0.002937    1.053120    0.000000
    4          1             0       -0.054553    2.060021    0.000000
    5          7             0        0.633362   -1.015318    0.000000
    6          6             0        1.068030    0.234810    0.000000
    7          1             0        2.092656    0.563014    0.000000
 ---------------------------------------------------------------------
                    Distance matrix (angstroms):
                    1          2          3          4          5
     1  N    0.000000
     2  N    1.317687   0.000000
     3  N    2.114840   1.340521   0.000000
     4  H    3.067132   2.038834   1.008541   0.000000
     5  N    1.357696   2.205916   2.162376   3.151339   0.000000
     6  C    2.137528   2.190570   1.343151   2.142799   1.323540
     7  H    3.187717   3.222461   2.146423   2.617544   2.149574
                    6          7
     6  C    0.000000
     7  H    1.075907   0.000000
 Stoichiometry    CH2N4
 Framework group  CS[SG(CH2N4)]
 Deg. of freedom   11
 Full point group                 CS      NOp   2
 Largest Abelian subgroup         CS      NOp   2
 Largest concise Abelian subgroup C1      NOp   1
                         Standard orientation:                         
 ---------------------------------------------------------------------
 Center     Atomic     Atomic              Coordinates (Angstroms)
 Number     Number      Type              X           Y           Z
 ---------------------------------------------------------------------
    1          7             0       -0.719354   -0.936074    0.000000
    2          7             0       -1.121722    0.318676    0.000000
    3          7             0        0.000000    1.052663    0.000000
    4          1             0       -0.060254    2.059403    0.000000
    5          7             0        0.636102   -1.014036    0.000000
    6          6             0        1.067336    0.237281    0.000000
    7          1             0        2.091057    0.568297    0.000000
 ---------------------------------------------------------------------
 Rotational constants (GHZ):     10.5098404     10.2606478      5.1918746
 Isotopes: N-14,N-14,N-14,H-1,N-14,C-12,H-1
 Standard basis: 6-31G(2df,p) (6D, 7F)
 There are   103 symmetry adapted basis functions of A'  symmetry.
 There are    47 symmetry adapted basis functions of A"  symmetry.
 Crude estimate of integral set expansion from redundant integrals=1.000.
 Integral buffers will be    262144 words long.
 Raffenetti 1 integral format.
 Two-electron integral symmetry is turned on.
   150 basis functions      234 primitive gaussians
    18 alpha electrons       18 beta electrons
       nuclear repulsion energy       166.2779849263 Hartrees.
 One-electron integrals computed using PRISM.
 NBasis=   150 RedAO= T  NBF=   103    47
 NBsUse=   150 1.00D-04 NBFU=   103    47
 Initial guess read from the read-write file:
 Initial guess orbital symmetries:
       Occupied  (A') (A') (A') (A') (A') (A') (A') (A') (A') (A')
                 (A') (A') (A") (A') (A') (A') (A") (A")
       Virtual   (A") (A") (A') (A') (A') (A') (A') (A') (A') (A')
                 (A") (A') (A') (A') (A') (A') (A") (A') (A") (A")
                 (A') (A') (A') (A") (A") (A') (A') (A") (A") (A')
                 (A') (A") (A") (A') (A') (A') (A') (A") (A") (A')
                 (A') (A") (A') (A") (A') (A') (A') (A') (A") (A')
                 (A') (A') (A') (A') (A') (A") (A') (A') (A") (A')
                 (A') (A") (A') (A") (A') (A') (A") (A") (A') (A')
                 (A") (A') (A') (A") (A') (A") (A') (A') (A') (A")
                 (A') (A') (A') (A') (A") (A') (A') (A") (A") (A')
                 (A") (A') (A") (A") (A") (A") (A') (A") (A') (A")
                 (A") (A') (A") (A') (A') (A") (A") (A') (A") (A")
                 (A') (A') (A') (A') (A') (A') (A') (A') (A") (A')
                 (A') (A') (A') (A') (A') (A') (A') (A') (A') (A')
                 (A') (A')
 Requested convergence on RMS density matrix=1.00D-08 within  64 cycles.
 Requested convergence on MAX density matrix=1.00D-06.
 SCF Done:  E(RHF) =  -256.773610430     A.U. after   10 cycles
             Convg  =    0.6127D-08             -V/T =  2.0025
             S**2   =   0.0000
 Range of M.O.s used for correlation:     6   150
 NBasis=   150 NAE=    18 NBE=    18 NFC=     5 NFV=     0
 NROrb=    145 NOA=    13 NOB=    13 NVA=   132 NVB=   132

 **** Warning!!: The largest alpha MO coefficient is  0.36173034D+02

 Fully direct method using O(ONN) memory.
 JobTyp=1 Pass  1:  I=   6 to  18.
 Spin components of T(2) and E(2):
     alpha-alpha T2 =       0.4143978029D-01 E2=     -0.1236082236D+00
     alpha-beta  T2 =       0.2096587731D+00 E2=     -0.6735150445D+00
     beta-beta   T2 =       0.4143978029D-01 E2=     -0.1236082236D+00
 ANorm=    0.1136898559D+01
 E2 =    -0.9207314918D+00 EUMP2 =    -0.25769434192214D+03
          Differentiating once with respect to electric field.
                with respect to dipole field.
          Differentiating once with respect to nuclear coordinates.
          There are   1 degrees of freedom in the 1st order CPHF.
 Petite list used in FoFDir.
 MinBra= 0 MaxBra= 3 Meth= 1.
 IRaf=       0 NMat=   1 IRICut=       1 DoRegI=T DoRafI=F ISym2E= 1 JSym2E=1.
   1 vectors were produced by pass  0.
 AX will form   1 AO Fock derivatives at one time.
   1 vectors were produced by pass  1.
   1 vectors were produced by pass  2.
   1 vectors were produced by pass  3.
   1 vectors were produced by pass  4.
   1 vectors were produced by pass  5.
   1 vectors were produced by pass  6.
   1 vectors were produced by pass  7.
   1 vectors were produced by pass  8.
   1 vectors were produced by pass  9.
   1 vectors were produced by pass 10.
   1 vectors were produced by pass 11.
   1 vectors were produced by pass 12.
   1 vectors were produced by pass 13.
   1 vectors were produced by pass 14.
   1 vectors were produced by pass 15.
 Inv2:  IOpt= 1 Iter= 1 AM= 3.45D-16 Conv= 1.00D-12.
 Inverted reduced A of dimension  16 with in-core refinement.
 ***** Axes restored to original set *****
 -------------------------------------------------------------------
 Center     Atomic                   Forces (Hartrees/Bohr)
 Number     Number              X              Y              Z
 -------------------------------------------------------------------
    1          7           0.000379193   -0.000010148    0.000000000
    2          7           0.001050269   -0.000708396    0.000000000
    3          7          -0.000735772   -0.000161122    0.000000000
    4          1           0.000164474   -0.000059170    0.000000000
    5          7          -0.001574900    0.001122237    0.000000000
    6          6           0.000699841   -0.000185581    0.000000000
    7          1           0.000016895    0.000002180    0.000000000
 -------------------------------------------------------------------
 Cartesian Forces:  Max     0.001574900 RMS     0.000561074

 GradGradGradGradGradGradGradGradGradGradGradGradGradGradGradGradGradGrad
 Berny optimization.
 Internal  Forces:  Max     0.001023060 RMS     0.000379161
 Search for a local minimum.
 Step number   5 out of a maximum of  36
 All quantities printed in internal units (Hartrees-Bohrs-Radians)
 Update second derivatives using information from points  1  2  3  4  5

 Trust test= 1.03D+00 RLast= 1.06D-02 DXMaxT set to 3.50D-01
     Eigenvalues ---    0.02506   0.02637   0.02677   0.02836   0.14896
     Eigenvalues ---    0.16071   0.17385   0.37567   0.39913   0.44823
     Eigenvalues ---    0.48957   0.51136   0.56697   0.60206   0.72999
     Eigenvalues --- 1000.000001000.000001000.000001000.000001000.00000
     Eigenvalues --- 1000.000001000.000001000.000001000.000001000.00000
     Eigenvalues --- 1000.00000
 RFO step:  Lambda=-1.07734037D-05.
 Quartic linear search produced a step of  0.02522.
 Iteration  1 RMS(Cart)=  0.00102766 RMS(Int)=  0.00000113
 Iteration  2 RMS(Cart)=  0.00000107 RMS(Int)=  0.00000047
 Iteration  3 RMS(Cart)=  0.00000000 RMS(Int)=  0.00000047
 Variable       Old X    -DE/DX   Delta X   Delta X   Delta X     New X
                                 (Linear)    (Quad)   (Total)
    R1        2.49007  -0.00074   0.00007  -0.00021  -0.00014   2.48992
    R2        2.56567  -0.00102  -0.00013  -0.00304  -0.00317   2.56250
    R3        2.53322  -0.00030  -0.00009  -0.00126  -0.00135   2.53187
    R4        1.90587  -0.00007  -0.00002  -0.00029  -0.00031   1.90556
    R5        2.53819  -0.00010  -0.00001  -0.00016  -0.00017   2.53802
    R6        2.50113  -0.00030  -0.00004  -0.00068  -0.00071   2.50041
    R7        2.03317   0.00002  -0.00001  -0.00001  -0.00002   2.03315
    A1        1.93857  -0.00053   0.00008  -0.00198  -0.00190   1.93666
    A2        1.83990   0.00048  -0.00012   0.00075   0.00062   1.84052
    A3        2.09044   0.00023  -0.00004   0.00068   0.00064   2.09108
    A4        1.90981  -0.00016   0.00009   0.00065   0.00074   1.91055
    A5        2.28294  -0.00007  -0.00005  -0.00133  -0.00138   2.28156
    A6        1.84522   0.00085  -0.00001   0.00324   0.00323   1.84845
    A7        1.89128  -0.00065  -0.00004  -0.00265  -0.00269   1.88859
    A8        2.17649   0.00033   0.00005   0.00161   0.00166   2.17815
    A9        2.21541   0.00032  -0.00001   0.00104   0.00103   2.21644
    D1        0.00000   0.00000   0.00000   0.00000   0.00000   0.00000
    D2        0.00000   0.00000   0.00000   0.00000   0.00000   0.00000
    D3        3.14159   0.00000   0.00000   0.00000   0.00000   3.14159
    D4        0.00000   0.00000   0.00000   0.00000   0.00000   0.00000
    D5        0.00000   0.00000   0.00000   0.00000   0.00000   0.00000
    D6        3.14159   0.00000   0.00000   0.00000   0.00000   3.14159
    D7        3.14159   0.00000   0.00000   0.00000   0.00000   3.14159
    D8        0.00000   0.00000   0.00000   0.00000   0.00000   0.00000
    D9        0.00000   0.00000   0.00000   0.00000   0.00000   0.00000
   D10        3.14159   0.00000   0.00000   0.00000   0.00000   3.14159
         Item               Value     Threshold  Converged?
 Maximum Force            0.001023     0.000450     NO 
 RMS     Force            0.000379     0.000300     NO 
 Maximum Displacement     0.003155     0.001800     NO 
 RMS     Displacement     0.001028     0.001200     YES
 Predicted change in Energy=-5.399409D-06
 GradGradGradGradGradGradGradGradGradGradGradGradGradGradGradGradGradGrad

                          Input orientation:                          
 ---------------------------------------------------------------------
 Center     Atomic     Atomic              Coordinates (Angstroms)
 Number     Number      Type              X           Y           Z
 ---------------------------------------------------------------------
    1          7             0       -0.721914   -0.934586    0.000000
    2          7             0       -1.120334    0.321344    0.000000
    3          7             0        0.002625    1.052128    0.000000
    4          1             0       -0.054453    2.058889    0.000000
    5          7             0        0.631771   -1.014109    0.000000
    6          6             0        1.068450    0.234918    0.000000
    7          1             0        2.093290    0.562422    0.000000
 ---------------------------------------------------------------------
                    Distance matrix (angstroms):
                    1          2          3          4          5
     1  N    0.000000
     2  N    1.317611   0.000000
     3  N    2.114707   1.339806   0.000000
     4  H    3.066984   2.038421   1.008378   0.000000
     5  N    1.356019   2.203022   2.159898   3.148685   0.000000
     6  C    2.138491   2.190490   1.343062   2.141911   1.323161
     7  H    3.188480   3.222654   2.147253   2.617674   2.149765
                    6          7
     6  C    0.000000
     7  H    1.075898   0.000000
 Stoichiometry    CH2N4
 Framework group  CS[SG(CH2N4)]
 Deg. of freedom   11
 Full point group                 CS      NOp   2
 Largest Abelian subgroup         CS      NOp   2
 Largest concise Abelian subgroup C1      NOp   1
                         Standard orientation:                         
 ---------------------------------------------------------------------
 Center     Atomic     Atomic              Coordinates (Angstroms)
 Number     Number      Type              X           Y           Z
 ---------------------------------------------------------------------
    1          7             0       -0.719295   -0.936605    0.000000
    2          7             0       -1.121027    0.318270    0.000000
    3          7             0        0.000000    1.052013    0.000000
    4          1             0       -0.059734    2.058620    0.000000
    5          7             0        0.634595   -1.012556    0.000000
    6          6             0        1.067978    0.237618    0.000000
    7          1             0        2.091950    0.567825    0.000000
 ---------------------------------------------------------------------
 Rotational constants (GHZ):     10.5064904     10.2810456      5.1962727
 Isotopes: N-14,N-14,N-14,H-1,N-14,C-12,H-1
 Standard basis: 6-31G(2df,p) (6D, 7F)
 There are   103 symmetry adapted basis functions of A'  symmetry.
 There are    47 symmetry adapted basis functions of A"  symmetry.
 Crude estimate of integral set expansion from redundant integrals=1.000.
 Integral buffers will be    262144 words long.
 Raffenetti 1 integral format.
 Two-electron integral symmetry is turned on.
   150 basis functions      234 primitive gaussians
    18 alpha electrons       18 beta electrons
       nuclear repulsion energy       166.3460814576 Hartrees.
 One-electron integrals computed using PRISM.
 NBasis=   150 RedAO= T  NBF=   103    47
 NBsUse=   150 1.00D-04 NBFU=   103    47
 Initial guess read from the read-write file:
 Initial guess orbital symmetries:
       Occupied  (A') (A') (A') (A') (A') (A') (A') (A') (A') (A')
                 (A') (A") (A') (A') (A') (A') (A") (A")
       Virtual   (A") (A") (A') (A') (A') (A') (A') (A') (A') (A')
                 (A") (A') (A') (A') (A') (A') (A") (A') (A") (A")
                 (A') (A') (A') (A") (A") (A') (A') (A") (A") (A')
                 (A') (A") (A") (A') (A') (A') (A') (A") (A") (A')
                 (A') (A") (A') (A") (A') (A') (A') (A') (A") (A')
                 (A') (A') (A') (A') (A') (A") (A') (A') (A") (A')
                 (A') (A") (A') (A") (A') (A') (A") (A") (A') (A')
                 (A") (A') (A') (A") (A') (A") (A') (A') (A') (A")
                 (A') (A') (A') (A') (A") (A') (A') (A") (A") (A')
                 (A") (A') (A") (A") (A") (A") (A') (A") (A') (A")
                 (A") (A') (A") (A') (A') (A") (A") (A') (A") (A")
                 (A') (A') (A') (A') (A') (A') (A') (A') (A") (A')
                 (A') (A') (A') (A') (A') (A') (A') (A') (A') (A')
                 (A') (A')
 Requested convergence on RMS density matrix=1.00D-08 within  64 cycles.
 Requested convergence on MAX density matrix=1.00D-06.
 SCF Done:  E(RHF) =  -256.773792808     A.U. after   10 cycles
             Convg  =    0.7288D-08             -V/T =  2.0025
             S**2   =   0.0000
 Range of M.O.s used for correlation:     6   150
 NBasis=   150 NAE=    18 NBE=    18 NFC=     5 NFV=     0
 NROrb=    145 NOA=    13 NOB=    13 NVA=   132 NVB=   132

 **** Warning!!: The largest alpha MO coefficient is  0.36164506D+02

 Fully direct method using O(ONN) memory.
 JobTyp=1 Pass  1:  I=   6 to  18.
 Spin components of T(2) and E(2):
     alpha-alpha T2 =       0.4141460668D-01 E2=     -0.1235945104D+00
     alpha-beta  T2 =       0.2095009603D+00 E2=     -0.6733644471D+00
     beta-beta   T2 =       0.4141460668D-01 E2=     -0.1235945104D+00
 ANorm=    0.1136807008D+01
 E2 =    -0.9205534680D+00 EUMP2 =    -0.25769434627642D+03
          Differentiating once with respect to electric field.
                with respect to dipole field.
          Differentiating once with respect to nuclear coordinates.
          There are   1 degrees of freedom in the 1st order CPHF.
 Petite list used in FoFDir.
 MinBra= 0 MaxBra= 3 Meth= 1.
 IRaf=       0 NMat=   1 IRICut=       1 DoRegI=T DoRafI=F ISym2E= 1 JSym2E=1.
   1 vectors were produced by pass  0.
 AX will form   1 AO Fock derivatives at one time.
   1 vectors were produced by pass  1.
   1 vectors were produced by pass  2.
   1 vectors were produced by pass  3.
   1 vectors were produced by pass  4.
   1 vectors were produced by pass  5.
   1 vectors were produced by pass  6.
   1 vectors were produced by pass  7.
   1 vectors were produced by pass  8.
   1 vectors were produced by pass  9.
   1 vectors were produced by pass 10.
   1 vectors were produced by pass 11.
   1 vectors were produced by pass 12.
   1 vectors were produced by pass 13.
   1 vectors were produced by pass 14.
   1 vectors were produced by pass 15.
 Inv2:  IOpt= 1 Iter= 1 AM= 7.25D-16 Conv= 1.00D-12.
 Inverted reduced A of dimension  16 with in-core refinement.
 ***** Axes restored to original set *****
 -------------------------------------------------------------------
 Center     Atomic                   Forces (Hartrees/Bohr)
 Number     Number              X              Y              Z
 -------------------------------------------------------------------
    1          7           0.000271079    0.000540429    0.000000000
    2          7           0.000087610   -0.000322068    0.000000000
    3          7          -0.000356328    0.000390492    0.000000000
    4          1          -0.000005398    0.000090652    0.000000000
    5          7          -0.000044940   -0.000502077    0.000000000
    6          6           0.000084501   -0.000192587    0.000000000
    7          1          -0.000036525   -0.000004841    0.000000000
 -------------------------------------------------------------------
 Cartesian Forces:  Max     0.000540429 RMS     0.000225128

 GradGradGradGradGradGradGradGradGradGradGradGradGradGradGradGradGradGrad
 Berny optimization.
 Internal  Forces:  Max     0.000414464 RMS     0.000161573
 Search for a local minimum.
 Step number   6 out of a maximum of  36
 All quantities printed in internal units (Hartrees-Bohrs-Radians)
 Update second derivatives using information from points  1  2  3  4  5
                                                        6
 Trust test= 8.06D-01 RLast= 6.39D-03 DXMaxT set to 3.50D-01
     Eigenvalues ---    0.02506   0.02637   0.02677   0.02836   0.15444
     Eigenvalues ---    0.16075   0.20686   0.37384   0.39453   0.41598
     Eigenvalues ---    0.48897   0.49483   0.57257   0.67345   0.74178
     Eigenvalues --- 1000.000001000.000001000.000001000.000001000.00000
     Eigenvalues --- 1000.000001000.000001000.000001000.000001000.00000
     Eigenvalues --- 1000.00000
 RFO step:  Lambda=-1.08601124D-06.
 Quartic linear search produced a step of -0.16329.
 Iteration  1 RMS(Cart)=  0.00033520 RMS(Int)=  0.00000013
 Iteration  2 RMS(Cart)=  0.00000009 RMS(Int)=  0.00000009
 Variable       Old X    -DE/DX   Delta X   Delta X   Delta X     New X
                                 (Linear)    (Quad)   (Total)
    R1        2.48992  -0.00023   0.00002  -0.00085  -0.00083   2.48909
    R2        2.56250  -0.00018   0.00052  -0.00068  -0.00016   2.56234
    R3        2.53187  -0.00011   0.00022  -0.00021   0.00001   2.53187
    R4        1.90556   0.00009   0.00005   0.00006   0.00011   1.90567
    R5        2.53802   0.00041   0.00003   0.00061   0.00063   2.53865
    R6        2.50041   0.00016   0.00012  -0.00003   0.00009   2.50050
    R7        2.03315  -0.00004   0.00000  -0.00009  -0.00009   2.03307
    A1        1.93666   0.00040   0.00031   0.00047   0.00078   1.93745
    A2        1.84052   0.00002  -0.00010   0.00026   0.00016   1.84068
    A3        2.09108   0.00011  -0.00010   0.00050   0.00040   2.09147
    A4        1.91055  -0.00022  -0.00012  -0.00057  -0.00069   1.90986
    A5        2.28156   0.00011   0.00023   0.00007   0.00029   2.28185
    A6        1.84845  -0.00033  -0.00053  -0.00027  -0.00079   1.84766
    A7        1.88859   0.00014   0.00044   0.00010   0.00054   1.88913
    A8        2.17815  -0.00008  -0.00027  -0.00007  -0.00034   2.17782
    A9        2.21644  -0.00006  -0.00017  -0.00003  -0.00020   2.21624
    D1        0.00000   0.00000   0.00000   0.00000   0.00000   0.00000
    D2        0.00000   0.00000   0.00000   0.00000   0.00000   0.00000
    D3        3.14159   0.00000   0.00000   0.00000   0.00000   3.14159
    D4        0.00000   0.00000   0.00000   0.00000   0.00000   0.00000
    D5        0.00000   0.00000   0.00000   0.00000   0.00000   0.00000
    D6        3.14159   0.00000   0.00000   0.00000   0.00000   3.14159
    D7        3.14159   0.00000   0.00000   0.00000   0.00000   3.14159
    D8        0.00000   0.00000   0.00000   0.00000   0.00000   0.00000
    D9        0.00000   0.00000   0.00000   0.00000   0.00000   0.00000
   D10        3.14159   0.00000   0.00000   0.00000   0.00000   3.14159
         Item               Value     Threshold  Converged?
 Maximum Force            0.000414     0.000450     YES
 RMS     Force            0.000162     0.000300     YES
 Maximum Displacement     0.000727     0.001800     YES
 RMS     Displacement     0.000335     0.001200     YES
 Predicted change in Energy=-7.152763D-07
 Optimization completed.
    -- Stationary point found.
                         ----------------------------
                         !   Optimized Parameters   !
                         ! (Angstroms and Degrees)  !
 ------------------------                            -------------------------
[...]
 ZZZY=     0.0000 XXYY=   -53.2895 XXZZ=   -30.1730 YYZZ=   -28.8500
 XXYZ=     0.0000 YYXZ=     0.0000 ZZXY=     0.0524
 N-N= 1.663460814576D+02 E-N=-9.340959127443D+02  KE= 2.561405835019D+02
 Symmetry A'   KE= 2.472338605612D+02
 Symmetry A"   KE= 8.906722940741D+00
  Exact polarizability:  38.867   1.245  37.354   0.000   0.000  18.311
 Approx polarizability:  39.867  -0.043  41.513   0.000   0.000  21.042
 Full mass-weighted force constant matrix:
 Low frequencies ---  -14.6464   -4.5172   -0.0012   -0.0005   -0.0005   13.3172
 Low frequencies ---  629.2536  702.8768  743.3648
 Harmonic frequencies (cm**-1), IR intensities (KM/Mole),
 Raman scattering activities (A**4/AMU), Raman depolarization ratios,
 reduced masses (AMU), force constants (mDyne/A) and normal coordinates:
                     1                      2                      3
                    A"                     A"                     A"
 Frequencies --   629.2536               702.8768               743.3645
 Red. masses --     2.2746                 1.8633                 5.0171
 Frc consts  --     0.5307                 0.5424                 1.6334
 IR Inten    --    60.7535                14.9547                15.4210
 Raman Activ --     0.0000                 0.0000                 0.0000
 Depolar     --     0.0000                 0.0000                 0.0000
 Atom AN      X      Y      Z        X      Y      Z        X      Y      Z
   1   7     0.00   0.00   0.01     0.00   0.00   0.07     0.00   0.00   0.37
   2   7     0.00   0.00  -0.12     0.00   0.00   0.05     0.00   0.00  -0.33
   3   7     0.00   0.00   0.26     0.00   0.00  -0.05     0.00   0.00   0.09
   4   1     0.00   0.00  -0.90     0.00   0.00  -0.86     0.00   0.00   0.83
   5   7     0.00   0.00   0.05     0.00   0.00  -0.18     0.00   0.00  -0.23
   6   6     0.00   0.00  -0.13     0.00   0.00   0.17     0.00   0.00   0.05
   7   1     0.00   0.00  -0.31     0.00   0.00   0.44     0.00   0.00  -0.01
                     4                      5                      6
                    A"                     A'                     A'
 Frequencies --   842.1455               969.5565              1010.2359
 Red. masses --     1.3261                 4.4304                 5.7321
 Frc consts  --     0.5541                 2.4538                 3.4468
 IR Inten    --    18.2633                 2.7142                 5.1565
 Raman Activ --     0.0000                 0.0000                 0.0000
 Depolar     --     0.0000                 0.0000                 0.0000
 Atom AN      X      Y      Z        X      Y      Z        X      Y      Z
   1   7     0.00   0.00   0.02     0.05   0.14   0.00     0.11  -0.09   0.00
   2   7     0.00   0.00   0.00    -0.13   0.17   0.00     0.19  -0.08   0.00
   3   7     0.00   0.00   0.02    -0.10  -0.02   0.00     0.00   0.43   0.00
   4   1     0.00   0.00   0.06     0.49   0.02   0.00    -0.13   0.43   0.00
   5   7     0.00   0.00   0.02     0.30  -0.25   0.00    -0.02  -0.18   0.00
   6   6     0.00   0.00  -0.16    -0.15  -0.11   0.00    -0.31  -0.06   0.00
   7   1     0.00   0.00   0.98    -0.37   0.59   0.00    -0.15  -0.63   0.00
                     7                      8                      9
                    A'                     A'                     A'
 Frequencies --  1097.9637              1127.0489              1153.6339
 Red. masses --     3.4673                 4.1455                 2.6132
 Frc consts  --     2.4627                 3.1025                 2.0491
 IR Inten    --    31.9226                10.5980                12.3779
 Raman Activ --     0.0000                 0.0000                 0.0000
 Depolar     --     0.0000                 0.0000                 0.0000
 Atom AN      X      Y      Z        X      Y      Z        X      Y      Z
   1   7     0.32  -0.05   0.00     0.20   0.03   0.00     0.12   0.28   0.00
   2   7    -0.23   0.06   0.00     0.28   0.13   0.00    -0.02  -0.08   0.00
   3   7     0.04  -0.02   0.00    -0.10  -0.18   0.00    -0.12  -0.04   0.00
   4   1     0.79   0.03   0.00    -0.26  -0.20   0.00    -0.63  -0.07   0.00
   5   7    -0.14   0.06   0.00    -0.22  -0.03   0.00     0.01  -0.01   0.00
   6   6    -0.05  -0.02   0.00    -0.13   0.02   0.00     0.05  -0.11   0.00
   7   1     0.07  -0.43   0.00    -0.37   0.71   0.00     0.22  -0.65   0.00
                    10                     11                     12
                    A'                     A'                     A'
 Frequencies --  1200.5374              1269.9422              1476.3126
 Red. masses --     3.6476                 3.1869                 2.4543
 Frc consts  --     3.0975                 3.0282                 3.1517
 IR Inten    --     1.2314                 1.4466                24.8288
 Raman Activ --     0.0000                 0.0000                 0.0000
 Depolar     --     0.0000                 0.0000                 0.0000
 Atom AN      X      Y      Z        X      Y      Z        X      Y      Z
   1   7     0.04  -0.23   0.00    -0.07  -0.05   0.00     0.04  -0.02   0.00
   2   7    -0.04   0.31   0.00     0.14   0.09   0.00    -0.10   0.04   0.00
   3   7    -0.14   0.04   0.00    -0.08  -0.14   0.00     0.23  -0.03   0.00
   4   1    -0.75   0.02   0.00     0.39  -0.13   0.00    -0.87  -0.11   0.00
   5   7     0.03  -0.07   0.00     0.15   0.21   0.00     0.05   0.10   0.00
   6   6     0.16  -0.02   0.00    -0.20  -0.06   0.00    -0.15  -0.11   0.00
   7   1     0.30  -0.37   0.00     0.01  -0.81   0.00    -0.28   0.17   0.00
                    13                     14                     15
                    A'                     A'                     A'
 Frequencies --  1492.6200              3346.1958              3695.4123
 Red. masses --     4.8398                 1.1005                 1.0844
 Frc consts  --     6.3530                 7.2600                 8.7248
 IR Inten    --     6.8421                 3.8876               120.2731
 Raman Activ --     0.0000                 0.0000                 0.0000
 Depolar     --     0.0000                 0.0000                 0.0000
 Atom AN      X      Y      Z        X      Y      Z        X      Y      Z
   1   7     0.01  -0.04   0.00     0.00   0.00   0.00     0.00   0.00   0.00
   2   7     0.03  -0.03   0.00     0.00   0.00   0.00     0.00   0.00   0.00
   3   7    -0.15   0.16   0.00     0.00   0.00   0.00     0.01  -0.08   0.00
   4   1     0.22   0.21   0.00     0.01   0.02   0.00    -0.06   0.99   0.00
   5   7    -0.02   0.24   0.00     0.00   0.00   0.00     0.00   0.00   0.00
   6   6     0.14  -0.45   0.00     0.09   0.03   0.00    -0.01   0.00   0.00
   7   1    -0.23   0.72   0.00    -0.95  -0.30   0.00     0.02   0.00   0.00

 -------------------
 - Thermochemistry -
 -------------------
 Temperature   298.150 Kelvin.  Pressure   1.00000 Atm.
 Atom  1 has atomic number  7 and mass  14.00307
 Atom  2 has atomic number  7 and mass  14.00307
 Atom  3 has atomic number  7 and mass  14.00307
 Atom  4 has atomic number  1 and mass   1.00783
 Atom  5 has atomic number  7 and mass  14.00307
 Atom  6 has atomic number  6 and mass  12.00000
 Atom  7 has atomic number  1 and mass   1.00783
 Molecular mass:    70.02795 amu.
 Principal axes and moments of inertia in atomic units:
                           1         2         3
     EIGENVALUES --   171.77393 175.54063 347.31456
           X           -0.63326   0.77394   0.00000
           Y            0.77394   0.63326   0.00000
           Z            0.00000   0.00000   1.00000
 THIS MOLECULE IS AN ASYMMETRIC TOP.
 ROTATIONAL SYMMETRY NUMBER  1.
 ROTATIONAL TEMPERATURES (KELVIN)      0.50423     0.49341     0.24938
 ROTATIONAL CONSTANTS (GHZ)           10.50649    10.28105     5.19627
 Zero-point vibrational energy     124155.0 (Joules/Mol)
                                   29.67377 (Kcal/Mol)
 VIBRATIONAL TEMPERATURES:    905.35  1011.28  1069.53  1211.65  1394.97
          (KELVIN)           1453.50  1579.72  1621.56  1659.81  1727.30
                             1827.15  2124.07  2147.53  4814.40  5316.84
 
 Zero-point correction=                           0.047288 (Hartree/Particle)
 Thermal correction to Energy=                    0.050725
 Thermal correction to Enthalpy=                  0.051669
 Thermal correction to Gibbs Free Energy=         0.021203
 Sum of electronic and zero-point Energies=           -257.647058
 Sum of electronic and thermal Energies=              -257.643622
 Sum of electronic and thermal Enthalpies=            -257.642677
 Sum of electronic and thermal Free Energies=         -257.673143
 
                     E (Thermal)             CV                S
                      KCAL/MOL        CAL/MOL-KELVIN    CAL/MOL-KELVIN
 TOTAL                   31.830             11.169             64.121
 ELECTRONIC               0.000              0.000              0.000
 TRANSLATIONAL            0.889              2.981             38.656
 ROTATIONAL               0.889              2.981             23.864
 VIBRATIONAL             30.053              5.207              1.601
                       Q            LOG10(Q)             LN(Q)
 TOTAL BOT       0.176747D-09         -9.752647        -22.456300
 TOTAL V=0       0.995974D+12         11.998248         27.626987
 VIB (BOT)       0.209463D-21        -21.678893        -49.917496
 VIB (V=0)       0.118033D+01          0.072002          0.165792
 ELECTRONIC      0.100000D+01          0.000000          0.000000
 TRANSLATIONAL   0.230339D+08          7.362368         16.952478
 ROTATIONAL      0.366335D+05          4.563878         10.508718
 ***** Axes restored to original set *****
 -------------------------------------------------------------------
 Center     Atomic                   Forces (Hartrees/Bohr)
 Number     Number              X              Y              Z
 -------------------------------------------------------------------
    1          7           0.000271036    0.000540465    0.000000000
    2          7           0.000087627   -0.000322135    0.000000000
    3          7          -0.000356327    0.000390505    0.000000000
    4          1          -0.000005402    0.000090674    0.000000000
    5          7          -0.000044924   -0.000502041    0.000000000
    6          6           0.000084512   -0.000192630    0.000000000
    7          1          -0.000036521   -0.000004838    0.000000000
 -------------------------------------------------------------------
 Cartesian Forces:  Max     0.000540465 RMS     0.000225134

 GradGradGradGradGradGradGradGradGradGradGradGradGradGradGradGradGradGrad
 Berny optimization.
 Internal  Forces:  Max     0.000414481 RMS     0.000161574
 Search for a local minimum.
 Step number   1 out of a maximum of  36
 All quantities printed in internal units (Hartrees-Bohrs-Radians)
 Second derivative matrix not updated -- analytic derivatives used.
     Eigenvalues ---    0.00953   0.02516   0.07252   0.07990   0.10039
     Eigenvalues ---    0.10564   0.20613   0.29196   0.34682   0.37064
     Eigenvalues ---    0.39503   0.48086   0.49727   0.55013   0.61961
     Eigenvalues --- 1000.000001000.000001000.000001000.000001000.00000
     Eigenvalues --- 1000.000001000.000001000.000001000.000001000.00000
     Eigenvalues --- 1000.00000
 Angle between quadratic step and forces=  21.69 degrees.
 Linear search not attempted -- first point.
 Iteration  1 RMS(Cart)=  0.00035551 RMS(Int)=  0.00000013
 Iteration  2 RMS(Cart)=  0.00000012 RMS(Int)=  0.00000003
 Variable       Old X    -DE/DX   Delta X   Delta X   Delta X     New X
                                 (Linear)    (Quad)   (Total)
    R1        2.48992  -0.00023   0.00000  -0.00098  -0.00098   2.48895
    R2        2.56250  -0.00018   0.00000  -0.00024  -0.00024   2.56226
    R3        2.53187  -0.00011   0.00000   0.00011   0.00011   2.53198
    R4        1.90556   0.00009   0.00000   0.00016   0.00016   1.90572
    R5        2.53802   0.00041   0.00000   0.00082   0.00082   2.53884
    R6        2.50041   0.00016   0.00000   0.00030   0.00030   2.50071
    R7        2.03315  -0.00004   0.00000  -0.00007  -0.00007   2.03308
    A1        1.93666   0.00040   0.00000   0.00087   0.00087   1.93753
    A2        1.84052   0.00002   0.00000   0.00021   0.00021   1.84073
    A3        2.09108   0.00011   0.00000   0.00050   0.00050   2.09158
    A4        1.91055  -0.00022   0.00000  -0.00075  -0.00075   1.90980
    A5        2.28156   0.00011   0.00000   0.00024   0.00024   2.28180
    A6        1.84845  -0.00033   0.00000  -0.00079  -0.00079   1.84766
    A7        1.88859   0.00014   0.00000   0.00045   0.00045   1.88905
    A8        2.17815  -0.00008   0.00000  -0.00041  -0.00041   2.17774
    A9        2.21644  -0.00006   0.00000  -0.00004  -0.00004   2.21640
    D1        0.00000   0.00000   0.00000   0.00000   0.00000   0.00000
    D2        0.00000   0.00000   0.00000   0.00000   0.00000   0.00000
    D3        3.14159   0.00000   0.00000   0.00000   0.00000   3.14159
    D4        0.00000   0.00000   0.00000   0.00000   0.00000   0.00000
    D5        0.00000   0.00000   0.00000   0.00000   0.00000   0.00000
    D6        3.14159   0.00000   0.00000   0.00000   0.00000   3.14159
    D7        3.14159   0.00000   0.00000   0.00000   0.00000   3.14159
    D8        0.00000   0.00000   0.00000   0.00000   0.00000   0.00000
    D9        0.00000   0.00000   0.00000   0.00000   0.00000   0.00000
   D10        3.14159   0.00000   0.00000   0.00000   0.00000   3.14159
         Item               Value     Threshold  Converged?
 Maximum Force            0.000414     0.000450     YES
 RMS     Force            0.000162     0.000300     YES
 Maximum Displacement     0.000892     0.001800     YES
 RMS     Displacement     0.000356     0.001200     YES
 Predicted change in Energy=-8.110494D-07
 Optimization completed.
    -- Stationary point found.
                         ----------------------------
                         !   Optimized Parameters   !
                         ! (Angstroms and Degrees)  !
 ------------------------                            -------------------------
 ! Name  Definition              Value          Derivative Info.             !
 -----------------------------------------------------------------------------
 ! R1    R(1,2)                  1.3176         -DE/DX =   -0.0002           !
 ! R2    R(1,5)                  1.356          -DE/DX =   -0.0002           !
 ! R3    R(2,3)                  1.3398         -DE/DX =   -0.0001           !
 ! R4    R(3,4)                  1.0084         -DE/DX =    0.0001           !
 ! R5    R(3,6)                  1.3431         -DE/DX =    0.0004           !
 ! R6    R(5,6)                  1.3232         -DE/DX =    0.0002           !
 ! R7    R(6,7)                  1.0759         -DE/DX =    0.               !
 ! A1    A(2,1,5)              110.9627         -DE/DX =    0.0004           !
 ! A2    A(1,2,3)              105.4541         -DE/DX =    0.               !
 ! A3    A(2,3,4)              119.8098         -DE/DX =    0.0001           !
 ! A4    A(2,3,6)              109.4665         -DE/DX =   -0.0002           !
 ! A5    A(4,3,6)              130.7237         -DE/DX =    0.0001           !
 ! A6    A(1,5,6)              105.9084         -DE/DX =   -0.0003           !
 ! A7    A(3,6,5)              108.2084         -DE/DX =    0.0001           !
 ! A8    A(3,6,7)              124.7991         -DE/DX =   -0.0001           !
 ! A9    A(5,6,7)              126.9926         -DE/DX =   -0.0001           !
 ! D1    D(5,1,2,3)              0.             -DE/DX =    0.               !
 ! D2    D(2,1,5,6)              0.             -DE/DX =    0.               !
 ! D3    D(1,2,3,4)            180.             -DE/DX =    0.               !
 ! D4    D(1,2,3,6)              0.             -DE/DX =    0.               !
 ! D5    D(2,3,6,5)              0.             -DE/DX =    0.               !
 ! D6    D(2,3,6,7)            180.             -DE/DX =    0.               !
 ! D7    D(4,3,6,5)            180.             -DE/DX =    0.               !
 ! D8    D(4,3,6,7)              0.             -DE/DX =    0.               !
 ! D9    D(1,5,6,3)              0.             -DE/DX =    0.               !
 ! D10   D(1,5,6,7)            180.             -DE/DX =    0.               !
 -----------------------------------------------------------------------------
 GradGradGradGradGradGradGradGradGradGradGradGradGradGradGradGradGradGrad

 1\1\GINC-AURUM\Freq\RMP2-FC\6-31G(2df,p)\C1H2N4\RDJ3\18-May-2004\0\\#N
  GEOM=ALLCHECK GUESS=TCHECK RMP2(FC)/6-31G(2DF,P) FREQ\\1htz casno=288
 948 method=3 basis=19\\0,1\N,-0.7217630654,-0.9347041533,0.\N,-1.12018
 33065,0.3212261352,0.\N,0.0027755502,1.0520093265,0.\H,-0.0543027296,2
 .0587703331,0.\N,0.6319216767,-1.0142270456,0.\C,1.0686009238,0.234799
 3576,0.\H,2.0934412017,0.5623036814,0.\\Version=IBM-RS6000-G98RevA.6\S
 tate=1-A'\HF=-256.7737928\MP2=-257.6943463\RMSD=2.193e-09\RMSF=2.251e-
 04\Dipole=0.992045,1.8806535,0.\DipoleDeriv=0.111312,-0.0130929,0.,-0.
 1522071,-0.1075435,0.,0.,0.,-0.1661541,-0.1169651,0.2652021,0.,0.33792
 31,0.0509068,0.,0.,0.,-0.105906,-0.1408544,-0.0698492,0.,-0.1102684,-0
 .479316,0.,0.,0.,-0.1000038,0.2094892,-0.0080222,0.,-0.0238995,0.32827
 78,0.,0.,0.,0.3250958,-0.3740591,0.042813,0.,0.0608347,-0.2446551,0.,0
 .,0.,-0.1961058,0.2167648,-0.1930856,0.,-0.0918337,0.3547861,0.,0.,0.,
 0.0786433,0.0943126,-0.0239651,0.,-0.0205491,0.0975439,0.,0.,0.,0.1644
 307\Polar=38.8730767,1.2412606,37.3475268,0.,0.,18.3113913\PG=CS [SG(C
 1H2N4)]\NImag=0\\0.45249750,0.06440210,0.51488058,0.,0.,0.12400337,-0.
 11548218,-0.00811381,0.,0.54445422,0.09165054,-0.25633849,0.,-0.025021
 58,0.45062506,0.,0.,-0.09605375,0.,0.,0.11519158,-0.01806740,-0.059962
 96,0.,-0.25644147,-0.09118901,0.,0.61797689,-0.00857951,-0.13674272,0.
 ,-0.03676228,-0.13495198,0.,-0.08158913,1.02873480,0.,0.,0.02561446,0.
 ,0.,-0.07051958,0.,0.,0.10014263,-0.00887520,-0.00950240,0.,0.01195561
 ,-0.03137225,0.,-0.06824588,0.03518387,0.,0.05917740,-0.00143403,0.000
 93394,0.,0.00714558,-0.01056610,0.,0.02782126,-0.47197978,0.,-0.024354
 57,0.48297041,0.,0.,0.00870583,0.,0.,-0.01212255,0.,0.,-0.01024226,0.,
 0.,0.01585302,-0.22390739,0.02971852,0.,-0.08003276,0.09599820,0.,0.00
 976977,-0.02309801,0.,-0.00643742,-0.00083126,0.,0.41886714,-0.0457757
 7,-0.09838916,0.,0.02652793,-0.03774440,0.,0.05847861,-0.10013589,0.,0
 .00822252,0.00086284,0.,0.01137502,0.59638407,0.,0.,-0.09072962,0.,0.,
 0.03570313,0.,0.,0.02085176,0.,0.,0.00727093,0.,0.,0.10997301,-0.08693
 253,-0.01860227,0.,-0.10389923,-0.04026375,0.,-0.27321318,0.12570147,0
 .,0.01286888,-0.00850146,0.,-0.11852000,-0.06045082,0.,0.91932175,-0.0
 9561380,-0.01863838,0.,0.03125190,-0.00538710,0.,0.12056421,-0.1969995
 6,0.,0.02222722,-0.00212699,0.,-0.08444678,-0.36182182,0.,0.09684840,0
 .66912609,0.,0.,0.01959648,0.,0.,0.02104030,0.,0.,-0.06197775,0.,0.,-0
 .00860221,0.,0.,-0.07735411,0.,0.,0.13501194,0.00076719,0.00206082,0.,
 -0.00055420,0.00019786,0.,-0.01177873,-0.01085640,0.,-0.00044339,0.000
 15448,0.,0.00026066,0.00162251,0.,-0.34962570,-0.09083115,0.,0.3613741
 7,-0.00464954,-0.00570577,0.,0.00497227,-0.00563699,0.,0.02587703,0.01
 207513,0.,-0.00040440,-0.00009431,0.,-0.02871568,0.00084437,0.,-0.0947
 3156,-0.08415223,0.,0.09765187,0.08266981,0.,0.,0.00886324,0.,0.,0.006
 76088,0.,0.,-0.00386926,0.,0.,-0.00086275,0.,0.,-0.00571509,0.,0.,-0.0
 2771464,0.,0.,0.02253762\\-0.00027104,-0.00054047,0.,-0.00008763,0.000
 32213,0.,0.00035633,-0.00039050,0.,0.00000540,-0.00009067,0.,0.0000449
 2,0.00050204,0.,-0.00008451,0.00019263,0.,0.00003652,0.00000484,0.\\\@


 GOD DOES NOT PLAY WITH DICE.
               -- A. EINSTEIN
 Job cpu time:  0 days  3 hours 12 minutes 37.0 seconds.
 File lengths (MBytes):  RWF= 2639 Int=    0 D2E=    0 Chk=    4 Scr=    1
 Normal termination of Gaussian 98.
