 Entering Gaussian System, Link 0=g98
 Initial command:
 /usr/local/apps/g98/g98/l1.exe /wrk/Gau-5612.inp -scrdir=/wrk/
 Entering Link 1 = /usr/local/apps/g98/g98/l1.exe PID=     15886.
  
 Copyright (c) 1988,1990,1992,1993,1995,1998 Gaussian, Inc.
                  All Rights Reserved.
  
 This is part of the Gaussian(R) 98 program.  It is based on
 the Gaussian 94(TM) system (copyright 1995 Gaussian, Inc.),
 the Gaussian 92(TM) system (copyright 1992 Gaussian, Inc.),
 the Gaussian 90(TM) system (copyright 1990 Gaussian, Inc.),
 the Gaussian 88(TM) system (copyright 1988 Gaussian, Inc.),
 the Gaussian 86(TM) system (copyright 1986 Carnegie Mellon
 University), and the Gaussian 82(TM) system (copyright 1983
 Carnegie Mellon University). Gaussian is a federally registered
 trademark of Gaussian, Inc.
  
 This software contains proprietary and confidential information,
 including trade secrets, belonging to Gaussian, Inc.
  
 This software is provided under written license and may be
 used, copied, transmitted, or stored only in accord with that
 written license.
  
 The following legend is applicable only to US Government
 contracts under DFARS:
  
                    RESTRICTED RIGHTS LEGEND
  
 Use, duplication or disclosure by the US Government is subject
 to restrictions as set forth in subparagraph (c)(1)(ii) of the
 Rights in Technical Data and Computer Software clause at DFARS
 252.227-7013.
  
 Gaussian, Inc.
 Carnegie Office Park, Building 6, Pittsburgh, PA 15106 USA
  
 The following legend is applicable only to US Government
 contracts under FAR:
  
                    RESTRICTED RIGHTS LEGEND
  
 Use, reproduction and disclosure by the US Government is subject
 to restrictions as set forth in subparagraph (c) of the
 Commercial Computer Software - Restricted Rights clause at FAR
 52.227-19.
  
 Gaussian, Inc.
 Carnegie Office Park, Building 6, Pittsburgh, PA 15106 USA
  
  
 ---------------------------------------------------------------
 Warning -- This program may not be used in any manner that
 competes with the business of Gaussian, Inc. or will provide
 assistance to any competitor of Gaussian, Inc.  The licensee
 of this program is prohibited from giving any competitor of
 Gaussian, Inc. access to this program.  By using this program,
 the user acknowledges that Gaussian, Inc. is engaged in the
 business of creating and licensing software in the field of
 computational chemistry and represents and warrants to the
 licensee that it is not a competitor of Gaussian, Inc. and that
 it will not use this program in any manner prohibited above.
 ---------------------------------------------------------------
  

 Cite this work as:
 Gaussian 98, Revision A.7,
 M. J. Frisch, G. W. Trucks, H. B. Schlegel, G. E. Scuseria, 
 M. A. Robb, J. R. Cheeseman, V. G. Zakrzewski, J. A. Montgomery, Jr., 
 R. E. Stratmann, J. C. Burant, S. Dapprich, J. M. Millam, 
 A. D. Daniels, K. N. Kudin, M. C. Strain, O. Farkas, J. Tomasi, 
 V. Barone, M. Cossi, R. Cammi, B. Mennucci, C. Pomelli, C. Adamo, 
 S. Clifford, J. Ochterski, G. A. Petersson, P. Y. Ayala, Q. Cui, 
 K. Morokuma, D. K. Malick, A. D. Rabuck, K. Raghavachari, 
 J. B. Foresman, J. Cioslowski, J. V. Ortiz, A. G. Baboul, 
 B. B. Stefanov, G. Liu, A. Liashenko, P. Piskorz, I. Komaromi, 
 R. Gomperts, R. L. Martin, D. J. Fox, T. Keith, M. A. Al-Laham, 
 C. Y. Peng, A. Nanayakkara, C. Gonzalez, M. Challacombe, 
 P. M. W. Gill, B. Johnson, W. Chen, M. W. Wong, J. L. Andres, 
 C. Gonzalez, M. Head-Gordon, E. S. Replogle, and J. A. Pople, 
 Gaussian, Inc., Pittsburgh PA, 1998.

 **********************************************
 Gaussian 98:  IBM-RS6000-G98RevA.7 11-Apr-1999
                  18-Dec-2000 
 **********************************************
 %mem=24000000
 -----------------
 #MP2/SDD opt freq
 -----------------
 1/18=20,38=1/1,3;
 2/9=110,17=6,18=5/2;
 3/5=17,6=7,11=9,16=1,25=1,30=1/1,2,3;
 4/11=1/1;
 5/5=2,38=4/2;
 8/6=4,10=1/1;
 9/15=2,16=-3/6;
 10/5=1/2;
 6/7=2,8=2,9=2,10=2/1;
 7/12=2/1,2,3,16;
 1/18=20/3(1);
 99//99;
 2/9=110/2;
 3/5=17,6=7,11=9,16=1,25=1,30=1/1,2,3;
 4/5=5,11=1,16=2/1;
 5/5=2,38=4/2;
 8/6=4,10=1/1;
 9/15=2,16=-3/6;
 10/5=1/2;
 7/12=2/1,2,3,16;
 1/18=20/3(-8);
 2/9=110/2;
 6/7=2,8=2,9=2,10=2/1;
 99//99;
 ----------------------------------------
 1H tetrazole c CH-NH-N=N-N= casno=288948
 ----------------------------------------
 Symbolic Z-matrix:
 Charge =  0 Multiplicity = 1
 7                    -1.12329  -0.25456   0. 
 7                    -0.67158   0.91328   0. 
 7                     0.65055   0.80984   0. 
 1                     1.224     1.62189   0. 
 7                    -0.13465  -1.16105   0. 
 6                     0.96218  -0.48332   0. 
 1                     1.95569  -0.87454   0. 

 GradGradGradGradGradGradGradGradGradGradGradGradGradGradGradGradGradGrad
 Berny optimization.
 Initialization pass.
                         ----------------------------
                         !    Initial Parameters    !
                         ! (Angstroms and Degrees)  !
 ------------------------                            -------------------------
 ! Name  Definition              Value          Derivative Info.             !
 -----------------------------------------------------------------------------
 ! R1    R(1,2)                  1.2522         estimate D2E/DX2             !
 ! R2    R(1,5)                  1.3413         estimate D2E/DX2             !
 ! R3    R(2,3)                  1.3262         estimate D2E/DX2             !
 ! R4    R(3,4)                  0.9941         estimate D2E/DX2             !
 ! R5    R(3,6)                  1.3302         estimate D2E/DX2             !
 ! R6    R(5,6)                  1.2893         estimate D2E/DX2             !
 ! R7    R(6,7)                  1.0678         estimate D2E/DX2             !
 ! A1    A(2,1,5)              111.3714         estimate D2E/DX2             !
 ! A2    A(1,2,3)              106.673          estimate D2E/DX2             !
 ! A3    A(2,3,4)              120.7559         estimate D2E/DX2             !
 ! A4    A(2,3,6)              108.0227         estimate D2E/DX2             !
 ! A5    A(4,3,6)              131.2214         estimate D2E/DX2             !
 ! A6    A(1,5,6)              105.77           estimate D2E/DX2             !
 ! A7    A(3,6,5)              108.1628         estimate D2E/DX2             !
 ! A8    A(3,6,7)              125.0426         estimate D2E/DX2             !
 ! A9    A(5,6,7)              126.7945         estimate D2E/DX2             !
 ! D1    D(5,1,2,3)              0.             estimate D2E/DX2             !
 ! D2    D(2,1,5,6)              0.             estimate D2E/DX2             !
 ! D3    D(1,2,3,4)            180.             estimate D2E/DX2             !
 ! D4    D(1,2,3,6)              0.             estimate D2E/DX2             !
 ! D5    D(2,3,6,5)              0.             estimate D2E/DX2             !
 ! D6    D(2,3,6,7)            180.             estimate D2E/DX2             !
 ! D7    D(4,3,6,5)            180.             estimate D2E/DX2             !
 ! D8    D(4,3,6,7)              0.             estimate D2E/DX2             !
 ! D9    D(1,5,6,3)              0.             estimate D2E/DX2             !
 ! D10   D(1,5,6,7)            180.             estimate D2E/DX2             !
 -----------------------------------------------------------------------------
 Trust Radius=3.00D-01 FncErr=1.00D-07 GrdErr=1.00D-07
 Number of steps in this run=  36 maximum allowed number of steps= 100.
 GradGradGradGradGradGradGradGradGradGradGradGradGradGradGradGradGradGrad

                          Input orientation:                          
 ---------------------------------------------------------------------
 Center     Atomic     Atomic              Coordinates (Angstroms)
 Number     Number      Type              X           Y           Z
 ---------------------------------------------------------------------
    1          7             0       -1.123293    -.254560     .000000
    2          7             0        -.671576     .913277     .000000
    3          7             0         .650545     .809842     .000000
    4          1             0        1.224004    1.621891     .000000
    5          7             0        -.134646   -1.161053     .000000
    6          6             0         .962183    -.483316     .000000
    7          1             0        1.955691    -.874535     .000000
 ---------------------------------------------------------------------
                    Distance matrix (angstroms):
                    1          2          3          4          5
     1  N     .000000
     2  N    1.252155    .000000
     3  N    2.068684   1.326161    .000000
     4  H    3.005141   2.023699    .994122    .000000
     5  N    1.341325   2.142694   2.121545   3.096887    .000000
     6  C    2.097985   2.149335   1.330179   2.121426   1.289326
     7  H    3.140782   3.177861   2.130852   2.601444   2.109882
                    6          7
     6  C     .000000
     7  H    1.067760    .000000
 Stoichiometry    CH2N4
 Framework group  CS[SG(CH2N4)]
 Deg. of freedom   11
 Full point group                 CS      NOp   2
 Largest Abelian subgroup         CS      NOp   2
 Largest concise Abelian subgroup C1      NOp   1
                         Standard orientation:                         
 ---------------------------------------------------------------------
 Center     Atomic     Atomic              Coordinates (Angstroms)
 Number     Number      Type              X           Y           Z
 ---------------------------------------------------------------------
    1          7             0        -.716312    -.901934     .000000
    2          7             0       -1.095520     .291420     .000000
    3          7             0         .000000    1.038775     .000000
    4          1             0        -.061479    2.030994     .000000
    5          7             0         .622151    -.989495     .000000
    6          6             0        1.052813     .225779     .000000
    7          1             0        2.072370     .542976     .000000
 ---------------------------------------------------------------------
 Rotational constants (GHZ):     10.9198679     10.7343949      5.4131685
 Isotopes: N-14,N-14,N-14,H-1,N-14,C-12,H-1
 Standard basis: SDD (6D, 10F)
 There are    44 symmetry adapted basis functions of A'  symmetry.
 There are    10 symmetry adapted basis functions of A"  symmetry.
 Crude estimate of integral set expansion from redundant integrals=1.000.
 Integral buffers will be    262144 words long.
 Raffenetti 1 integral format.
 Two-electron integral symmetry is turned on.
    54 basis functions      128 primitive gaussians
    18 alpha electrons       18 beta electrons
       nuclear repulsion energy       169.8288422228 Hartrees.
 One-electron integrals computed using PRISM.
   1 Symmetry operations used in ECPInt.
 ECPInt:  NShTT=     595 NPrTT=    3192 LenC2=     593 LenP2D=    2558.
 LDataN:  DoStor=F MaxTD1= 2 Len=   12
 LDataN:  DoStor=T MaxTD1= 2 Len=   12
 NBasis=    54 RedAO= T  NBF=    44    10
 NBsUse=    54 1.00D-04 NBFU=    44    10
 Projected Huckel Guess.
 Initial guess orbital symmetries:
       Occupied  (A') (A') (A') (A') (A') (A') (A') (A') (A') (A')
                 (A') (A") (A') (A") (A') (A") (A') (A')
       Virtual   (A") (A") (A') (A') (A') (A') (A') (A') (A') (A')
                 (A') (A') (A') (A') (A') (A') (A') (A') (A') (A')
                 (A') (A') (A') (A') (A') (A') (A') (A') (A') (A')
                 (A') (A") (A") (A") (A") (A")
 Requested convergence on RMS density matrix=1.00D-08 within  64 cycles.
 Requested convergence on MAX density matrix=1.00D-06.
 Keep R1 integrals in memory in canonical form, NReq=     1517656.
 SCF Done:  E(RHF) =  -256.634661781     A.U. after   15 cycles
             Convg  =     .7330D-08             -V/T =  1.9971
             S**2   =    .0000
 Range of M.O.s used for correlation:     6    54
 NBasis=    54 NAE=    18 NBE=    18 NFC=     5 NFV=     0
 NROrb=     49 NOA=    13 NOB=    13 NVA=    36 NVB=    36
 Fully direct method using O(ONN) memory.
 JobTyp=1 Pass  1:  I=   6 to  18.
 Spin components of T(2) and E(2):
     alpha-alpha T2 =        .2816573555D-01 E2=      -.6845223726D-01
     alpha-beta  T2 =        .1511207750D+00 E2=      -.3732407407D+00
     beta-beta   T2 =        .2816573555D-01 E2=      -.6845223726D-01
 ANorm=     .1098841320D+01
 E2 =     -.5101452152D+00 EUMP2 =     -.25714480699657D+03
          Differentiating once with respect to electric field.
                with respect to dipole field.
          Differentiating once with respect to nuclear coordinates.
          Store integrals in memory, NReq=     1513674.
          There are   1 degrees of freedom in the 1st order CPHF.
   1 vectors were produced by pass  0.
 AX will form   1 AO Fock derivatives at one time.
   1 vectors were produced by pass  1.
   1 vectors were produced by pass  2.
   1 vectors were produced by pass  3.
   1 vectors were produced by pass  4.
   1 vectors were produced by pass  5.
   1 vectors were produced by pass  6.
   1 vectors were produced by pass  7.
   1 vectors were produced by pass  8.
   1 vectors were produced by pass  9.
   1 vectors were produced by pass 10.
   1 vectors were produced by pass 11.
   1 vectors were produced by pass 12.
   1 vectors were produced by pass 13.
 Inv2:  IOpt= 1 Iter= 1 AM= 3.51D-16 Conv= 1.00D-12.
 Inverted reduced A of dimension  14 with in-core refinement.

 **********************************************************************

            Population analysis using the SCF density.

 **********************************************************************

 Orbital Symmetries:
       Occupied  (A') (A') (A') (A') (A') (A') (A') (A') (A') (A')
                 (A') (A") (A') (A') (A') (A") (A') (A")
       Virtual   (A") (A") (A') (A') (A') (A') (A') (A") (A') (A')
                 (A') (A') (A") (A') (A") (A') (A') (A') (A") (A")
                 (A') (A') (A') (A') (A') (A') (A') (A') (A') (A')
                 (A') (A') (A') (A') (A') (A')
  The electronic state is 1-A'.
 Alpha  occ. eigenvalues --  -15.69156 -15.68219 -15.65745 -15.62140 -11.36029
 Alpha  occ. eigenvalues --   -1.57794  -1.29976  -1.24910   -.93339   -.91667
 Alpha  occ. eigenvalues --    -.82991   -.71253   -.69772   -.57898   -.48345
 Alpha  occ. eigenvalues --    -.47939   -.46515   -.44509
 Alpha virt. eigenvalues --     .12042    .17447    .20474    .26028    .28563
 Alpha virt. eigenvalues --     .33969    .41943    .44323    .47433    .54907
 Alpha virt. eigenvalues --     .56518    .64464    .66906    .67325    .70455
 Alpha virt. eigenvalues --     .72554    .75816    .78064    .80355    .84093
 Alpha virt. eigenvalues --     .86794    .87563    .98472   1.02279   1.08679
 Alpha virt. eigenvalues --    1.25409   1.29346   1.42885   1.45202   1.61928
 Alpha virt. eigenvalues --    1.65618  23.76564  32.86169  33.00968  33.10400
 Alpha virt. eigenvalues --   33.17511
          Condensed to atoms (all electrons):
              1          2          3          4          5          6
  1  N    6.652980    .401649   -.129558    .011431    .335733   -.213812
  2  N     .401649   6.725387    .176711   -.020934   -.152719   -.137629
  3  N    -.129558    .176711   6.985043    .261629   -.093833    .297475
  4  H     .011431   -.020934    .261629    .348847    .006966   -.043546
  5  N     .335733   -.152719   -.093833    .006966   6.577904    .507827
  6  C    -.213812   -.137629    .297475   -.043546    .507827   5.241248
  7  H     .003985    .000801   -.022577    .001563   -.017395    .368388
              7
  1  N     .003985
  2  N     .000801
  3  N    -.022577
  4  H     .001563
  5  N    -.017395
  6  C     .368388
  7  H     .384278
 Total atomic charges:
              1
  1  N    -.062408
  2  N     .006733
  3  N    -.474890
  4  H     .434043
  5  N    -.164483
  6  C    -.019951
  7  H     .280956
 Sum of Mulliken charges=    .00000
 Atomic charges with hydrogens summed into heavy atoms:
              1
  1  N    -.062408
  2  N     .006733
  3  N    -.040847
  4  H     .000000
  5  N    -.164483
  6  C     .261005
  7  H     .000000
 Sum of Mulliken charges=    .00000
 Electronic spatial extent (au):  <R**2>=   247.4880
 Charge=      .0000 electrons
 Dipole moment (Debye):
    X=     2.9444    Y=     5.4928    Z=      .0000  Tot=     6.2322
 Quadrupole moment (Debye-Ang):
   XX=   -30.4082   YY=   -28.2621   ZZ=   -28.8965
   XY=     2.2188   XZ=      .0000   YZ=      .0000
 Octapole moment (Debye-Ang**2):
  XXX=    13.9498  YYY=    25.2939  ZZZ=      .0000  XYY=     -.6296
  XXY=     5.7472  XXZ=      .0000  XZZ=     -.7511  YZZ=      .6330
  YYZ=      .0000  XYZ=      .0000
 Hexadecapole moment (Debye-Ang**3):
 XXXX=  -141.8874 YYYY=  -120.4825 ZZZZ=   -27.0292 XXXY=     7.6536
 XXXZ=      .0000 YYYX=      .1448 YYYZ=      .0000 ZZZX=      .0000
 ZZZY=      .0000 XXYY=   -54.2604 XXZZ=   -30.5718 YYZZ=   -29.2600
 XXYZ=      .0000 YYXZ=      .0000 ZZXY=      .1190
 N-N= 1.698288422228D+02 E-N=-9.409315994172D+02  KE= 2.573685338405D+02
 Symmetry A'   KE= 2.481354540555D+02
 Symmetry A"   KE= 9.233079785058D+00
   2 Symmetry operations used in ECPInt.
 ECPInt:  NShTT=     595 NPrTT=    3192 LenC2=     593 LenP2D=    2558.
 LDataN:  DoStor=F MaxTD1= 3 Len=   28
 LDataN:  DoStor=T MaxTD1= 3 Len=   28
 ***** Axes restored to original set *****
 -------------------------------------------------------------------
 Center     Atomic                   Forces (Hartrees/Bohr)
 Number     Number              X              Y              Z
 -------------------------------------------------------------------
    1          7           -.118117998    -.071843583     .000000000
    2          7           -.034066540     .133681668     .000000000
    3          7            .058117526     .036113725     .000000000
    4          1            .009138405     .014688230     .000000000
    5          7           -.014851669    -.097292612     .000000000
    6          6            .091656844    -.011275495     .000000000
    7          1            .008123432    -.004071933     .000000000
 -------------------------------------------------------------------
 Cartesian Forces:  Max      .133681668 RMS      .054082341

 GradGradGradGradGradGradGradGradGradGradGradGradGradGradGradGradGradGrad
 Berny optimization.
 Internal  Forces:  Max      .130366139 RMS      .041845693
 Search for a local minimum.
 Step number   1 out of a maximum of  36
 All quantities printed in internal units (Hartrees-Bohrs-Radians)
 Second derivative matrix not updated -- first step.
     Eigenvalues ---     .02505    .02639    .02674    .02834    .16000
     Eigenvalues ---     .16000    .22605    .24688    .37515    .48737
     Eigenvalues ---     .50885    .56605    .58506    .66912    .78894
     Eigenvalues --- 1000.000001000.000001000.000001000.000001000.00000
     Eigenvalues --- 1000.000001000.000001000.000001000.000001000.00000
     Eigenvalues --- 1000.00000
 RFO step:  Lambda=-6.14382629D-02.
 Linear search not attempted -- first point.
 Iteration  1 RMS(Cart)=   .05775832 RMS(Int)=   .00044204
 Iteration  2 RMS(Cart)=   .00037027 RMS(Int)=   .00021596
 Iteration  3 RMS(Cart)=   .00000013 RMS(Int)=   .00021596
 Variable       Old X    -DE/DX   Delta X   Delta X   Delta X     New X
                                 (Linear)    (Quad)   (Total)
    R1        2.36623    .13037    .00000    .15145    .15173   2.51796
    R2        2.53474    .08139    .00000    .13301    .13323   2.66797
    R3        2.50608    .08655    .00000    .12997    .12993   2.63601
    R4        1.87862    .01727    .00000    .03147    .03147   1.91009
    R5        2.51367    .06721    .00000    .09667    .09636   2.61003
    R6        2.43647    .09511    .00000    .12146    .12131   2.55778
    R7        2.01777    .00905    .00000    .02073    .02073   2.03850
    A1        1.94380   -.01604    .00000   -.02972   -.02912   1.91467
    A2        1.86179   -.00430    .00000   -.00091   -.00064   1.86115
    A3        2.10759   -.00517    .00000   -.01225   -.01207   2.09552
    A4        1.88535    .00845    .00000    .01596    .01559   1.90094
    A5        2.29025   -.00328    .00000   -.00370   -.00352   2.28673
    A6        1.84604    .00821    .00000    .02283    .02282   1.86886
    A7        1.88780    .00368    .00000   -.00817   -.00864   1.87915
    A8        2.18241   -.00102    .00000    .00779    .00802   2.19043
    A9        2.21298   -.00266    .00000    .00038    .00062   2.21360
    D1         .00000    .00000    .00000    .00000    .00000    .00000
    D2         .00000    .00000    .00000    .00000    .00000    .00000
    D3        3.14159    .00000    .00000    .00000    .00000   3.14159
    D4         .00000    .00000    .00000    .00000    .00000    .00000
    D5         .00000    .00000    .00000    .00000    .00000    .00000
    D6        3.14159    .00000    .00000    .00000    .00000   3.14159
    D7        3.14159    .00000    .00000    .00000    .00000   3.14159
    D8         .00000    .00000    .00000    .00000    .00000    .00000
    D9         .00000    .00000    .00000    .00000    .00000    .00000
   D10        3.14159    .00000    .00000    .00000    .00000   3.14159
         Item               Value     Threshold  Converged?
 Maximum Force             .130366      .000450     NO 
 RMS     Force             .041846      .000300     NO 
 Maximum Displacement      .161779      .001800     NO 
 RMS     Displacement      .057775      .001200     NO 
 Predicted change in Energy=-2.812162D-02
 GradGradGradGradGradGradGradGradGradGradGradGradGradGradGradGradGradGrad

                          Input orientation:                          
 ---------------------------------------------------------------------
 Center     Atomic     Atomic              Coordinates (Angstroms)
 Number     Number      Type              X           Y           Z
 ---------------------------------------------------------------------
    1          7             0       -1.208903    -.277362     .000000
    2          7             0        -.716508     .960768     .000000
    3          7             0         .672990     .837950     .000000
    4          1             0        1.254416    1.664757     .000000
    5          7             0        -.149714   -1.210838     .000000
    6          6             0        1.003955    -.502980     .000000
    7          1             0        2.006670    -.900749     .000000
 ---------------------------------------------------------------------
                    Distance matrix (angstroms):
                    1          2          3          4          5
     1  N     .000000
     2  N    1.332449    .000000
     3  N    2.187566   1.394916    .000000
     4  H    3.136840   2.092878   1.010774    .000000
     5  N    1.411828   2.244355   2.207799   3.200098    .000000
     6  C    2.224330   2.258883   1.381170   2.182158   1.353520
     7  H    3.275442   3.298627   2.191296   2.673519   2.178565
                    6          7
     6  C     .000000
     7  H    1.078729    .000000
 Stoichiometry    CH2N4
 Framework group  CS[SG(CH2N4)]
 Deg. of freedom   11
 Full point group                 CS      NOp   2
 Largest Abelian subgroup         CS      NOp   2
 Largest concise Abelian subgroup C1      NOp   1
                         Standard orientation:                         
 ---------------------------------------------------------------------
 Center     Atomic     Atomic              Coordinates (Angstroms)
 Number     Number      Type              X           Y           Z
 ---------------------------------------------------------------------
    1          7             0        -.749813    -.969298     .000000
    2          7             0       -1.153019     .300680     .000000
    3          7             0         .000000    1.085751     .000000
    4          1             0        -.073779    2.093828     .000000
    5          7             0         .661078   -1.020752     .000000
    6          6             0        1.105455     .257741     .000000
    7          1             0        2.133327     .585059     .000000
 ---------------------------------------------------------------------
 Rotational constants (GHZ):      9.9342770      9.7350793      4.9168347
 Isotopes: N-14,N-14,N-14,H-1,N-14,C-12,H-1
 Standard basis: SDD (6D, 10F)
 There are    44 symmetry adapted basis functions of A'  symmetry.
 There are    10 symmetry adapted basis functions of A"  symmetry.
 Crude estimate of integral set expansion from redundant integrals=1.000.
 Integral buffers will be    262144 words long.
 Raffenetti 1 integral format.
 Two-electron integral symmetry is turned on.
    54 basis functions      128 primitive gaussians
    18 alpha electrons       18 beta electrons
       nuclear repulsion energy       161.9233517894 Hartrees.
 One-electron integrals computed using PRISM.
   1 Symmetry operations used in ECPInt.
 ECPInt:  NShTT=     595 NPrTT=    3192 LenC2=     591 LenP2D=    2521.
 LDataN:  DoStor=F MaxTD1= 2 Len=   12
 LDataN:  DoStor=T MaxTD1= 2 Len=   12
 NBasis=    54 RedAO= T  NBF=    44    10
 NBsUse=    54 1.00D-04 NBFU=    44    10
 Initial guess read from the read-write file:
 Initial guess orbital symmetries:
       Occupied  (A') (A') (A') (A') (A') (A') (A') (A') (A') (A')
                 (A') (A") (A') (A') (A') (A") (A') (A")
       Virtual   (A") (A") (A') (A') (A') (A') (A') (A") (A') (A')
                 (A') (A') (A") (A') (A") (A') (A') (A') (A") (A")
                 (A') (A') (A') (A') (A') (A') (A') (A') (A') (A')
                 (A') (A') (A') (A') (A') (A')
 Requested convergence on RMS density matrix=1.00D-08 within  64 cycles.
 Requested convergence on MAX density matrix=1.00D-06.
 Keep R1 integrals in memory in canonical form, NReq=     1517656.
 SCF Done:  E(RHF) =  -256.630421025     A.U. after   14 cycles
             Convg  =     .7601D-08             -V/T =  2.0010
             S**2   =    .0000
 Range of M.O.s used for correlation:     6    54
 NBasis=    54 NAE=    18 NBE=    18 NFC=     5 NFV=     0
 NROrb=     49 NOA=    13 NOB=    13 NVA=    36 NVB=    36
 Fully direct method using O(ONN) memory.
 JobTyp=1 Pass  1:  I=   6 to  18.
 Spin components of T(2) and E(2):
     alpha-alpha T2 =        .3274834875D-01 E2=      -.7416873938D-01
     alpha-beta  T2 =        .1741380125D+00 E2=      -.4010147974D+00
     beta-beta   T2 =        .3274834875D-01 E2=      -.7416873938D-01
 ANorm=     .1113388840D+01
 E2 =     -.5493522762D+00 EUMP2 =     -.25717977330093D+03
          Differentiating once with respect to electric field.
                with respect to dipole field.
          Differentiating once with respect to nuclear coordinates.
          Store integrals in memory, NReq=     1513674.
          There are   1 degrees of freedom in the 1st order CPHF.
   1 vectors were produced by pass  0.
 AX will form   1 AO Fock derivatives at one time.
   1 vectors were produced by pass  1.
   1 vectors were produced by pass  2.
   1 vectors were produced by pass  3.
   1 vectors were produced by pass  4.
   1 vectors were produced by pass  5.
   1 vectors were produced by pass  6.
   1 vectors were produced by pass  7.
   1 vectors were produced by pass  8.
   1 vectors were produced by pass  9.
   1 vectors were produced by pass 10.
   1 vectors were produced by pass 11.
   1 vectors were produced by pass 12.
   1 vectors were produced by pass 13.
   1 vectors were produced by pass 14.
 Inv2:  IOpt= 1 Iter= 1 AM= 5.32D-16 Conv= 1.00D-12.
 Inverted reduced A of dimension  15 with in-core refinement.
   2 Symmetry operations used in ECPInt.
 ECPInt:  NShTT=     595 NPrTT=    3192 LenC2=     591 LenP2D=    2521.
 LDataN:  DoStor=F MaxTD1= 3 Len=   28
 LDataN:  DoStor=T MaxTD1= 3 Len=   28
 ***** Axes restored to original set *****
 -------------------------------------------------------------------
 Center     Atomic                   Forces (Hartrees/Bohr)
 Number     Number              X              Y              Z
 -------------------------------------------------------------------
    1          7           -.019254993    -.020889965     .000000000
    2          7           -.005139078     .046168266     .000000000
    3          7            .011680694    -.004308266     .000000000
    4          1            .000778577     .004043458     .000000000
    5          7            .004940977    -.029136878     .000000000
    6          6            .005678308     .005504914     .000000000
    7          1            .001315515    -.001381528     .000000000
 -------------------------------------------------------------------
 Cartesian Forces:  Max      .046168266 RMS      .013932793

 GradGradGradGradGradGradGradGradGradGradGradGradGradGradGradGradGradGrad
 Berny optimization.
 Internal  Forces:  Max      .037036209 RMS      .009878633
 Search for a local minimum.
 Step number   2 out of a maximum of  36
 All quantities printed in internal units (Hartrees-Bohrs-Radians)
 Update second derivatives using information from points  1  2
 Trust test= 1.24D+00 RLast= 2.92D-01 DXMaxT set to 4.24D-01
     Eigenvalues ---     .02505    .02633    .02676    .02834    .15986
     Eigenvalues ---     .16000    .22636    .24703    .37520    .48556
     Eigenvalues ---     .50090    .55979    .57824    .68372    .71995
     Eigenvalues --- 1000.000001000.000001000.000001000.000001000.00000
     Eigenvalues --- 1000.000001000.000001000.000001000.000001000.00000
     Eigenvalues --- 1000.00000
 RFO step:  Lambda=-2.86183937D-03.
 Quartic linear search produced a step of   .34983.
 Iteration  1 RMS(Cart)=   .02555681 RMS(Int)=   .00045667
 Iteration  2 RMS(Cart)=   .00048864 RMS(Int)=   .00012539
 Iteration  3 RMS(Cart)=   .00000012 RMS(Int)=   .00012539
 Variable       Old X    -DE/DX   Delta X   Delta X   Delta X     New X
                                 (Linear)    (Quad)   (Total)
    R1        2.51796    .03704    .05308    .02503    .07829   2.59625
    R2        2.66797    .01899    .04661    .01655    .06322   2.73119
    R3        2.63601    .01381    .04545   -.00057    .04492   2.68093
    R4        1.91009    .00376    .01101    .00323    .01424   1.92432
    R5        2.61003    .00905    .03371   -.00764    .02593   2.63596
    R6        2.55778    .01244    .04244   -.00912    .03318   2.59096
    R7        2.03850    .00173    .00725    .00198    .00923   2.04773
    A1        1.91467    .00440   -.01019    .04835    .03845   1.95312
    A2        1.86115   -.01131   -.00023   -.04836   -.04830   1.81285
    A3        2.09552   -.00457   -.00422   -.02246   -.02663   2.06889
    A4        1.90094    .00591    .00545    .01880    .02414   1.92508
    A5        2.28673   -.00134   -.00123    .00366    .00249   2.28922
    A6        1.86886   -.00724    .00798   -.04732   -.03950   1.82936
    A7        1.87915    .00824   -.00302    .02853    .02521   1.90437
    A8        2.19043   -.00331    .00281   -.00778   -.00483   2.18560
    A9        2.21360   -.00494    .00022   -.02075   -.02039   2.19321
    D1         .00000    .00000    .00000    .00000    .00000    .00000
    D2         .00000    .00000    .00000    .00000    .00000    .00000
    D3        3.14159    .00000    .00000    .00000    .00000   3.14159
    D4         .00000    .00000    .00000    .00000    .00000    .00000
    D5         .00000    .00000    .00000    .00000    .00000    .00000
    D6        3.14159    .00000    .00000    .00000    .00000   3.14159
    D7        3.14159    .00000    .00000    .00000    .00000   3.14159
    D8         .00000    .00000    .00000    .00000    .00000    .00000
    D9         .00000    .00000    .00000    .00000    .00000    .00000
   D10        3.14159    .00000    .00000    .00000    .00000   3.14159
         Item               Value     Threshold  Converged?
 Maximum Force             .037036      .000450     NO 
 RMS     Force             .009879      .000300     NO 
 Maximum Displacement      .084464      .001800     NO 
 RMS     Displacement      .025595      .001200     NO 
 Predicted change in Energy=-4.425856D-03
 GradGradGradGradGradGradGradGradGradGradGradGradGradGradGradGradGradGrad

                          Input orientation:                          
 ---------------------------------------------------------------------
 Center     Atomic     Atomic              Coordinates (Angstroms)
 Number     Number      Type              X           Y           Z
 ---------------------------------------------------------------------
    1          7             0       -1.198988    -.279996     .000000
    2          7             0        -.720032    1.007694     .000000
    3          7             0         .689440     .846255     .000000
    4          1             0        1.274576    1.679661     .000000
    5          7             0        -.130152   -1.252845     .000000
    6          6             0        1.021331    -.508578     .000000
    7          1             0        2.029811    -.905042     .000000
 ---------------------------------------------------------------------
                    Distance matrix (angstroms):
                    1          2          3          4          5
     1  N     .000000
     2  N    1.373879    .000000
     3  N    2.198772   1.418688    .000000
     4  H    3.155753   2.104757   1.018308    .000000
     5  N    1.445284   2.336235   2.253431   3.251593    .000000
     6  C    2.232053   2.308987   1.394891   2.202844   1.371075
     7  H    3.288742   3.349656   2.205364   2.692781   2.187786
                    6          7
     6  C     .000000
     7  H    1.083613    .000000
 Stoichiometry    CH2N4
 Framework group  CS[SG(CH2N4)]
 Deg. of freedom   11
 Full point group                 CS      NOp   2
 Largest Abelian subgroup         CS      NOp   2
 Largest concise Abelian subgroup C1      NOp   1
                         Standard orientation:                         
 ---------------------------------------------------------------------
 Center     Atomic     Atomic              Coordinates (Angstroms)
 Number     Number      Type              X           Y           Z
 ---------------------------------------------------------------------
    1          7             0        -.750176    -.973163     .000000
    2          7             0       -1.193768     .327133     .000000
    3          7             0         .000000    1.093679     .000000
    4          1             0        -.073991    2.109295     .000000
    5          7             0         .693035   -1.050535     .000000
    6          6             0        1.114070     .254293     .000000
    7          1             0        2.145935     .585157     .000000
 ---------------------------------------------------------------------
 Rotational constants (GHZ):      9.7240384      9.2669066      4.7449853
 Isotopes: N-14,N-14,N-14,H-1,N-14,C-12,H-1
 Standard basis: SDD (6D, 10F)
 There are    44 symmetry adapted basis functions of A'  symmetry.
 There are    10 symmetry adapted basis functions of A"  symmetry.
 Crude estimate of integral set expansion from redundant integrals=1.000.
 Integral buffers will be    262144 words long.
 Raffenetti 1 integral format.
 Two-electron integral symmetry is turned on.
    54 basis functions      128 primitive gaussians
    18 alpha electrons       18 beta electrons
       nuclear repulsion energy       159.1001916691 Hartrees.
 One-electron integrals computed using PRISM.
   1 Symmetry operations used in ECPInt.
 ECPInt:  NShTT=     595 NPrTT=    3192 LenC2=     591 LenP2D=    2509.
 LDataN:  DoStor=F MaxTD1= 2 Len=   12
 LDataN:  DoStor=T MaxTD1= 2 Len=   12
 NBasis=    54 RedAO= T  NBF=    44    10
 NBsUse=    54 1.00D-04 NBFU=    44    10
 Initial guess read from the read-write file:
 Initial guess orbital symmetries:
       Occupied  (A') (A') (A') (A') (A') (A') (A') (A') (A') (A')
                 (A') (A') (A") (A') (A') (A') (A") (A")
       Virtual   (A") (A") (A') (A') (A') (A') (A') (A") (A') (A')
                 (A') (A') (A') (A") (A') (A") (A') (A') (A') (A")
                 (A") (A') (A') (A') (A') (A') (A') (A') (A') (A')
                 (A') (A') (A') (A') (A') (A')
 Requested convergence on RMS density matrix=1.00D-08 within  64 cycles.
 Requested convergence on MAX density matrix=1.00D-06.
 Keep R1 integrals in memory in canonical form, NReq=     1517656.
 SCF Done:  E(RHF) =  -256.615875976     A.U. after   14 cycles
             Convg  =     .6858D-08             -V/T =  2.0022
             S**2   =    .0000
 Range of M.O.s used for correlation:     6    54
 NBasis=    54 NAE=    18 NBE=    18 NFC=     5 NFV=     0
 NROrb=     49 NOA=    13 NOB=    13 NVA=    36 NVB=    36
 Fully direct method using O(ONN) memory.
 JobTyp=1 Pass  1:  I=   6 to  18.
 Spin components of T(2) and E(2):
     alpha-alpha T2 =        .3490340790D-01 E2=      -.7670799372D-01
     alpha-beta  T2 =        .1848390451D+00 E2=      -.4131215501D+00
     beta-beta   T2 =        .3490340790D-01 E2=      -.7670799372D-01
 ANorm=     .1120109754D+01
 E2 =     -.5665375376D+00 EUMP2 =     -.25718241351371D+03
          Differentiating once with respect to electric field.
                with respect to dipole field.
          Differentiating once with respect to nuclear coordinates.
          Store integrals in memory, NReq=     1513674.
          There are   1 degrees of freedom in the 1st order CPHF.
   1 vectors were produced by pass  0.
 AX will form   1 AO Fock derivatives at one time.
   1 vectors were produced by pass  1.
   1 vectors were produced by pass  2.
   1 vectors were produced by pass  3.
   1 vectors were produced by pass  4.
   1 vectors were produced by pass  5.
   1 vectors were produced by pass  6.
   1 vectors were produced by pass  7.
   1 vectors were produced by pass  8.
   1 vectors were produced by pass  9.
   1 vectors were produced by pass 10.
   1 vectors were produced by pass 11.
   1 vectors were produced by pass 12.
   1 vectors were produced by pass 13.
   1 vectors were produced by pass 14.
 Inv2:  IOpt= 1 Iter= 1 AM= 3.56D-16 Conv= 1.00D-12.
 Inverted reduced A of dimension  15 with in-core refinement.
   2 Symmetry operations used in ECPInt.
 ECPInt:  NShTT=     595 NPrTT=    3192 LenC2=     591 LenP2D=    2509.
 LDataN:  DoStor=F MaxTD1= 3 Len=   28
 LDataN:  DoStor=T MaxTD1= 3 Len=   28
 ***** Axes restored to original set *****
 -------------------------------------------------------------------
 Center     Atomic                   Forces (Hartrees/Bohr)
 Number     Number              X              Y              Z
 -------------------------------------------------------------------
    1          7           -.019324436    -.011281890     .000000000
    2          7            .010620899    -.002362450     .000000000
    3          7            .006052365    -.003363194     .000000000
    4          1            .000406763    -.002366960     .000000000
    5          7            .004508873     .011574327     .000000000
    6          6           -.001849768     .006577366     .000000000
    7          1           -.000414697     .001222801     .000000000
 -------------------------------------------------------------------
 Cartesian Forces:  Max      .019324436 RMS      .006456651

 GradGradGradGradGradGradGradGradGradGradGradGradGradGradGradGradGradGrad
 Berny optimization.
 Internal  Forces:  Max      .017420017 RMS      .005390981
 Search for a local minimum.
 Step number   3 out of a maximum of  36
 All quantities printed in internal units (Hartrees-Bohrs-Radians)
 Update second derivatives using information from points  1  2  3
 Trust test= 5.97D-01 RLast= 1.48D-01 DXMaxT set to 4.24D-01
     Eigenvalues ---     .02508    .02633    .02674    .02830    .16000
     Eigenvalues ---     .16059    .22607    .28076    .37631    .38422
     Eigenvalues ---     .48907    .53874    .63023    .65556    .70740
     Eigenvalues --- 1000.000001000.000001000.000001000.000001000.00000
     Eigenvalues --- 1000.000001000.000001000.000001000.000001000.00000
     Eigenvalues --- 1000.00000
 RFO step:  Lambda=-1.51386940D-03.
 Quartic linear search produced a step of  -.18709.
 Iteration  1 RMS(Cart)=   .01434124 RMS(Int)=   .00019576
 Iteration  2 RMS(Cart)=   .00015266 RMS(Int)=   .00007539
 Iteration  3 RMS(Cart)=   .00000001 RMS(Int)=   .00007539
 Variable       Old X    -DE/DX   Delta X   Delta X   Delta X     New X
                                 (Linear)    (Quad)   (Total)
    R1        2.59625    .00774   -.01465    .03704    .02246   2.61871
    R2        2.73119   -.00024   -.01183    .02230    .01057   2.74176
    R3        2.68093    .00131   -.00840    .01692    .00844   2.68937
    R4        1.92432   -.00170   -.00266    .00186   -.00080   1.92352
    R5        2.63596   -.01239   -.00485   -.01032   -.01527   2.62069
    R6        2.59096   -.00025   -.00621    .01006    .00386   2.59482
    R7        2.04773   -.00083   -.00173    .00110   -.00063   2.04710
    A1        1.95312   -.01742   -.00719   -.03721   -.04420   1.90892
    A2        1.81285    .01007    .00904    .02015    .02915   1.84200
    A3        2.06889    .00320    .00498    .00691    .01197   2.08086
    A4        1.92508   -.00314   -.00452   -.00667   -.01136   1.91371
    A5        2.28922   -.00006   -.00047   -.00023   -.00061   2.28861
    A6        1.82936    .01048    .00739    .01913    .02664   1.85600
    A7        1.90437    .00001   -.00472    .00460   -.00023   1.90414
    A8        2.18560   -.00101    .00090   -.00501   -.00405   2.18155
    A9        2.19321    .00101    .00381    .00041    .00428   2.19750
    D1         .00000    .00000    .00000    .00000    .00000    .00000
    D2         .00000    .00000    .00000    .00000    .00000    .00000
    D3        3.14159    .00000    .00000    .00000    .00000   3.14159
    D4         .00000    .00000    .00000    .00000    .00000    .00000
    D5         .00000    .00000    .00000    .00000    .00000    .00000
    D6        3.14159    .00000    .00000    .00000    .00000   3.14159
    D7        3.14159    .00000    .00000    .00000    .00000   3.14159
    D8         .00000    .00000    .00000    .00000    .00000    .00000
    D9         .00000    .00000    .00000    .00000    .00000    .00000
   D10        3.14159    .00000    .00000    .00000    .00000   3.14159
         Item               Value     Threshold  Converged?
 Maximum Force             .017420      .000450     NO 
 RMS     Force             .005391      .000300     NO 
 Maximum Displacement      .053194      .001800     NO 
 RMS     Displacement      .014362      .001200     NO 
 Predicted change in Energy=-9.034731D-04
 GradGradGradGradGradGradGradGradGradGradGradGradGradGradGradGradGradGrad

                          Input orientation:                          
 ---------------------------------------------------------------------
 Center     Atomic     Atomic              Coordinates (Angstroms)
 Number     Number      Type              X           Y           Z
 ---------------------------------------------------------------------
    1          7             0       -1.224755    -.290343     .000000
    2          7             0        -.714162     .997926     .000000
    3          7             0         .700983     .847153     .000000
    4          1             0        1.289266    1.677823     .000000
    5          7             0        -.129653   -1.242080     .000000
    6          6             0        1.026287    -.500964     .000000
    7          1             0        2.034693    -.896709     .000000
 ---------------------------------------------------------------------
                    Distance matrix (angstroms):
                    1          2          3          4          5
     1  N     .000000
     2  N    1.385764    .000000
     3  N    2.236597   1.423155    .000000
     4  H    3.192801   2.115652   1.017885    .000000
     5  N    1.450879   2.315011   2.248300   3.246408    .000000
     6  C    2.260874   2.296918   1.386810   2.194601   1.373117
     7  H    3.315370   3.338539   2.195412   2.680276   2.191728
                    6          7
     6  C     .000000
     7  H    1.083280    .000000
 Stoichiometry    CH2N4
 Framework group  CS[SG(CH2N4)]
 Deg. of freedom   11
 Full point group                 CS      NOp   2
 Largest Abelian subgroup         CS      NOp   2
 Largest concise Abelian subgroup C1      NOp   1
                         Standard orientation:                         
 ---------------------------------------------------------------------
 Center     Atomic     Atomic              Coordinates (Angstroms)
 Number     Number      Type              X           Y           Z
 ---------------------------------------------------------------------
    1          7             0        -.755991   -1.002998     .000000
    2          7             0       -1.185467     .314534     .000000
    3          7             0         .000000    1.101958     .000000
    4          1             0        -.077535    2.116886     .000000
    5          7             0         .694504   -1.036386     .000000
    6          6             0        1.111058     .272023     .000000
    7          1             0        2.139863     .611222     .000000
 ---------------------------------------------------------------------
 Rotational constants (GHZ):      9.5009066      9.3917373      4.7230033
 Isotopes: N-14,N-14,N-14,H-1,N-14,C-12,H-1
 Standard basis: SDD (6D, 10F)
 There are    44 symmetry adapted basis functions of A'  symmetry.
 There are    10 symmetry adapted basis functions of A"  symmetry.
 Crude estimate of integral set expansion from redundant integrals=1.000.
 Integral buffers will be    262144 words long.
 Raffenetti 1 integral format.
 Two-electron integral symmetry is turned on.
    54 basis functions      128 primitive gaussians
    18 alpha electrons       18 beta electrons
       nuclear repulsion energy       158.7198056918 Hartrees.
 One-electron integrals computed using PRISM.
   1 Symmetry operations used in ECPInt.
 ECPInt:  NShTT=     595 NPrTT=    3192 LenC2=     591 LenP2D=    2508.
 LDataN:  DoStor=F MaxTD1= 2 Len=   12
 LDataN:  DoStor=T MaxTD1= 2 Len=   12
 NBasis=    54 RedAO= T  NBF=    44    10
 NBsUse=    54 1.00D-04 NBFU=    44    10
 Initial guess read from the read-write file:
 Initial guess orbital symmetries:
       Occupied  (A') (A') (A') (A') (A') (A') (A') (A') (A') (A')
                 (A') (A') (A") (A') (A') (A') (A") (A")
       Virtual   (A") (A") (A') (A') (A') (A') (A') (A') (A") (A')
                 (A') (A') (A') (A") (A') (A') (A") (A') (A') (A")
                 (A") (A') (A') (A') (A') (A') (A') (A') (A') (A')
                 (A') (A') (A') (A') (A') (A')
 Requested convergence on RMS density matrix=1.00D-08 within  64 cycles.
 Requested convergence on MAX density matrix=1.00D-06.
 Keep R1 integrals in memory in canonical form, NReq=     1517656.
 SCF Done:  E(RHF) =  -256.613759941     A.U. after   14 cycles
             Convg  =     .6685D-08             -V/T =  2.0024
             S**2   =    .0000
 Range of M.O.s used for correlation:     6    54
 NBasis=    54 NAE=    18 NBE=    18 NFC=     5 NFV=     0
 NROrb=     49 NOA=    13 NOB=    13 NVA=    36 NVB=    36
 Fully direct method using O(ONN) memory.
 JobTyp=1 Pass  1:  I=   6 to  18.
 Spin components of T(2) and E(2):
     alpha-alpha T2 =        .3527743307D-01 E2=      -.7712983425D-01
     alpha-beta  T2 =        .1866261013D+00 E2=      -.4150036959D+00
     beta-beta   T2 =        .3527743307D-01 E2=      -.7712983425D-01
 ANorm=     .1121240816D+01
 E2 =     -.5692633644D+00 EUMP2 =     -.25718302330560D+03
          Differentiating once with respect to electric field.
                with respect to dipole field.
          Differentiating once with respect to nuclear coordinates.
          Store integrals in memory, NReq=     1513674.
          There are   1 degrees of freedom in the 1st order CPHF.
   1 vectors were produced by pass  0.
 AX will form   1 AO Fock derivatives at one time.
   1 vectors were produced by pass  1.
   1 vectors were produced by pass  2.
   1 vectors were produced by pass  3.
   1 vectors were produced by pass  4.
   1 vectors were produced by pass  5.
   1 vectors were produced by pass  6.
   1 vectors were produced by pass  7.
   1 vectors were produced by pass  8.
   1 vectors were produced by pass  9.
   1 vectors were produced by pass 10.
   1 vectors were produced by pass 11.
   1 vectors were produced by pass 12.
   1 vectors were produced by pass 13.
   1 vectors were produced by pass 14.
 Inv2:  IOpt= 1 Iter= 1 AM= 8.54D-16 Conv= 1.00D-12.
 Inverted reduced A of dimension  15 with in-core refinement.
   2 Symmetry operations used in ECPInt.
 ECPInt:  NShTT=     595 NPrTT=    3192 LenC2=     591 LenP2D=    2508.
 LDataN:  DoStor=F MaxTD1= 3 Len=   28
 LDataN:  DoStor=T MaxTD1= 3 Len=   28
 ***** Axes restored to original set *****
 -------------------------------------------------------------------
 Center     Atomic                   Forces (Hartrees/Bohr)
 Number     Number              X              Y              Z
 -------------------------------------------------------------------
    1          7            .007037954    -.002796881     .000000000
    2          7            .002750812     .007239021     .000000000
    3          7           -.005054481    -.005854536     .000000000
    4          1           -.001408832    -.000907294     .000000000
    5          7            .003269628     .001324618     .000000000
    6          6           -.005786957     .001206203     .000000000
    7          1           -.000808124    -.000211130     .000000000
 -------------------------------------------------------------------
 Cartesian Forces:  Max      .007239021 RMS      .003295333

 GradGradGradGradGradGradGradGradGradGradGradGradGradGradGradGradGradGrad
 Berny optimization.
 Internal  Forces:  Max      .006936734 RMS      .002733370
 Search for a local minimum.
 Step number   4 out of a maximum of  36
 All quantities printed in internal units (Hartrees-Bohrs-Radians)
 Update second derivatives using information from points  1  2  3  4
 Trust test= 6.75D-01 RLast= 6.90D-02 DXMaxT set to 4.24D-01
     Eigenvalues ---     .02506    .02630    .02680    .02834    .16002
     Eigenvalues ---     .16058    .22755    .30949    .37540    .46226
     Eigenvalues ---     .48844    .54443    .59192    .65643    .77490
     Eigenvalues --- 1000.000001000.000001000.000001000.000001000.00000
     Eigenvalues --- 1000.000001000.000001000.000001000.000001000.00000
     Eigenvalues --- 1000.00000
 RFO step:  Lambda=-1.58297676D-04.
 Quartic linear search produced a step of  -.24232.
 Iteration  1 RMS(Cart)=   .00480089 RMS(Int)=   .00002507
 Iteration  2 RMS(Cart)=   .00001081 RMS(Int)=   .00002146
 Iteration  3 RMS(Cart)=   .00000000 RMS(Int)=   .00002146
 Variable       Old X    -DE/DX   Delta X   Delta X   Delta X     New X
                                 (Linear)    (Quad)   (Total)
    R1        2.61871    .00183   -.00544    .00628    .00082   2.61954
    R2        2.74176   -.00262   -.00256   -.00163   -.00423   2.73754
    R3        2.68937   -.00549   -.00205   -.00486   -.00689   2.68249
    R4        1.92352   -.00155    .00019   -.00302   -.00283   1.92070
    R5        2.62069   -.00255    .00370   -.00932   -.00559   2.61510
    R6        2.59482   -.00694   -.00094   -.00686   -.00780   2.58702
    R7        2.04710   -.00068    .00015   -.00173   -.00158   2.04553
    A1        1.90892    .00451    .01071   -.00245    .00820   1.91712
    A2        1.84200   -.00638   -.00706   -.00422   -.01127   1.83073
    A3        2.08086   -.00241   -.00290   -.00240   -.00533   2.07554
    A4        1.91371    .00362    .00275    .00497    .00778   1.92149
    A5        2.28861   -.00121    .00015   -.00257   -.00245   2.28616
    A6        1.85600   -.00330   -.00646    .00147   -.00502   1.85098
    A7        1.90414    .00155    .00006    .00023    .00032   1.90446
    A8        2.18155   -.00027    .00098    .00044    .00140   2.18295
    A9        2.19750   -.00128   -.00104   -.00067   -.00172   2.19578
    D1         .00000    .00000    .00000    .00000    .00000    .00000
    D2         .00000    .00000    .00000    .00000    .00000    .00000
    D3        3.14159    .00000    .00000    .00000    .00000   3.14159
    D4         .00000    .00000    .00000    .00000    .00000    .00000
    D5         .00000    .00000    .00000    .00000    .00000    .00000
    D6        3.14159    .00000    .00000    .00000    .00000   3.14159
    D7        3.14159    .00000    .00000    .00000    .00000   3.14159
    D8         .00000    .00000    .00000    .00000    .00000    .00000
    D9         .00000    .00000    .00000    .00000    .00000    .00000
   D10        3.14159    .00000    .00000    .00000    .00000   3.14159
         Item               Value     Threshold  Converged?
 Maximum Force             .006937      .000450     NO 
 RMS     Force             .002733      .000300     NO 
 Maximum Displacement      .014446      .001800     NO 
 RMS     Displacement      .004803      .001200     NO 
 Predicted change in Energy=-1.485340D-04
 GradGradGradGradGradGradGradGradGradGradGradGradGradGradGradGradGradGrad

                          Input orientation:                          
 ---------------------------------------------------------------------
 Center     Atomic     Atomic              Coordinates (Angstroms)
 Number     Number      Type              X           Y           Z
 ---------------------------------------------------------------------
    1          7             0       -1.214571    -.287581     .000000
    2          7             0        -.710659    1.003783     .000000
    3          7             0         .699940     .844975     .000000
    4          1             0        1.287889    1.674048     .000000
    5          7             0        -.123913   -1.241013     .000000
    6          6             0        1.026981    -.499679     .000000
    7          1             0        2.034769    -.894712     .000000
 ---------------------------------------------------------------------
                    Distance matrix (angstroms):
                    1          2          3          4          5
     1  N     .000000
     2  N    1.386199    .000000
     3  N    2.224417   1.419511    .000000
     4  H    3.179669   2.107950   1.016389    .000000
     5  N    1.448643   2.320212   2.242784   3.238945    .000000
     6  C    2.251563   2.297780   1.383853   2.189329   1.368990
     7  H    3.305574   3.337913   2.192779   2.675137   2.186284
                    6          7
     6  C     .000000
     7  H    1.082446    .000000
 Stoichiometry    CH2N4
 Framework group  CS[SG(CH2N4)]
 Deg. of freedom   11
 Full point group                 CS      NOp   2
 Largest Abelian subgroup         CS      NOp   2
 Largest concise Abelian subgroup C1      NOp   1
                         Standard orientation:                         
 ---------------------------------------------------------------------
 Center     Atomic     Atomic              Coordinates (Angstroms)
 Number     Number      Type              X           Y           Z
 ---------------------------------------------------------------------
    1          7             0        -.752772    -.997139     .000000
    2          7             0       -1.187941     .318982     .000000
    3          7             0         .000000    1.096033     .000000
    4          1             0        -.075675    2.109601     .000000
    5          7             0         .695344   -1.036237     .000000
    6          6             0        1.109288     .268670     .000000
    7          1             0        2.137531     .606910     .000000
 ---------------------------------------------------------------------
 Rotational constants (GHZ):      9.5774643      9.3865505      4.7405232
 Isotopes: N-14,N-14,N-14,H-1,N-14,C-12,H-1
 Standard basis: SDD (6D, 10F)
 There are    44 symmetry adapted basis functions of A'  symmetry.
 There are    10 symmetry adapted basis functions of A"  symmetry.
 Crude estimate of integral set expansion from redundant integrals=1.000.
 Integral buffers will be    262144 words long.
 Raffenetti 1 integral format.
 Two-electron integral symmetry is turned on.
    54 basis functions      128 primitive gaussians
    18 alpha electrons       18 beta electrons
       nuclear repulsion energy       159.0101488126 Hartrees.
 One-electron integrals computed using PRISM.
   1 Symmetry operations used in ECPInt.
 ECPInt:  NShTT=     595 NPrTT=    3192 LenC2=     591 LenP2D=    2508.
 LDataN:  DoStor=F MaxTD1= 2 Len=   12
 LDataN:  DoStor=T MaxTD1= 2 Len=   12
 NBasis=    54 RedAO= T  NBF=    44    10
 NBsUse=    54 1.00D-04 NBFU=    44    10
 Initial guess read from the read-write file:
 Initial guess orbital symmetries:
       Occupied  (A') (A') (A') (A') (A') (A') (A') (A') (A') (A')
                 (A') (A') (A") (A') (A') (A') (A") (A")
       Virtual   (A") (A") (A') (A') (A') (A') (A') (A') (A") (A')
                 (A') (A') (A') (A") (A') (A') (A") (A') (A') (A")
                 (A") (A') (A') (A') (A') (A') (A') (A') (A') (A')
                 (A') (A') (A') (A') (A') (A')
 Requested convergence on RMS density matrix=1.00D-08 within  64 cycles.
 Requested convergence on MAX density matrix=1.00D-06.
 Keep R1 integrals in memory in canonical form, NReq=     1517656.
 SCF Done:  E(RHF) =  -256.615181514     A.U. after   13 cycles
             Convg  =     .8305D-08             -V/T =  2.0022
             S**2   =    .0000
 Range of M.O.s used for correlation:     6    54
 NBasis=    54 NAE=    18 NBE=    18 NFC=     5 NFV=     0
 NROrb=     49 NOA=    13 NOB=    13 NVA=    36 NVB=    36
 Fully direct method using O(ONN) memory.
 JobTyp=1 Pass  1:  I=   6 to  18.
 Spin components of T(2) and E(2):
     alpha-alpha T2 =        .3512678415D-01 E2=      -.7696381181D-01
     alpha-beta  T2 =        .1858130667D+00 E2=      -.4140972946D+00
     beta-beta   T2 =        .3512678415D-01 E2=      -.7696381181D-01
 ANorm=     .1120743787D+01
 E2 =     -.5680249182D+00 EUMP2 =     -.25718320643230D+03
          Differentiating once with respect to electric field.
                with respect to dipole field.
          Differentiating once with respect to nuclear coordinates.
          Store integrals in memory, NReq=     1513674.
          There are   1 degrees of freedom in the 1st order CPHF.
   1 vectors were produced by pass  0.
 AX will form   1 AO Fock derivatives at one time.
   1 vectors were produced by pass  1.
   1 vectors were produced by pass  2.
   1 vectors were produced by pass  3.
   1 vectors were produced by pass  4.
   1 vectors were produced by pass  5.
   1 vectors were produced by pass  6.
   1 vectors were produced by pass  7.
   1 vectors were produced by pass  8.
   1 vectors were produced by pass  9.
   1 vectors were produced by pass 10.
   1 vectors were produced by pass 11.
   1 vectors were produced by pass 12.
   1 vectors were produced by pass 13.
   1 vectors were produced by pass 14.
 Inv2:  IOpt= 1 Iter= 1 AM= 6.53D-16 Conv= 1.00D-12.
 Inverted reduced A of dimension  15 with in-core refinement.
   2 Symmetry operations used in ECPInt.
 ECPInt:  NShTT=     595 NPrTT=    3192 LenC2=     591 LenP2D=    2508.
 LDataN:  DoStor=F MaxTD1= 3 Len=   28
 LDataN:  DoStor=T MaxTD1= 3 Len=   28
 ***** Axes restored to original set *****
 -------------------------------------------------------------------
 Center     Atomic                   Forces (Hartrees/Bohr)
 Number     Number              X              Y              Z
 -------------------------------------------------------------------
    1          7            .000694156    -.003839233     .000000000
    2          7            .003481552     .002945355     .000000000
    3          7           -.001922906    -.001496281     .000000000
    4          1           -.000178897    -.000120375     .000000000
    5          7            .000684938     .001681909     .000000000
    6          6           -.002631395     .000888583     .000000000
    7          1           -.000127447    -.000059958     .000000000
 -------------------------------------------------------------------
 Cartesian Forces:  Max      .003839233 RMS      .001589136

 GradGradGradGradGradGradGradGradGradGradGradGradGradGradGradGradGradGrad
 Berny optimization.
 Internal  Forces:  Max      .002741547 RMS      .001023043
 Search for a local minimum.
 Step number   5 out of a maximum of  36
 All quantities printed in internal units (Hartrees-Bohrs-Radians)
 Update second derivatives using information from points  1  2  3  4  5

 Trust test= 1.23D+00 RLast= 2.21D-02 DXMaxT set to 4.24D-01
     Eigenvalues ---     .02507    .02630    .02679    .02833    .15985
     Eigenvalues ---     .16035    .23651    .29565    .37249    .40076
     Eigenvalues ---     .47671    .50338    .55096    .64708    .71958
     Eigenvalues --- 1000.000001000.000001000.000001000.000001000.00000
     Eigenvalues --- 1000.000001000.000001000.000001000.000001000.00000
     Eigenvalues --- 1000.00000
 RFO step:  Lambda=-4.87169568D-05.
 Quartic linear search produced a step of   .30331.
 Iteration  1 RMS(Cart)=   .00247069 RMS(Int)=   .00000329
 Iteration  2 RMS(Cart)=   .00000164 RMS(Int)=   .00000238
 Iteration  3 RMS(Cart)=   .00000000 RMS(Int)=   .00000238
 Variable       Old X    -DE/DX   Delta X   Delta X   Delta X     New X
                                 (Linear)    (Quad)   (Total)
    R1        2.61954    .00274    .00025    .00727    .00752   2.62706
    R2        2.73754   -.00186   -.00128   -.00224   -.00353   2.73401
    R3        2.68249   -.00269   -.00209   -.00394   -.00603   2.67646
    R4        1.92070   -.00020   -.00086   -.00004   -.00090   1.91980
    R5        2.61510   -.00144   -.00170   -.00376   -.00545   2.60965
    R6        2.58702   -.00205   -.00237   -.00248   -.00484   2.58218
    R7        2.04553   -.00010   -.00048   -.00003   -.00050   2.04502
    A1        1.91712   -.00018    .00249   -.00323   -.00075   1.91637
    A2        1.83073   -.00090   -.00342    .00087   -.00255   1.82818
    A3        2.07554   -.00028   -.00162    .00047   -.00115   2.07439
    A4        1.92149    .00042    .00236   -.00092    .00144   1.92293
    A5        2.28616   -.00014   -.00074    .00045   -.00029   2.28587
    A6        1.85098   -.00032   -.00152    .00031   -.00121   1.84977
    A7        1.90446    .00098    .00010    .00297    .00307   1.90753
    A8        2.18295   -.00038    .00043   -.00106   -.00064   2.18231
    A9        2.19578   -.00059   -.00052   -.00191   -.00243   2.19334
    D1         .00000    .00000    .00000    .00000    .00000    .00000
    D2         .00000    .00000    .00000    .00000    .00000    .00000
    D3        3.14159    .00000    .00000    .00000    .00000   3.14159
    D4         .00000    .00000    .00000    .00000    .00000    .00000
    D5         .00000    .00000    .00000    .00000    .00000    .00000
    D6        3.14159    .00000    .00000    .00000    .00000   3.14159
    D7        3.14159    .00000    .00000    .00000    .00000   3.14159
    D8         .00000    .00000    .00000    .00000    .00000    .00000
    D9         .00000    .00000    .00000    .00000    .00000    .00000
   D10        3.14159    .00000    .00000    .00000    .00000   3.14159
         Item               Value     Threshold  Converged?
 Maximum Force             .002742      .000450     NO 
 RMS     Force             .001023      .000300     NO 
 Maximum Displacement      .005213      .001800     NO 
 RMS     Displacement      .002471      .001200     NO 
 Predicted change in Energy=-3.476123D-05
 GradGradGradGradGradGradGradGradGradGradGradGradGradGradGradGradGradGrad

                          Input orientation:                          
 ---------------------------------------------------------------------
 Center     Atomic     Atomic              Coordinates (Angstroms)
 Number     Number      Type              X           Y           Z
 ---------------------------------------------------------------------
    1          7             0       -1.213876    -.290399     .000000
    2          7             0        -.709015    1.004866     .000000
    3          7             0         .698068     .843367     .000000
    4          1             0        1.286584    1.671453     .000000
    5          7             0        -.123544   -1.241364     .000000
    6          6             0        1.023455    -.498719     .000000
    7          1             0        2.030963    -.893740     .000000
 ---------------------------------------------------------------------
                    Distance matrix (angstroms):
                    1          2          3          4          5
     1  N     .000000
     2  N    1.390179    .000000
     3  N    2.222827   1.416321    .000000
     4  H    3.178233   2.103985   1.015912    .000000
     5  N    1.446775   2.321276   2.240792   3.236196    .000000
     6  C    2.247009   2.293953   1.380968   2.186066   1.366428
     7  H    3.300455   3.333494   2.189555   2.671014   2.182370
                    6          7
     6  C     .000000
     7  H    1.082180    .000000
 Stoichiometry    CH2N4
 Framework group  CS[SG(CH2N4)]
 Deg. of freedom   11
 Full point group                 CS      NOp   2
 Largest Abelian subgroup         CS      NOp   2
 Largest concise Abelian subgroup C1      NOp   1
                         Standard orientation:                         
 ---------------------------------------------------------------------
 Center     Atomic     Atomic              Coordinates (Angstroms)
 Number     Number      Type              X           Y           Z
 ---------------------------------------------------------------------
    1          7             0        -.750721    -.997791     .000000
    2          7             0       -1.187205     .322087     .000000
    3          7             0         .000000    1.094427     .000000
    4          1             0        -.074270    2.107621     .000000
    5          7             0         .695558   -1.035678     .000000
    6          6             0        1.106102     .267619     .000000
    7          1             0        2.134233     .605345     .000000
 ---------------------------------------------------------------------
 Rotational constants (GHZ):      9.5951341      9.4042849      4.7493755
 Isotopes: N-14,N-14,N-14,H-1,N-14,C-12,H-1
 Standard basis: SDD (6D, 10F)
 There are    44 symmetry adapted basis functions of A'  symmetry.
 There are    10 symmetry adapted basis functions of A"  symmetry.
 Crude estimate of integral set expansion from redundant integrals=1.000.
 Integral buffers will be    262144 words long.
 Raffenetti 1 integral format.
 Two-electron integral symmetry is turned on.
    54 basis functions      128 primitive gaussians
    18 alpha electrons       18 beta electrons
       nuclear repulsion energy       159.1529096127 Hartrees.
 One-electron integrals computed using PRISM.
   1 Symmetry operations used in ECPInt.
 ECPInt:  NShTT=     595 NPrTT=    3192 LenC2=     591 LenP2D=    2508.
 LDataN:  DoStor=F MaxTD1= 2 Len=   12
 LDataN:  DoStor=T MaxTD1= 2 Len=   12
 NBasis=    54 RedAO= T  NBF=    44    10
 NBsUse=    54 1.00D-04 NBFU=    44    10
 Initial guess read from the read-write file:
 Initial guess orbital symmetries:
       Occupied  (A') (A') (A') (A') (A') (A') (A') (A') (A') (A')
                 (A') (A') (A") (A') (A') (A') (A") (A")
       Virtual   (A") (A") (A') (A') (A') (A') (A') (A') (A") (A')
                 (A') (A') (A') (A") (A') (A') (A") (A') (A') (A")
                 (A") (A') (A') (A') (A') (A') (A') (A') (A') (A')
                 (A') (A') (A') (A') (A') (A')
 Requested convergence on RMS density matrix=1.00D-08 within  64 cycles.
 Requested convergence on MAX density matrix=1.00D-06.
 Keep R1 integrals in memory in canonical form, NReq=     1517656.
 SCF Done:  E(RHF) =  -256.615480487     A.U. after   13 cycles
             Convg  =     .5197D-08             -V/T =  2.0022
             S**2   =    .0000
 Range of M.O.s used for correlation:     6    54
 NBasis=    54 NAE=    18 NBE=    18 NFC=     5 NFV=     0
 NROrb=     49 NOA=    13 NOB=    13 NVA=    36 NVB=    36
 Fully direct method using O(ONN) memory.
 JobTyp=1 Pass  1:  I=   6 to  18.
 Spin components of T(2) and E(2):
     alpha-alpha T2 =        .3510612779D-01 E2=      -.7694353411D-01
     alpha-beta  T2 =        .1856456004D+00 E2=      -.4138802122D+00
     beta-beta   T2 =        .3510612779D-01 E2=      -.7694353411D-01
 ANorm=     .1120650640D+01
 E2 =     -.5677672804D+00 EUMP2 =     -.25718324776710D+03
          Differentiating once with respect to electric field.
                with respect to dipole field.
          Differentiating once with respect to nuclear coordinates.
          Store integrals in memory, NReq=     1513674.
          There are   1 degrees of freedom in the 1st order CPHF.
   1 vectors were produced by pass  0.
 AX will form   1 AO Fock derivatives at one time.
   1 vectors were produced by pass  1.
   1 vectors were produced by pass  2.
   1 vectors were produced by pass  3.
   1 vectors were produced by pass  4.
   1 vectors were produced by pass  5.
   1 vectors were produced by pass  6.
   1 vectors were produced by pass  7.
   1 vectors were produced by pass  8.
   1 vectors were produced by pass  9.
   1 vectors were produced by pass 10.
   1 vectors were produced by pass 11.
   1 vectors were produced by pass 12.
   1 vectors were produced by pass 13.
   1 vectors were produced by pass 14.
 Inv2:  IOpt= 1 Iter= 1 AM= 6.15D-16 Conv= 1.00D-12.
 Inverted reduced A of dimension  15 with in-core refinement.
   2 Symmetry operations used in ECPInt.
 ECPInt:  NShTT=     595 NPrTT=    3192 LenC2=     591 LenP2D=    2508.
 LDataN:  DoStor=F MaxTD1= 3 Len=   28
 LDataN:  DoStor=T MaxTD1= 3 Len=   28
 ***** Axes restored to original set *****
 -------------------------------------------------------------------
 Center     Atomic                   Forces (Hartrees/Bohr)
 Number     Number              X              Y              Z
 -------------------------------------------------------------------
    1          7           -.000307078    -.002274236     .000000000
    2          7            .001373939     .001375927     .000000000
    3          7           -.001314840     .000273715     .000000000
    4          1            .000157155     .000093201     .000000000
    5          7           -.000848997     .001251491     .000000000
    6          6            .000829262    -.000681045     .000000000
    7          1            .000110559    -.000039052     .000000000
 -------------------------------------------------------------------
 Cartesian Forces:  Max      .002274236 RMS      .000826257

 GradGradGradGradGradGradGradGradGradGradGradGradGradGradGradGradGradGrad
 Berny optimization.
 Internal  Forces:  Max      .001529153 RMS      .000436154
 Search for a local minimum.
 Step number   6 out of a maximum of  36
 All quantities printed in internal units (Hartrees-Bohrs-Radians)
 Update second derivatives using information from points  1  2  3  4  5
                                                        6
 Trust test= 1.19D+00 RLast= 1.37D-02 DXMaxT set to 4.24D-01
     Eigenvalues ---     .02507    .02630    .02680    .02833    .15887
     Eigenvalues ---     .16047    .19853    .29612    .36586    .38015
     Eigenvalues ---     .47426    .49569    .55321    .66020    .75065
     Eigenvalues --- 1000.000001000.000001000.000001000.000001000.00000
     Eigenvalues --- 1000.000001000.000001000.000001000.000001000.00000
     Eigenvalues --- 1000.00000
 RFO step:  Lambda=-1.25681589D-05.
 Quartic linear search produced a step of   .22184.
 Iteration  1 RMS(Cart)=   .00101628 RMS(Int)=   .00000124
 Iteration  2 RMS(Cart)=   .00000105 RMS(Int)=   .00000064
 Iteration  3 RMS(Cart)=   .00000000 RMS(Int)=   .00000064
 Variable       Old X    -DE/DX   Delta X   Delta X   Delta X     New X
                                 (Linear)    (Quad)   (Total)
    R1        2.62706    .00153    .00167    .00370    .00537   2.63243
    R2        2.73401   -.00091   -.00078   -.00130   -.00208   2.73193
    R3        2.67646   -.00065   -.00134   -.00111   -.00245   2.67401
    R4        1.91980    .00017   -.00020    .00031    .00011   1.91991
    R5        2.60965    .00049   -.00121    .00051   -.00070   2.60896
    R6        2.58218    .00018   -.00107    .00007   -.00100   2.58117
    R7        2.04502    .00012   -.00011    .00032    .00021   2.04523
    A1        1.91637   -.00046   -.00017   -.00155   -.00172   1.91464
    A2        1.82818    .00001   -.00057   -.00075   -.00131   1.82687
    A3        2.07439   -.00004   -.00025   -.00064   -.00090   2.07349
    A4        1.92293    .00021    .00032    .00200    .00232   1.92525
    A5        2.28587   -.00018   -.00007   -.00136   -.00142   2.28444
    A6        1.84977    .00068   -.00027    .00258    .00231   1.85209
    A7        1.90753   -.00044    .00068   -.00228   -.00160   1.90593
    A8        2.18231    .00022   -.00014    .00125    .00111   2.18342
    A9        2.19334    .00022   -.00054    .00104    .00049   2.19384
    D1         .00000    .00000    .00000    .00000    .00000    .00000
    D2         .00000    .00000    .00000    .00000    .00000    .00000
    D3        3.14159    .00000    .00000    .00000    .00000   3.14159
    D4         .00000    .00000    .00000    .00000    .00000    .00000
    D5         .00000    .00000    .00000    .00000    .00000    .00000
    D6        3.14159    .00000    .00000    .00000    .00000   3.14159
    D7        3.14159    .00000    .00000    .00000    .00000   3.14159
    D8         .00000    .00000    .00000    .00000    .00000    .00000
    D9         .00000    .00000    .00000    .00000    .00000    .00000
   D10        3.14159    .00000    .00000    .00000    .00000   3.14159
         Item               Value     Threshold  Converged?
 Maximum Force             .001529      .000450     NO 
 RMS     Force             .000436      .000300     NO 
 Maximum Displacement      .002529      .001800     NO 
 RMS     Displacement      .001016      .001200     YES
 Predicted change in Energy=-7.689855D-06
 GradGradGradGradGradGradGradGradGradGradGradGradGradGradGradGradGradGrad

                          Input orientation:                          
 ---------------------------------------------------------------------
 Center     Atomic     Atomic              Coordinates (Angstroms)
 Number     Number      Type              X           Y           Z
 ---------------------------------------------------------------------
    1          7             0       -1.214888    -.291668     .000000
    2          7             0        -.708844    1.006185     .000000
    3          7             0         .696721     .842825     .000000
    4          1             0        1.285710    1.670647     .000000
    5          7             0        -.123861   -1.240157     .000000
    6          6             0        1.023218    -.498613     .000000
    7          1             0        2.030746    -.893890     .000000
 ---------------------------------------------------------------------
                    Distance matrix (angstroms):
                    1          2          3          4          5
     1  N     .000000
     2  N    1.393020    .000000
     3  N    2.222910   1.415026    .000000
     4  H    3.178628   2.102321   1.015971    .000000
     5  N    1.445673   2.321262   2.238787   3.234141    .000000
     6  C    2.247654   2.294440   1.380600   2.185084   1.365898
     7  H    3.301032   3.334012   2.189932   2.670567   2.182254
                    6          7
     6  C     .000000
     7  H    1.082292    .000000
 Stoichiometry    CH2N4
 Framework group  CS[SG(CH2N4)]
 Deg. of freedom   11
 Full point group                 CS      NOp   2
 Largest Abelian subgroup         CS      NOp   2
 Largest concise Abelian subgroup C1      NOp   1
                         Standard orientation:                         
 ---------------------------------------------------------------------
 Center     Atomic     Atomic              Coordinates (Angstroms)
 Number     Number      Type              X           Y           Z
 ---------------------------------------------------------------------
    1          7             0        -.750344    -.999035     .000000
    2          7             0       -1.187348     .323663     .000000
    3          7             0         .000000    1.093406     .000000
    4          1             0        -.073570    2.106710     .000000
    5          7             0         .694886   -1.034810     .000000
    6          6             0        1.106407     .267622     .000000
    7          1             0        2.134773     .604994     .000000
 ---------------------------------------------------------------------
 Rotational constants (GHZ):      9.5969836      9.4055805      4.7501590
 Isotopes: N-14,N-14,N-14,H-1,N-14,C-12,H-1
 Standard basis: SDD (6D, 10F)
 There are    44 symmetry adapted basis functions of A'  symmetry.
 There are    10 symmetry adapted basis functions of A"  symmetry.
 Crude estimate of integral set expansion from redundant integrals=1.000.
 Integral buffers will be    262144 words long.
 Raffenetti 1 integral format.
 Two-electron integral symmetry is turned on.
    54 basis functions      128 primitive gaussians
    18 alpha electrons       18 beta electrons
       nuclear repulsion energy       159.1625666369 Hartrees.
 One-electron integrals computed using PRISM.
   1 Symmetry operations used in ECPInt.
 ECPInt:  NShTT=     595 NPrTT=    3192 LenC2=     591 LenP2D=    2509.
 LDataN:  DoStor=F MaxTD1= 2 Len=   12
 LDataN:  DoStor=T MaxTD1= 2 Len=   12
 NBasis=    54 RedAO= T  NBF=    44    10
 NBsUse=    54 1.00D-04 NBFU=    44    10
 Initial guess read from the read-write file:
 Initial guess orbital symmetries:
       Occupied  (A') (A') (A') (A') (A') (A') (A') (A') (A') (A')
                 (A') (A') (A") (A') (A') (A') (A") (A")
       Virtual   (A") (A") (A') (A') (A') (A') (A') (A') (A") (A')
                 (A') (A') (A') (A") (A') (A') (A") (A') (A') (A")
                 (A") (A') (A') (A') (A') (A') (A') (A') (A') (A')
                 (A') (A') (A') (A') (A') (A')
 Requested convergence on RMS density matrix=1.00D-08 within  64 cycles.
 Requested convergence on MAX density matrix=1.00D-06.
 Keep R1 integrals in memory in canonical form, NReq=     1517656.
 SCF Done:  E(RHF) =  -256.615251468     A.U. after   12 cycles
             Convg  =     .7068D-08             -V/T =  2.0022
             S**2   =    .0000
 Range of M.O.s used for correlation:     6    54
 NBasis=    54 NAE=    18 NBE=    18 NFC=     5 NFV=     0
 NROrb=     49 NOA=    13 NOB=    13 NVA=    36 NVB=    36
 Fully direct method using O(ONN) memory.
 JobTyp=1 Pass  1:  I=   6 to  18.
 Spin components of T(2) and E(2):
     alpha-alpha T2 =        .3514477808D-01 E2=      -.7699124383D-01
     alpha-beta  T2 =        .1857903061D+00 E2=      -.4140237197D+00
     beta-beta   T2 =        .3514477808D-01 E2=      -.7699124383D-01
 ANorm=     .1120749688D+01
 E2 =     -.5680062073D+00 EUMP2 =     -.25718325767554D+03
          Differentiating once with respect to electric field.
                with respect to dipole field.
[...]
 Symmetry A'   KE= 2.470945528792D+02
 Symmetry A"   KE= 8.960169452886D+00
  Exact polarizability:  41.582   1.702  40.019    .000    .000  15.694
 Approx polarizability:  42.402   -.612  45.416    .000    .000  13.109
   2 Symmetry operations used in ECPInt.
 ECPInt:  NShTT=     595 NPrTT=    3192 LenC2=     591 LenP2D=    2509.
 LDataN:  DoStor=F MaxTD1= 4 Len=   56
 LDataN:  DoStor=T MaxTD1= 4 Len=   56
 Full mass-weighted force constant matrix:
 Low frequencies ---  -10.1356   -6.1321     .0005     .0007     .0008    5.1223
 Low frequencies ---  638.2539  677.4293  755.9789
 Harmonic frequencies (cm**-1), IR intensities (KM/Mole),
 Raman scattering activities (A**4/AMU), Raman depolarization ratios,
 reduced masses (AMU), force constants (mDyne/A) and normal coordinates:
                     1                      2                      3
                    A"                     A"                     A"
 Frequencies --   638.2539               677.4292               755.9789
 Red. masses --     4.3344                 9.7493                 1.1326
 Frc consts  --     1.0403                 2.6360                  .3814
 IR Inten    --     9.0785                  .1859               137.8350
 Raman Activ --      .0000                  .0000                  .0000
 Depolar     --      .0000                  .0000                  .0000
 Atom AN      X      Y      Z        X      Y      Z        X      Y      Z
   1   7      .00    .00   -.06      .00    .00    .52      .00    .00   -.03
   2   7      .00    .00    .26      .00    .00   -.36      .00    .00    .03
   3   7      .00    .00   -.33      .00    .00    .09      .00    .00    .09
   4   1      .00    .00   -.19      .00    .00   -.17      .00    .00   -.99
   5   7      .00    .00   -.14      .00    .00   -.47      .00    .00   -.01
   6   6      .00    .00    .25      .00    .00    .22      .00    .00   -.01
   7   1      .00    .00    .84      .00    .00    .54      .00    .00    .12
                     4                      5                      6
                    A"                     A'                     A'
 Frequencies --   778.3641               808.5699               869.8099
 Red. masses --     1.3867                 8.2756                 8.3317
 Frc consts  --      .4950                 3.1877                 3.7139
 IR Inten    --    47.3625                 9.4913                12.2263
 Raman Activ --      .0000                  .0000                  .0000
 Depolar     --      .0000                  .0000                  .0000
 Atom AN      X      Y      Z        X      Y      Z        X      Y      Z
   1   7      .00    .00    .02      .42   -.21    .00     -.20    .36    .00
   2   7      .00    .00   -.01      .03   -.05    .00      .26   -.52    .00
   3   7      .00    .00    .03      .10    .10    .00      .06    .00    .00
   4   1      .00    .00    .15      .02    .09    .00     -.56   -.06    .00
   5   7      .00    .00    .03     -.54    .16    .00     -.16    .15    .00
   6   6      .00    .00   -.18     -.04    .04    .00      .07    .05    .00
   7   1      .00    .00    .97      .17   -.63    .00      .18   -.30    .00
                     7                      8                      9
                    A'                     A'                     A'
 Frequencies --   958.8720               978.2419              1003.3726
 Red. masses --     6.2464                 7.8787                 7.6845
 Frc consts  --     3.3838                 4.4422                 4.5581
 IR Inten    --    15.4639                 2.2725                 3.6984
 Raman Activ --      .0000                  .0000                  .0000
 Depolar     --      .0000                  .0000                  .0000
 Atom AN      X      Y      Z        X      Y      Z        X      Y      Z
   1   7      .24    .27    .00      .18    .14    .00     -.25   -.36    .00
   2   7      .21    .16    .00      .14   -.10    .00      .51    .15    .00
   3   7     -.24   -.34    .00     -.07    .42    .00     -.06    .06    .00
   4   1     -.18   -.37    .00      .07    .44    .00     -.61    .02    .00
   5   7     -.10   -.06    .00      .10   -.34    .00     -.06   -.01    .00
   6   6     -.10   -.05    .00     -.39   -.14    .00     -.11    .16    .00
   7   1     -.32    .57    .00     -.35   -.35    .00     -.16    .29    .00
                    10                     11                     12
                    A'                     A'                     A'
 Frequencies --  1148.1617              1173.2227              1374.8865
 Red. masses --     1.7671                 2.7545                 3.5348
 Frc consts  --     1.3725                 2.2338                 3.9368
 IR Inten    --    13.4770                 7.6066                 9.6795
 Raman Activ --      .0000                  .0000                  .0000
 Depolar     --      .0000                  .0000                  .0000
 Atom AN      X      Y      Z        X      Y      Z        X      Y      Z
   1   7     -.02   -.01    .00     -.02   -.02    .00     -.01   -.04    .00
   2   7      .00   -.06    .00      .06    .03    .00      .04   -.03    .00
   3   7      .16   -.05    .00     -.01   -.09    .00     -.12    .14    .00
   4   1      .63   -.03    .00      .29   -.08    .00      .21    .19    .00
   5   7     -.02    .03    .00      .13    .24    .00     -.03    .18    .00
   6   6     -.16    .06    .00     -.20   -.12    .00      .13   -.36    .00
   7   1     -.37    .64    .00      .00   -.87    .00     -.25    .80    .00
                    13                     14                     15
                    A'                     A'                     A'
 Frequencies --  1444.8752              3325.9777              3670.5028
 Red. masses --     1.5382                 1.1015                 1.0855
 Frc consts  --     1.8920                 7.1789                 8.6165
 IR Inten    --    50.1934                 1.8502               122.9403
 Raman Activ --      .0000                  .0000                  .0000
 Depolar     --      .0000                  .0000                  .0000
 Atom AN      X      Y      Z        X      Y      Z        X      Y      Z
   1   7      .02    .01    .00      .00    .00    .00      .00    .00    .00
   2   7     -.05    .03    .00      .00    .00    .00      .00    .00    .00
   3   7      .15   -.01    .00      .00    .00    .00      .01   -.08    .00
   4   1     -.94   -.09    .00      .01    .03    .00     -.07    .99    .00
   5   7      .03    .04    .00      .00    .00    .00      .00    .00    .00
   6   6     -.08   -.08    .00      .09    .03    .00     -.01    .00    .00
   7   1     -.19    .18    .00     -.95   -.31    .00      .02    .00    .00

 -------------------
 - Thermochemistry -
 -------------------
 Temperature   298.150 Kelvin.  Pressure   1.00000 Atm.
 Atom  1 has atomic number  7 and mass  14.00307
 Atom  2 has atomic number  7 and mass  14.00307
 Atom  3 has atomic number  7 and mass  14.00307
 Atom  4 has atomic number  1 and mass   1.00783
 Atom  5 has atomic number  7 and mass  14.00307
 Atom  6 has atomic number  6 and mass  12.00000
 Atom  7 has atomic number  1 and mass   1.00783
 Molecular mass:    70.02795 amu.
 Principal axes and moments of inertia in atomic units:
                           1         2         3
     EIGENVALUES --   188.18648 191.82145 380.00792
           X             .92736    .37417    .00000
           Y            -.37417    .92736    .00000
           Z             .00000    .00000   1.00000
 THIS MOLECULE IS AN ASYMMETRIC TOP.
 ROTATIONAL SYMMETRY NUMBER  1.
 ROTATIONAL TEMPERATURES (KELVIN)       .46025      .45153      .22793
 ROTATIONAL CONSTANTS (GHZ)            9.59017     9.40844     4.74922
 Zero-point vibrational energy     117273.0 (Joules/Mol)
                                   28.02893 (Kcal/Mol)
 VIBRATIONAL TEMPERATURES:    918.30   974.66  1087.68  1119.89  1163.35
          (KELVIN)           1251.46  1379.59  1407.46  1443.62  1651.94
                             1688.00  1978.14  2078.84  4785.31  5281.00
 
 Zero-point correction=                            .044667 (Hartree/Particle)
 Thermal correction to Energy=                     .048248
 Thermal correction to Enthalpy=                   .049193
 Thermal correction to Gibbs Free Energy=          .018415
 Sum of electronic and zero-point Energies=           -257.138597
 Sum of electronic and thermal Energies=              -257.135015
 Sum of electronic and thermal Enthalpies=            -257.134071
 Sum of electronic and thermal Free Energies=         -257.164849
 
                     E (Thermal)             CV                S
                      KCAL/MOL        CAL/MOL-KELVIN    CAL/MOL-KELVIN
 TOTAL                   30.276             12.249             64.777
 ELECTRONIC                .000               .000               .000
 TRANSLATIONAL             .889              2.981             38.656
 ROTATIONAL                .889              2.981             24.132
 VIBRATIONAL             28.499              6.287              1.989
                       Q            LOG10(Q)             LN(Q)
 TOTAL BOT        .338747D-08         -8.470125        -19.503182
 TOTAL V=0        .118879D+13         12.075103         27.803953
 VIB (BOT)        .350768D-20        -20.454981        -47.099333
 VIB (V=0)        .123097D+01           .090247           .207802
 ELECTRONIC       .100000D+01           .000000           .000000
 TRANSLATIONAL    .230339D+08          7.362368         16.952478
 ROTATIONAL       .419265D+05          4.622488         10.643673
 ***** Axes restored to original set *****
 -------------------------------------------------------------------
 Center     Atomic                   Forces (Hartrees/Bohr)
 Number     Number              X              Y              Z
 -------------------------------------------------------------------
    1          7            .000190761    -.000038638     .000000000
    2          7           -.000219622    -.000043931     .000000000
    3          7            .000161921     .000049970     .000000000
    4          1            .000006968    -.000004960     .000000000
    5          7           -.000339717    -.000025041     .000000000
    6          6            .000199528     .000043822     .000000000
    7          1            .000000161     .000018778     .000000000
 -------------------------------------------------------------------
 Cartesian Forces:  Max      .000339717 RMS      .000114425

 GradGradGradGradGradGradGradGradGradGradGradGradGradGradGradGradGradGrad
 Berny optimization.
 Internal  Forces:  Max      .000222820 RMS      .000067523
 Search for a local minimum.
 Step number   1 out of a maximum of  36
 All quantities printed in internal units (Hartrees-Bohrs-Radians)
 Second derivative matrix not updated -- analytic derivatives used.
     Eigenvalues ---     .01145    .02448    .06833    .07669    .09897
     Eigenvalues ---     .11258    .13507    .20187    .25250    .30415
     Eigenvalues ---     .38610    .40579    .47121    .47916    .56960
     Eigenvalues --- 1000.000001000.000001000.000001000.000001000.00000
     Eigenvalues --- 1000.000001000.000001000.000001000.000001000.00000
     Eigenvalues --- 1000.00000
 Angle between quadratic step and forces=  20.17 degrees.
 Linear search not attempted -- first point.
 Iteration  1 RMS(Cart)=   .00019755 RMS(Int)=   .00000004
 Iteration  2 RMS(Cart)=   .00000004 RMS(Int)=   .00000000
 Variable       Old X    -DE/DX   Delta X   Delta X   Delta X     New X
                                 (Linear)    (Quad)   (Total)
    R1        2.63711   -.00005    .00000   -.00026   -.00026   2.63685
    R2        2.72738   -.00015    .00000   -.00098   -.00098   2.72640
    R3        2.67171    .00017    .00000    .00069    .00069   2.67240
    R4        1.92025    .00000    .00000    .00000    .00000   1.92026
    R5        2.61118    .00004    .00000    .00001    .00001   2.61118
    R6        2.58248    .00022    .00000    .00064    .00064   2.58312
    R7        2.04527   -.00001    .00000   -.00002   -.00002   2.04525
    A1        1.91426    .00009    .00000    .00043    .00043   1.91469
    A2        1.82658    .00000    .00000   -.00017   -.00017   1.82641
    A3        2.07414    .00003    .00000    .00007    .00007   2.07422
    A4        1.92564   -.00005    .00000   -.00015   -.00015   1.92549
    A5        2.28340    .00001    .00000    .00008    .00008   2.28348
    A6        1.85372   -.00001    .00000    .00007    .00007   1.85379
    A7        1.90458   -.00003    .00000   -.00018   -.00018   1.90440
    A8        2.18361    .00000    .00000    .00003    .00003   2.18364
    A9        2.19500    .00004    .00000    .00015    .00015   2.19515
    D1         .00000    .00000    .00000    .00000    .00000    .00000
    D2         .00000    .00000    .00000    .00000    .00000    .00000
    D3        3.14159    .00000    .00000    .00000    .00000   3.14159
    D4         .00000    .00000    .00000    .00000    .00000    .00000
    D5         .00000    .00000    .00000    .00000    .00000    .00000
    D6        3.14159    .00000    .00000    .00000    .00000   3.14159
    D7        3.14159    .00000    .00000    .00000    .00000   3.14159
    D8         .00000    .00000    .00000    .00000    .00000    .00000
    D9         .00000    .00000    .00000    .00000    .00000    .00000
   D10        3.14159    .00000    .00000    .00000    .00000   3.14159
         Item               Value     Threshold  Converged?
 Maximum Force             .000223      .000450     YES
 RMS     Force             .000068      .000300     YES
 Maximum Displacement      .000636      .001800     YES
 RMS     Displacement      .000198      .001200     YES
 Predicted change in Energy=-2.406321D-07
 Optimization completed.
    -- Stationary point found.
                         ----------------------------
                         !   Optimized Parameters   !
                         ! (Angstroms and Degrees)  !
 ------------------------                            -------------------------
 ! Name  Definition              Value          Derivative Info.             !
 -----------------------------------------------------------------------------
 ! R1    R(1,2)                  1.3955         -DE/DX =   -0.0001           !
 ! R2    R(1,5)                  1.4433         -DE/DX =   -0.0002           !
 ! R3    R(2,3)                  1.4138         -DE/DX =    0.0002           !
 ! R4    R(3,4)                  1.0162         -DE/DX =    0.               !
 ! R5    R(3,6)                  1.3818         -DE/DX =    0.               !
 ! R6    R(5,6)                  1.3666         -DE/DX =    0.0002           !
 ! R7    R(6,7)                  1.0823         -DE/DX =    0.               !
 ! A1    A(2,1,5)              109.679          -DE/DX =    0.0001           !
 ! A2    A(1,2,3)              104.6554         -DE/DX =    0.               !
 ! A3    A(2,3,4)              118.8397         -DE/DX =    0.               !
 ! A4    A(2,3,6)              110.3311         -DE/DX =    0.               !
 ! A5    A(4,3,6)              130.8292         -DE/DX =    0.               !
 ! A6    A(1,5,6)              106.2103         -DE/DX =    0.               !
 ! A7    A(3,6,5)              109.1242         -DE/DX =    0.               !
 ! A8    A(3,6,7)              125.1117         -DE/DX =    0.               !
 ! A9    A(5,6,7)              125.7641         -DE/DX =    0.               !
 ! D1    D(5,1,2,3)              0.             -DE/DX =    0.               !
 ! D2    D(2,1,5,6)              0.             -DE/DX =    0.               !
 ! D3    D(1,2,3,4)            180.             -DE/DX =    0.               !
 ! D4    D(1,2,3,6)              0.             -DE/DX =    0.               !
 ! D5    D(2,3,6,5)              0.             -DE/DX =    0.               !
 ! D6    D(2,3,6,7)            180.             -DE/DX =    0.               !
 ! D7    D(4,3,6,5)            180.             -DE/DX =    0.               !
 ! D8    D(4,3,6,7)              0.             -DE/DX =    0.               !
 ! D9    D(1,5,6,3)              0.             -DE/DX =    0.               !
 ! D10   D(1,5,6,7)            180.             -DE/DX =    0.               !
 -----------------------------------------------------------------------------
 GradGradGradGradGradGradGradGradGradGradGradGradGradGradGradGradGradGrad

 1\1\GINC-SCI-APPS\Freq\RMP2-FC\SDD\C1H2N4\RUS\18-Dec-2000\0\\#N GEOM=A
 LLCHECK GUESS=TCHECK RMP2(FC)/SDD FREQ\\1H tetrazole c CH-NH-N=N-N= ca
 sno=288948\\0,1\N,-1.2146659273,-0.2935262001,0.\N,-0.7079889192,1.006
 7388043,0.\N,0.6963513981,0.8434040766,0.\H,1.2860576316,1.6709404807,
 0.\N,-0.1248985619,-1.2397944866,0.\C,1.0235380835,-0.4990754,0.\H,2.0
 311279391,-0.8942434398,0.\\Version=IBM-RS6000-G98RevA.7\State=1-A'\HF
 =-256.6149658\MP2=-257.1832635\RMSD=2.659e-09\RMSF=1.144e-04\Dipole=2.
 1813625,0.9593445,0.\DipoleDeriv=0.1349523,0.0417742,0.,-0.232603,0.00
 92354,0.,0.,0.,-0.1905455,0.3595489,-0.0981392,0.,0.1684105,-0.1905812
 ,0.,0.,0.,-0.0698593,-0.5039021,-0.0560963,0.,-0.2313411,-0.4696239,0.
 ,0.,0.,-0.2212675,0.2529179,0.043586,0.,0.0535931,0.2867027,0.,0.,0.,0
 .4172163,-0.3897011,0.0382499,0.,0.1080628,-0.2876682,0.,0.,0.,-0.1766
 163,0.0905499,0.017244,0.,0.1280636,0.5207568,0.,0.,0.,0.0206171,0.055
 6342,0.0133815,0.,0.0058141,0.1311784,0.,0.,0.,0.2204553\Polar=42.6196
 935,-0.4454041,38.9809314,0.,0.,15.6944893\PG=CS [SG(C1H2N4)]\NImag=0\
 \0.39813137,0.04170841,0.23918477,0.,0.,0.10226856,-0.09796625,-0.0740
 2176,0.,0.35221427,0.03906535,-0.11767600,0.,-0.06874403,0.34866542,0.
 ,0.,-0.07892837,0.,0.,0.09559823,-0.07794536,-0.06255931,0.,-0.1816829
 6,0.00090508,0.,0.59362785,-0.03884272,-0.05104890,0.,0.06592006,-0.11
 020820,0.,0.19865105,0.86712876,0.,0.,0.01983112,0.,0.,-0.06328747,0.,
 0.,0.10861066,-0.00932109,0.00017529,0.,-0.00619642,-0.03309759,0.,-0.
 20062027,-0.18952687,0.,0.20240794,0.00909639,0.00228958,0.,0.01096518
 ,0.01095463,0.,-0.19347184,-0.34302171,0.,0.19541842,0.33782426,0.,0.,
 0.00779367,0.,0.,-0.00842911,0.,0.,-0.01949013,0.,0.,0.01952702,-0.111
 71379,0.05347574,0.,-0.00257064,0.04891085,0.,-0.01617369,-0.07397713,
 0.,-0.00031895,0.00011206,0.,0.37625047,-0.03880002,-0.07890797,0.,0.0
 0963824,-0.09288760,0.,-0.02358999,-0.06905163,0.,0.00936752,-0.004942
 50,0.,0.10793913,0.40102212,0.,0.,-0.07739773,0.,0.,0.03024390,0.,0.,0
 .01845088,0.,0.,0.00714552,0.,0.,0.09704640,-0.10004424,0.04139265,0.,
 -0.06395377,0.01817188,0.,-0.12481906,0.04682278,0.,0.01484657,-0.0228
 2274,0.,-0.23561465,-0.07807458,0.,0.84658774,-0.00623982,0.00861706,0
 .,0.05649014,-0.03347309,0.,0.04907937,-0.28818968,0.,0.01792992,-0.00
 295054,0.,-0.11666660,-0.16702792,0.,-0.11591357,0.57700400,0.,0.,0.01
 880421,0.,0.,0.01961366,0.,0.,-0.06069959,0.,0.,-0.00609831,0.,0.,-0.0
 7045588,0.,0.,0.12189055,-0.00114064,-0.00017101,0.,0.00015575,-0.0052
 1155,0.,0.00761349,-0.00904716,0.,-0.00079779,0.00070253,0.,-0.0098587
 6,0.01351971,0.,-0.33700260,0.11532057,0.,0.34103055,-0.00598759,-0.00
 245856,0.,-0.00024782,-0.00537516,0.,0.03098565,-0.00560864,0.,-0.0002
 6668,-0.00015372,0.,-0.01979405,0.01179549,0.,0.11042359,-0.09397984,0
 .,-0.11511309,0.09578043,0.,0.,0.00762854,0.,0.,0.00518915,0.,0.,-0.00
 341546,0.,0.,-0.00044866,0.,0.,-0.00503310,0.,0.,-0.02305464,0.,0.,0.0
 1913417\\-0.00019076,0.00003864,0.,0.00021962,0.00004393,0.,-0.0001619
 2,-0.00004997,0.,-0.00000697,0.00000496,0.,0.00033972,0.00002504,0.,-0
 .00019953,-0.00004382,0.,-0.00000016,-0.00001878,0.\\\@


 LOGIC IS A SYSTEMATIC METHOD OF COMING TO THE
 WRONG CONCLUSION WITH CONFIDENCE.
 Job cpu time:  0 days  0 hours  4 minutes 17.9 seconds.
 File lengths (MBytes):  RWF=  219 Int=    0 D2E=    0 Chk=    8 Scr=    1
 Normal termination of Gaussian 98.
