 Entering Gaussian System, Link 0=g98
 Initial command:
 /usr/local/apps/g98/g98/l1.exe /wrk/rdj3/Gau-48158.inp -scrdir=/wrk/rdj3/
 Entering Link 1 = /usr/local/apps/g98/g98/l1.exe PID=     53280.
  
 Copyright (c) 1988,1990,1992,1993,1995,1998 Gaussian, Inc.
                  All Rights Reserved.
  
 This is part of the Gaussian(R) 98 program.  It is based on
 the Gaussian 94(TM) system (copyright 1995 Gaussian, Inc.),
 the Gaussian 92(TM) system (copyright 1992 Gaussian, Inc.),
 the Gaussian 90(TM) system (copyright 1990 Gaussian, Inc.),
 the Gaussian 88(TM) system (copyright 1988 Gaussian, Inc.),
 the Gaussian 86(TM) system (copyright 1986 Carnegie Mellon
 University), and the Gaussian 82(TM) system (copyright 1983
 Carnegie Mellon University). Gaussian is a federally registered
 trademark of Gaussian, Inc.
  
 This software contains proprietary and confidential information,
 including trade secrets, belonging to Gaussian, Inc.
  
 This software is provided under written license and may be
 used, copied, transmitted, or stored only in accord with that
 written license.
  
 The following legend is applicable only to US Government
 contracts under DFARS:
  
                    RESTRICTED RIGHTS LEGEND
  
 Use, duplication or disclosure by the US Government is subject
 to restrictions as set forth in subparagraph (c)(1)(ii) of the
 Rights in Technical Data and Computer Software clause at DFARS
 252.227-7013.
  
 Gaussian, Inc.
 Carnegie Office Park, Building 6, Pittsburgh, PA 15106 USA
  
 The following legend is applicable only to US Government
 contracts under FAR:
  
                    RESTRICTED RIGHTS LEGEND
  
 Use, reproduction and disclosure by the US Government is subject
 to restrictions as set forth in subparagraph (c) of the
 Commercial Computer Software - Restricted Rights clause at FAR
 52.227-19.
  
 Gaussian, Inc.
 Carnegie Office Park, Building 6, Pittsburgh, PA 15106 USA
  
  
 ---------------------------------------------------------------
 Warning -- This program may not be used in any manner that
 competes with the business of Gaussian, Inc. or will provide
 assistance to any competitor of Gaussian, Inc.  The licensee
 of this program is prohibited from giving any competitor of
 Gaussian, Inc. access to this program.  By using this program,
 the user acknowledges that Gaussian, Inc. is engaged in the
 business of creating and licensing software in the field of
 computational chemistry and represents and warrants to the
 licensee that it is not a competitor of Gaussian, Inc. and that
 it will not use this program in any manner prohibited above.
 ---------------------------------------------------------------
  

 Cite this work as:
 Gaussian 98, Revision A.4,
 M. J. Frisch, G. W. Trucks, H. B. Schlegel, G. E. Scuseria, 
 M. A. Robb, J. R. Cheeseman, V. G. Zakrzewski, J. A. Montgomery, Jr., 
 R. E. Stratmann, J. C. Burant, S. Dapprich, J. M. Millam, 
 A. D. Daniels, K. N. Kudin, M. C. Strain, O. Farkas, J. Tomasi, 
 V. Barone, M. Cossi, R. Cammi, B. Mennucci, C. Pomelli, C. Adamo, 
 S. Clifford, J. Ochterski, G. A. Petersson, P. Y. Ayala, Q. Cui, 
 K. Morokuma, D. K. Malick, A. D. Rabuck, K. Raghavachari, 
 J. B. Foresman, J. Cioslowski, J. V. Ortiz, B. B. Stefanov, G. Liu, 
 A. Liashenko, P. Piskorz, I. Komaromi, R. Gomperts, R. L. Martin, 
 D. J. Fox, T. Keith, M. A. Al-Laham, C. Y. Peng, A. Nanayakkara, 
 C. Gonzalez, M. Challacombe, P. M. W. Gill, B. Johnson, W. Chen, 
 M. W. Wong, J. L. Andres, C. Gonzalez, M. Head-Gordon, 
 E. S. Replogle, and J. A. Pople, 
 Gaussian, Inc., Pittsburgh PA, 1998.

 **********************************************
 Gaussian 98:  IBM-RS6000-G98RevA.4 11-Sep-1998
                  18-Dec-1998 
 **********************************************
 %mem=24000000
 --------------------
 #MP2/6-31G* OPT FREQ
 --------------------
 1/18=20,38=1/1,3;
 2/9=110,17=6,18=5/2;
 3/5=1,6=6,7=1,11=9,25=1,30=1/1,2,3;
 4//1;
 5/5=2,38=4/2;
 8/6=4,10=1,23=2/1;
 9/15=2,16=-3/6;
 10/5=1/2;
 6/7=2,8=2,9=2,10=2/1;
 7/12=2/1,2,3,16;
 1/18=20/3(1);
 99//99;
 2/9=110/2;
 3/5=1,6=6,7=1,11=9,25=1,30=1/1,2,3;
 4/5=5,16=2/1;
 5/5=2,38=4/2;
 8/6=4,10=1,23=2/1;
 9/15=2,16=-3/6;
 10/5=1/2;
 7/12=2/1,2,3,16;
 1/18=20/3(-8);
 2/9=110/2;
 6/7=2,8=2,9=2,10=2/1;
 99//99;
 ----------------------------------------
 1H tetrazole c CH-NH-N=N-N= casno=288948
 ----------------------------------------
 Symbolic Z-matrix:
 Charge =  0 Multiplicity = 1
 N                    -1.03515   0.50502   0. 
 N                     0.04838   1.13258   0. 
 N                     1.01435   0.22395   0. 
 H                     1.96998   0.4979    0. 
 N                    -0.8321   -0.82085   0. 
 C                     0.44745  -0.97938   0. 
 H                     0.97699  -1.90657   0. 

 GradGradGradGradGradGradGradGradGradGradGradGradGradGradGradGradGradGrad
 Berny optimization.
 Initialization pass.
                         ----------------------------
                         !    Initial Parameters    !
                         ! (Angstroms and Degrees)  !
 ------------------------                            -------------------------
 ! Name  Definition              Value          Derivative Info.             !
 -----------------------------------------------------------------------------
 ! R1    R(1,2)                  1.2522         estimate D2E/DX2             !
 ! R2    R(1,5)                  1.3413         estimate D2E/DX2             !
 ! R3    R(2,3)                  1.3262         estimate D2E/DX2             !
 ! R4    R(3,4)                  0.9941         estimate D2E/DX2             !
 ! R5    R(3,6)                  1.3302         estimate D2E/DX2             !
 ! R6    R(5,6)                  1.2893         estimate D2E/DX2             !
 ! R7    R(6,7)                  1.0678         estimate D2E/DX2             !
 ! A1    A(2,1,5)              111.3714         estimate D2E/DX2             !
 ! A2    A(1,2,3)              106.673          estimate D2E/DX2             !
 ! A3    A(2,3,4)              120.7559         estimate D2E/DX2             !
 ! A4    A(2,3,6)              108.0227         estimate D2E/DX2             !
 ! A5    A(4,3,6)              131.2214         estimate D2E/DX2             !
 ! A6    A(1,5,6)              105.77           estimate D2E/DX2             !
 ! A7    A(3,6,5)              108.1628         estimate D2E/DX2             !
 ! A8    A(3,6,7)              125.0426         estimate D2E/DX2             !
 ! A9    A(5,6,7)              126.7945         estimate D2E/DX2             !
 ! D1    D(5,1,2,3)              0.             estimate D2E/DX2             !
 ! D2    D(2,1,5,6)              0.             estimate D2E/DX2             !
 ! D3    D(1,2,3,4)            180.             estimate D2E/DX2             !
 ! D4    D(1,2,3,6)              0.             estimate D2E/DX2             !
 ! D5    D(2,3,6,5)              0.             estimate D2E/DX2             !
 ! D6    D(2,3,6,7)            180.             estimate D2E/DX2             !
 ! D7    D(4,3,6,5)            180.             estimate D2E/DX2             !
 ! D8    D(4,3,6,7)              0.             estimate D2E/DX2             !
 ! D9    D(1,5,6,3)              0.             estimate D2E/DX2             !
 ! D10   D(1,5,6,7)            180.             estimate D2E/DX2             !
 -----------------------------------------------------------------------------
 Trust Radius=3.00D-01 FncErr=1.00D-07 GrdErr=1.00D-07
 Number of steps in this run=  36 maximum allowed number of steps= 100.
 GradGradGradGradGradGradGradGradGradGradGradGradGradGradGradGradGradGrad

                          Input orientation:                          
 ---------------------------------------------------------------------
 Center     Atomic     Atomic              Coordinates (Angstroms)
 Number     Number      Type              X           Y           Z
 ---------------------------------------------------------------------
    1          7             0       -1.035155    0.505017    0.000000
    2          7             0        0.048381    1.132585    0.000000
    3          7             0        1.014346    0.223952    0.000000
    4          1             0        1.969978    0.497900    0.000000
    5          7             0       -0.832095   -0.820848    0.000000
    6          6             0        0.447448   -0.979378    0.000000
    7          1             0        0.976994   -1.906573    0.000000
 ---------------------------------------------------------------------
                    Distance matrix (angstroms):
                    1          2          3          4          5
     1  N    0.000000
     2  N    1.252155   0.000000
     3  N    2.068684   1.326161   0.000000
     4  H    3.005141   2.023699   0.994122   0.000000
     5  N    1.341325   2.142694   2.121545   3.096887   0.000000
     6  C    2.097985   2.149335   1.330179   2.121426   1.289326
     7  H    3.140782   3.177861   2.130852   2.601444   2.109882
                    6          7
     6  C    0.000000
     7  H    1.067760   0.000000
 Stoichiometry    CH2N4
 Framework group  CS[SG(CH2N4)]
 Deg. of freedom   11
 Full point group                 CS      NOp   2
 Largest Abelian subgroup         CS      NOp   2
 Largest concise Abelian subgroup C1      NOp   1
                         Standard orientation:                         
 ---------------------------------------------------------------------
 Center     Atomic     Atomic              Coordinates (Angstroms)
 Number     Number      Type              X           Y           Z
 ---------------------------------------------------------------------
    1          7             0       -0.716312   -0.901934    0.000000
    2          7             0       -1.095520    0.291420    0.000000
    3          7             0        0.000000    1.038775    0.000000
    4          1             0       -0.061479    2.030994    0.000000
    5          7             0        0.622151   -0.989495    0.000000
    6          6             0        1.052813    0.225779    0.000000
    7          1             0        2.072370    0.542976    0.000000
 ---------------------------------------------------------------------
 Rotational constants (GHZ):     10.9198679     10.7343949      5.4131685
 Isotopes: N-14,N-14,N-14,H-1,N-14,C-12,H-1
 Standard basis: 6-31G(d) (6D, 7F)
 There are    59 symmetry adapted basis functions of A'  symmetry.
 There are    20 symmetry adapted basis functions of A"  symmetry.
 Crude estimate of integral set expansion from redundant integrals=1.000.
 Integral buffers will be    262144 words long.
 Raffenetti 1 integral format.
 Two-electron integral symmetry is turned on.
    79 basis functions      148 primitive gaussians
    18 alpha electrons       18 beta electrons
       nuclear repulsion energy       169.8288422208 Hartrees.
 One-electron integrals computed using PRISM.
 NBasis=    79 RedAO= T  NBF=    59    20
 NBsUse=    79 1.00D-04 NBFU=    59    20
 Projected INDO Guess.
 Initial guess orbital symmetries:
       Occupied  (A') (A') (A') (A') (A') (A') (A') (A') (A') (A')
                 (A') (A") (A') (A') (A") (A") (A') (A')
       Virtual   (A") (A') (A") (A') (A') (A') (A') (A') (A') (A')
                 (A') (A') (A') (A') (A') (A') (A') (A') (A') (A')
                 (A') (A') (A') (A') (A') (A') (A') (A') (A') (A')
                 (A') (A') (A') (A') (A') (A') (A') (A') (A') (A')
                 (A') (A') (A') (A') (A') (A') (A") (A") (A") (A")
                 (A") (A") (A") (A") (A") (A") (A") (A") (A") (A")
                 (A")
 Requested convergence on RMS density matrix=1.00D-08 within  64 cycles.
 Requested convergence on MAX density matrix=1.00D-06.
 Keep R1 integrals in memory in canonical form, NReq=     5449697.
 SCF Done:  E(RHF) =  -256.754076242     A.U. after   15 cycles
             Convg  =    0.4479D-08             -V/T =  2.0017
             S**2   =   0.0000
 Range of M.O.s used for correlation:     6    79
 NBasis=    79 NAE=    18 NBE=    18 NFC=     5 NFV=     0
 NROrb=     74 NOA=    13 NOB=    13 NVA=    61 NVB=    61
 Fully direct method using O(ONN) memory.
 JobTyp=1 Pass  1:  I=   6 to  18.
 Spin components of T(2) and E(2):
     alpha-alpha T2 =       0.3617244742D-01 E2=     -0.1081713468D+00
     alpha-beta  T2 =       0.1818959181D+00 E2=     -0.5573828811D+00
     beta-beta   T2 =       0.3617244742D-01 E2=     -0.1081713468D+00
 ANorm=    0.1119928932D+01
 E2 =    -0.7737255747D+00 EUMP2 =    -0.25752780181686D+03
          Differentiating once with respect to electric field.
                with respect to dipole field.
          Differentiating once with respect to nuclear coordinates.
          Store integrals in memory, NReq=     5434786.
          There are   1 degrees of freedom in the 1st order CPHF.
   1 vectors were produced by pass  0.
 AX will form   1 AO Fock derivatives at one time.
   1 vectors were produced by pass  1.
   1 vectors were produced by pass  2.
   1 vectors were produced by pass  3.
   1 vectors were produced by pass  4.
   1 vectors were produced by pass  5.
   1 vectors were produced by pass  6.
   1 vectors were produced by pass  7.
   1 vectors were produced by pass  8.
   1 vectors were produced by pass  9.
   1 vectors were produced by pass 10.
   1 vectors were produced by pass 11.
   1 vectors were produced by pass 12.
   1 vectors were produced by pass 13.
   1 vectors were produced by pass 14.
 Inv2:  IOpt= 1 Iter= 1 AM= 4.07D-16 Conv= 1.00D-12.
 Inverted reduced A of dimension  15 with in-core refinement.

 **********************************************************************

            Population analysis using the SCF density.

 **********************************************************************

 Orbital Symmetries:
       Occupied  (A') (A') (A') (A') (A') (A') (A') (A') (A') (A')
                 (A') (A") (A') (A') (A') (A') (A") (A")
       Virtual   (A") (A') (A") (A') (A') (A') (A') (A') (A') (A")
                 (A') (A') (A') (A') (A") (A') (A') (A") (A') (A")
                 (A') (A') (A") (A') (A') (A') (A') (A') (A') (A")
                 (A") (A") (A') (A') (A") (A") (A') (A') (A') (A')
                 (A') (A') (A") (A") (A') (A') (A") (A") (A') (A')
                 (A") (A') (A') (A') (A') (A') (A') (A') (A') (A')
                 (A')
  The electronic state is 1-A'.
 Alpha  occ. eigenvalues --  -15.68426 -15.66114 -15.64137 -15.59954 -11.33392
 Alpha  occ. eigenvalues --   -1.52162  -1.26658  -1.21014  -0.91425  -0.89657
 Alpha  occ. eigenvalues --   -0.81012  -0.68902  -0.68409  -0.57261  -0.47489
 Alpha  occ. eigenvalues --   -0.46285  -0.45783  -0.42408
 Alpha virt. eigenvalues --    0.15145   0.20119   0.20249   0.25700   0.37656
 Alpha virt. eigenvalues --    0.39686   0.48768   0.51617   0.67281   0.73609
 Alpha virt. eigenvalues --    0.74379   0.82417   0.83553   0.90498   0.91522
 Alpha virt. eigenvalues --    0.92043   0.94179   0.95809   0.96154   1.05045
 Alpha virt. eigenvalues --    1.06083   1.08497   1.09726   1.13353   1.17940
 Alpha virt. eigenvalues --    1.23098   1.29429   1.31742   1.49106   1.53806
 Alpha virt. eigenvalues --    1.60296   1.64481   1.65435   1.69836   1.84833
 Alpha virt. eigenvalues --    1.86690   1.93792   2.18768   2.28156   2.37834
 Alpha virt. eigenvalues --    2.41191   2.51234   2.53091   2.58424   2.66428
 Alpha virt. eigenvalues --    2.71023   2.72329   2.79669   2.90121   2.90411
 Alpha virt. eigenvalues --    3.01041   3.04123   3.09308   3.34838   3.38389
 Alpha virt. eigenvalues --    3.42716   3.91286   4.04385   4.39863   4.47079
 Alpha virt. eigenvalues --    4.57576
          Condensed to atoms (all electrons):
              1          2          3          4          5          6
  1  N    6.618476   0.357299  -0.108898   0.004619   0.312254  -0.119598
  2  N    0.357299   6.669376   0.216339  -0.020726  -0.098238  -0.104283
  3  N   -0.108898   0.216339   6.911504   0.321564  -0.077332   0.313518
  4  H    0.004619  -0.020726   0.321564   0.278280   0.003670  -0.017322
  5  N    0.312254  -0.098238  -0.077332   0.003670   6.755884   0.486703
  6  C   -0.119598  -0.104283   0.313518  -0.017322   0.486703   4.741273
  7  H    0.003176   0.001282  -0.036850   0.000966  -0.022636   0.395962
              7
  1  N    0.003176
  2  N    0.001282
  3  N   -0.036850
  4  H    0.000966
  5  N   -0.022636
  6  C    0.395962
  7  H    0.402270
 Total atomic charges:
              1
  1  N   -0.067328
  2  N   -0.021049
  3  N   -0.539846
  4  H    0.428949
  5  N   -0.360304
  6  C    0.303746
  7  H    0.255832
 Sum of Mulliken charges=   0.00000
 Atomic charges with hydrogens summed into heavy atoms:
              1
  1  N   -0.067328
  2  N   -0.021049
  3  N   -0.110897
  4  H    0.000000
  5  N   -0.360304
  6  C    0.559579
  7  H    0.000000
 Sum of Mulliken charges=   0.00000
 Electronic spatial extent (au):  <R**2>=   244.6240
 Charge=     0.0000 electrons
 Dipole moment (Debye):
    X=     2.6731    Y=     4.9692    Z=     0.0000  Tot=     5.6425
 Quadrupole moment (Debye-Ang):
   XX=   -28.6585   YY=   -26.5337   ZZ=   -28.5224
   XY=     1.9999   XZ=     0.0000   YZ=     0.0000
 Octapole moment (Debye-Ang**2):
  XXX=    12.5499  YYY=    22.9160  ZZZ=     0.0000  XYY=    -0.6883
  XXY=     4.9900  XXZ=     0.0000  XZZ=    -0.5222  YZZ=     0.6168
  YYZ=     0.0000  XYZ=     0.0000
 Hexadecapole moment (Debye-Ang**3):
 XXXX=  -137.3455 YYYY=  -115.9964 ZZZZ=   -25.2879 XXXY=     6.7902
 XXXZ=     0.0000 YYYX=    -0.0650 YYYZ=     0.0000 ZZZX=     0.0000
 ZZZY=     0.0000 XXYY=   -52.0526 XXZZ=   -29.5105 YYZZ=   -28.1703
 XXYZ=     0.0000 YYXZ=     0.0000 ZZXY=     0.0532
 N-N= 1.698288422208D+02 E-N=-9.408674625203D+02  KE= 2.563113689926D+02
 Symmetry A'   KE= 2.472871375538D+02
 Symmetry A"   KE= 9.024231438809D+00
 ***** Axes restored to original set *****
 -------------------------------------------------------------------
 Center     Atomic                   Forces (Hartrees/Bohr)
 Number     Number              X              Y              Z
 -------------------------------------------------------------------
    1          7          -0.067245449   -0.009168355    0.000000000
    2          7           0.044247240    0.057925778    0.000000000
    3          7           0.011749025   -0.003769527    0.000000000
    4          1           0.017494783    0.005769441    0.000000000
    5          7          -0.039371601   -0.023433866    0.000000000
    6          6           0.028435544   -0.019605792    0.000000000
    7          1           0.004690457   -0.007717679    0.000000000
 -------------------------------------------------------------------
 Cartesian Forces:  Max     0.067245449 RMS     0.025620514

 GradGradGradGradGradGradGradGradGradGradGradGradGradGradGradGradGradGrad
 Berny optimization.
 Internal  Forces:  Max     0.070701318 RMS     0.019451283
 Search for a local minimum.
 Step number   1 out of a maximum of  36
 All quantities printed in internal units (Hartrees-Bohrs-Radians)
 Second derivative matrix not updated -- first step.
     Eigenvalues ---    0.02505   0.02639   0.02674   0.02834   0.16000
     Eigenvalues ---    0.16000   0.22605   0.24688   0.37515   0.48737
     Eigenvalues ---    0.50885   0.56605   0.58506   0.66912   0.78894
     Eigenvalues --- 1000.000001000.000001000.000001000.000001000.00000
     Eigenvalues --- 1000.000001000.000001000.000001000.000001000.00000
     Eigenvalues --- 1000.00000
 RFO step:  Lambda=-1.36772401D-02.
 Linear search not attempted -- first point.
 Iteration  1 RMS(Cart)=  0.02804670 RMS(Int)=  0.00006488
 Iteration  2 RMS(Cart)=  0.00004515 RMS(Int)=  0.00004357
 Iteration  3 RMS(Cart)=  0.00000000 RMS(Int)=  0.00004357
 Variable       Old X    -DE/DX   Delta X   Delta X   Delta X     New X
                                 (Linear)    (Quad)   (Total)
    R1        2.36623   0.07070   0.00000   0.08713   0.08719   2.45342
    R2        2.53474   0.02661   0.00000   0.04850   0.04854   2.58328
    R3        2.50608   0.02803   0.00000   0.04510   0.04509   2.55117
    R4        1.87862   0.01841   0.00000   0.03674   0.03674   1.91536
    R5        2.51367   0.02757   0.00000   0.04136   0.04130   2.55497
    R6        2.43647   0.04526   0.00000   0.06134   0.06131   2.49778
    R7        2.01777   0.00903   0.00000   0.02322   0.02322   2.04099
    A1        1.94380  -0.00507   0.00000  -0.00315  -0.00303   1.94077
    A2        1.86179  -0.00437   0.00000  -0.00827  -0.00822   1.85357
    A3        2.10759  -0.00306   0.00000  -0.00837  -0.00833   2.09926
    A4        1.88535   0.00476   0.00000   0.00889   0.00881   1.89417
    A5        2.29025  -0.00170   0.00000  -0.00052  -0.00049   2.28976
    A6        1.84604  -0.00023   0.00000  -0.00259  -0.00258   1.84345
    A7        1.88780   0.00491   0.00000   0.00512   0.00502   1.89282
    A8        2.18241  -0.00270   0.00000  -0.00398  -0.00394   2.17847
    A9        2.21298  -0.00221   0.00000  -0.00113  -0.00109   2.21190
    D1        0.00000   0.00000   0.00000   0.00000   0.00000   0.00000
    D2        0.00000   0.00000   0.00000   0.00000   0.00000   0.00000
    D3        3.14159   0.00000   0.00000   0.00000   0.00000   3.14159
    D4        0.00000   0.00000   0.00000   0.00000   0.00000   0.00000
    D5        0.00000   0.00000   0.00000   0.00000   0.00000   0.00000
    D6        3.14159   0.00000   0.00000   0.00000   0.00000   3.14159
    D7        3.14159   0.00000   0.00000   0.00000   0.00000   3.14159
    D8        0.00000   0.00000   0.00000   0.00000   0.00000   0.00000
    D9        0.00000   0.00000   0.00000   0.00000   0.00000   0.00000
   D10        3.14159   0.00000   0.00000   0.00000   0.00000   3.14159
         Item               Value     Threshold  Converged?
 Maximum Force            0.070701     0.000450     NO 
 RMS     Force            0.019451     0.000300     NO 
 Maximum Displacement     0.068487     0.001800     NO 
 RMS     Displacement     0.028032     0.001200     NO 
 Predicted change in Energy=-6.706247D-03
 GradGradGradGradGradGradGradGradGradGradGradGradGradGradGradGradGradGrad

                          Input orientation:                          
 ---------------------------------------------------------------------
 Center     Atomic     Atomic              Coordinates (Angstroms)
 Number     Number      Type              X           Y           Z
 ---------------------------------------------------------------------
    1          7             0       -1.071397    0.513488    0.000000
    2          7             0        0.052681    1.163117    0.000000
    3          7             0        1.027500    0.229158    0.000000
    4          1             0        2.002055    0.507642    0.000000
    5          7             0       -0.861635   -0.837337    0.000000
    6          6             0        0.450850   -0.993736    0.000000
    7          1             0        0.989842   -1.929678    0.000000
 ---------------------------------------------------------------------
                    Distance matrix (angstroms):
                    1          2          3          4          5
     1  N    0.000000
     2  N    1.298295   0.000000
     3  N    2.118068   1.350019   0.000000
     4  H    3.073457   2.056624   1.013563   0.000000
     5  N    1.367014   2.199497   2.169388   3.163809   0.000000
     6  C    2.142185   2.193297   1.352034   2.158789   1.321770
     7  H    3.196523   3.231663   2.159164   2.639148   2.149692
                    6          7
     6  C    0.000000
     7  H    1.080046   0.000000
 Stoichiometry    CH2N4
 Framework group  CS[SG(CH2N4)]
 Deg. of freedom   11
 Full point group                 CS      NOp   2
 Largest Abelian subgroup         CS      NOp   2
 Largest concise Abelian subgroup C1      NOp   1
                         Standard orientation:                         
 ---------------------------------------------------------------------
 Center     Atomic     Atomic              Coordinates (Angstroms)
 Number     Number      Type              X           Y           Z
 ---------------------------------------------------------------------
    1          7             0       -0.726487   -0.929999    0.000000
    2          7             0       -1.120775    0.306976    0.000000
    3          7             0        0.000000    1.059581    0.000000
    4          1             0       -0.063691    2.071141    0.000000
    5          7             0        0.637950   -1.013885    0.000000
    6          6             0        1.071335    0.234816    0.000000
    7          1             0        2.100869    0.561248    0.000000
 ---------------------------------------------------------------------
 Rotational constants (GHZ):     10.4458853     10.2683605      5.1781811
 Isotopes: N-14,N-14,N-14,H-1,N-14,C-12,H-1
 Standard basis: 6-31G(d) (6D, 7F)
 There are    59 symmetry adapted basis functions of A'  symmetry.
 There are    20 symmetry adapted basis functions of A"  symmetry.
 Crude estimate of integral set expansion from redundant integrals=1.000.
 Integral buffers will be    262144 words long.
 Raffenetti 1 integral format.
 Two-electron integral symmetry is turned on.
    79 basis functions      148 primitive gaussians
    18 alpha electrons       18 beta electrons
       nuclear repulsion energy       166.0793201765 Hartrees.
 One-electron integrals computed using PRISM.
 NBasis=    79 RedAO= T  NBF=    59    20
 NBsUse=    79 1.00D-04 NBFU=    59    20
 Initial guess read from the read-write file:
 Initial guess orbital symmetries:
       Occupied  (A') (A') (A') (A') (A') (A') (A') (A') (A') (A')
                 (A') (A") (A') (A') (A') (A') (A") (A")
       Virtual   (A") (A') (A") (A') (A') (A') (A') (A') (A') (A")
                 (A') (A') (A') (A') (A") (A') (A') (A") (A') (A")
                 (A') (A') (A") (A') (A') (A') (A') (A') (A') (A")
                 (A") (A") (A') (A') (A") (A") (A') (A') (A') (A')
                 (A') (A') (A") (A") (A') (A') (A") (A") (A') (A')
                 (A") (A') (A') (A') (A') (A') (A') (A') (A') (A')
                 (A')
 Requested convergence on RMS density matrix=1.00D-08 within  64 cycles.
 Requested convergence on MAX density matrix=1.00D-06.
 Keep R1 integrals in memory in canonical form, NReq=     5449697.
 SCF Done:  E(RHF) =  -256.747485055     A.U. after   13 cycles
             Convg  =    0.7354D-08             -V/T =  2.0038
             S**2   =   0.0000
 Range of M.O.s used for correlation:     6    79
 NBasis=    79 NAE=    18 NBE=    18 NFC=     5 NFV=     0
 NROrb=     74 NOA=    13 NOB=    13 NVA=    61 NVB=    61
 Fully direct method using O(ONN) memory.
 JobTyp=1 Pass  1:  I=   6 to  18.
 Spin components of T(2) and E(2):
     alpha-alpha T2 =       0.3797446086D-01 E2=     -0.1099378298D+00
     alpha-beta  T2 =       0.1915092065D+00 E2=     -0.5679266999D+00
     beta-beta   T2 =       0.3797446086D-01 E2=     -0.1099378298D+00
 ANorm=    0.1125814429D+01
 E2 =    -0.7878023595D+00 EUMP2 =    -0.25753528741468D+03
          Differentiating once with respect to electric field.
                with respect to dipole field.
          Differentiating once with respect to nuclear coordinates.
          Store integrals in memory, NReq=     5434786.
          There are   1 degrees of freedom in the 1st order CPHF.
   1 vectors were produced by pass  0.
 AX will form   1 AO Fock derivatives at one time.
   1 vectors were produced by pass  1.
   1 vectors were produced by pass  2.
   1 vectors were produced by pass  3.
   1 vectors were produced by pass  4.
   1 vectors were produced by pass  5.
   1 vectors were produced by pass  6.
   1 vectors were produced by pass  7.
   1 vectors were produced by pass  8.
   1 vectors were produced by pass  9.
   1 vectors were produced by pass 10.
   1 vectors were produced by pass 11.
   1 vectors were produced by pass 12.
   1 vectors were produced by pass 13.
   1 vectors were produced by pass 14.
   1 vectors were produced by pass 15.
 Inv2:  IOpt= 1 Iter= 1 AM= 3.80D-16 Conv= 1.00D-12.
 Inverted reduced A of dimension  16 with in-core refinement.
 ***** Axes restored to original set *****
 -------------------------------------------------------------------
 Center     Atomic                   Forces (Hartrees/Bohr)
 Number     Number              X              Y              Z
 -------------------------------------------------------------------
    1          7          -0.014585844   -0.008116317    0.000000000
    2          7           0.015654443    0.012830559    0.000000000
    3          7          -0.004330415   -0.004588038    0.000000000
    4          1           0.000192254    0.000361791    0.000000000
    5          7          -0.002366230   -0.000948197    0.000000000
    6          6           0.005631060    0.000127028    0.000000000
    7          1          -0.000195268    0.000333173    0.000000000
 -------------------------------------------------------------------
 Cartesian Forces:  Max     0.015654443 RMS     0.006042110

 GradGradGradGradGradGradGradGradGradGradGradGradGradGradGradGradGradGrad
 Berny optimization.
 Internal  Forces:  Max     0.016317988 RMS     0.003553422
 Search for a local minimum.
 Step number   2 out of a maximum of  36
 All quantities printed in internal units (Hartrees-Bohrs-Radians)
 Update second derivatives using information from points  1  2
 Trust test= 1.12D+00 RLast= 1.40D-01 DXMaxT set to 4.20D-01
     Eigenvalues ---    0.02506   0.02638   0.02676   0.02835   0.15995
     Eigenvalues ---    0.16000   0.22458   0.24593   0.37663   0.48841
     Eigenvalues ---    0.50485   0.56188   0.60853   0.66929   0.69324
     Eigenvalues --- 1000.000001000.000001000.000001000.000001000.00000
     Eigenvalues --- 1000.000001000.000001000.000001000.000001000.00000
     Eigenvalues --- 1000.00000
 RFO step:  Lambda=-3.50812238D-04.
 Quartic linear search produced a step of  0.17372.
 Iteration  1 RMS(Cart)=  0.00591874 RMS(Int)=  0.00003833
 Iteration  2 RMS(Cart)=  0.00003392 RMS(Int)=  0.00001722
 Iteration  3 RMS(Cart)=  0.00000000 RMS(Int)=  0.00001722
 Variable       Old X    -DE/DX   Delta X   Delta X   Delta X     New X
                                 (Linear)    (Quad)   (Total)
    R1        2.45342   0.01632   0.01515   0.01315   0.02832   2.48174
    R2        2.58328   0.00115   0.00843  -0.00232   0.00610   2.58938
    R3        2.55117   0.00107   0.00783  -0.00372   0.00413   2.55530
    R4        1.91536   0.00028   0.00638  -0.00382   0.00256   1.91792
    R5        2.55497  -0.00135   0.00717  -0.01003  -0.00286   2.55211
    R6        2.49778   0.00336   0.01065  -0.00349   0.00714   2.50492
    R7        2.04099  -0.00039   0.00403  -0.00388   0.00015   2.04115
    A1        1.94077  -0.00150  -0.00053   0.00214   0.00162   1.94239
    A2        1.85357  -0.00421  -0.00143  -0.01383  -0.01521   1.83836
    A3        2.09926  -0.00229  -0.00145  -0.00893  -0.01038   2.08888
    A4        1.89417   0.00401   0.00153   0.01427   0.01582   1.90998
    A5        2.28976  -0.00172  -0.00008  -0.00535  -0.00544   2.28432
    A6        1.84345   0.00068  -0.00045   0.00173   0.00124   1.84469
    A7        1.89282   0.00102   0.00087  -0.00431  -0.00347   1.88935
    A8        2.17847  -0.00051  -0.00068   0.00228   0.00161   2.18008
    A9        2.21190  -0.00051  -0.00019   0.00203   0.00186   2.21375
    D1        0.00000   0.00000   0.00000   0.00000   0.00000   0.00000
    D2        0.00000   0.00000   0.00000   0.00000   0.00000   0.00000
    D3        3.14159   0.00000   0.00000   0.00000   0.00000   3.14159
    D4        0.00000   0.00000   0.00000   0.00000   0.00000   0.00000
    D5        0.00000   0.00000   0.00000   0.00000   0.00000   0.00000
    D6        3.14159   0.00000   0.00000   0.00000   0.00000   3.14159
    D7        3.14159   0.00000   0.00000   0.00000   0.00000   3.14159
    D8        0.00000   0.00000   0.00000   0.00000   0.00000   0.00000
    D9        0.00000   0.00000   0.00000   0.00000   0.00000   0.00000
   D10        3.14159   0.00000   0.00000   0.00000   0.00000   3.14159
         Item               Value     Threshold  Converged?
 Maximum Force            0.016318     0.000450     NO 
 RMS     Force            0.003553     0.000300     NO 
 Maximum Displacement     0.021329     0.001800     NO 
 RMS     Displacement     0.005916     0.001200     NO 
 Predicted change in Energy=-3.548093D-04
 GradGradGradGradGradGradGradGradGradGradGradGradGradGradGradGradGradGrad

                          Input orientation:                          
 ---------------------------------------------------------------------
 Center     Atomic     Atomic              Coordinates (Angstroms)
 Number     Number      Type              X           Y           Z
 ---------------------------------------------------------------------
    1          7             0       -1.068633    0.510736    0.000000
    2          7             0        0.066147    1.171778    0.000000
    3          7             0        1.031473    0.224885    0.000000
    4          1             0        2.007714    0.502390    0.000000
    5          7             0       -0.855902   -0.842894    0.000000
    6          6             0        0.460425   -0.998966    0.000000
    7          1             0        1.001747   -1.933657    0.000000
 ---------------------------------------------------------------------
                    Distance matrix (angstroms):
                    1          2          3          4          5
     1  N    0.000000
     2  N    1.313279   0.000000
     3  N    2.119471   1.352206   0.000000
     4  H    3.076359   2.053719   1.014917   0.000000
     5  N    1.370244   2.215644   2.168487   3.163872   0.000000
     6  C    2.148771   2.206260   1.350520   2.155962   1.325548
     7  H    3.203362   3.243312   2.158746   2.635583   2.154211
                    6          7
     6  C    0.000000
     7  H    1.080128   0.000000
 Stoichiometry    CH2N4
 Framework group  CS[SG(CH2N4)]
 Deg. of freedom   11
 Full point group                 CS      NOp   2
 Largest Abelian subgroup         CS      NOp   2
 Largest concise Abelian subgroup C1      NOp   1
                         Standard orientation:                         
 ---------------------------------------------------------------------
 Center     Atomic     Atomic              Coordinates (Angstroms)
 Number     Number      Type              X           Y           Z
 ---------------------------------------------------------------------
    1          7             0       -0.725115   -0.935582    0.000000
    2          7             0       -1.130220    0.313655    0.000000
    3          7             0        0.000000    1.055992    0.000000
    4          1             0       -0.063961    2.068892    0.000000
    5          7             0        0.642824   -1.015025    0.000000
    6          6             0        1.074749    0.238178    0.000000
    7          1             0        2.103043    0.568762    0.000000
 ---------------------------------------------------------------------
 Rotational constants (GHZ):     10.4136410     10.1748567      5.1464321
 Isotopes: N-14,N-14,N-14,H-1,N-14,C-12,H-1
 Standard basis: 6-31G(d) (6D, 7F)
 There are    59 symmetry adapted basis functions of A'  symmetry.
 There are    20 symmetry adapted basis functions of A"  symmetry.
 Crude estimate of integral set expansion from redundant integrals=1.000.
 Integral buffers will be    262144 words long.
 Raffenetti 1 integral format.
 Two-electron integral symmetry is turned on.
    79 basis functions      148 primitive gaussians
    18 alpha electrons       18 beta electrons
       nuclear repulsion energy       165.5543991396 Hartrees.
 One-electron integrals computed using PRISM.
 NBasis=    79 RedAO= T  NBF=    59    20
 NBsUse=    79 1.00D-04 NBFU=    59    20
 Initial guess read from the read-write file:
 Initial guess orbital symmetries:
       Occupied  (A') (A') (A') (A') (A') (A') (A') (A') (A') (A')
                 (A') (A') (A") (A') (A') (A') (A") (A")
       Virtual   (A") (A") (A') (A') (A') (A') (A') (A') (A') (A')
                 (A") (A') (A') (A') (A') (A") (A') (A') (A") (A")
                 (A') (A') (A") (A') (A') (A') (A') (A') (A') (A")
                 (A") (A") (A') (A') (A") (A") (A') (A') (A') (A')
                 (A') (A') (A") (A") (A') (A') (A") (A") (A') (A')
                 (A") (A') (A') (A') (A') (A') (A') (A') (A') (A')
                 (A')
 Requested convergence on RMS density matrix=1.00D-08 within  64 cycles.
 Requested convergence on MAX density matrix=1.00D-06.
 Keep R1 integrals in memory in canonical form, NReq=     5449697.
 SCF Done:  E(RHF) =  -256.744931464     A.U. after   13 cycles
             Convg  =    0.2700D-08             -V/T =  2.0040
             S**2   =   0.0000
 Range of M.O.s used for correlation:     6    79
 NBasis=    79 NAE=    18 NBE=    18 NFC=     5 NFV=     0
 NROrb=     74 NOA=    13 NOB=    13 NVA=    61 NVB=    61
 Fully direct method using O(ONN) memory.
 JobTyp=1 Pass  1:  I=   6 to  18.
 Spin components of T(2) and E(2):
     alpha-alpha T2 =       0.3836273626D-01 E2=     -0.1103658535D+00
     alpha-beta  T2 =       0.1933716542D+00 E2=     -0.5699868001D+00
     beta-beta   T2 =       0.3836273626D-01 E2=     -0.1103658535D+00
 ANorm=    0.1126985859D+01
 E2 =    -0.7907185070D+00 EUMP2 =    -0.25753564997126D+03
          Differentiating once with respect to electric field.
                with respect to dipole field.
          Differentiating once with respect to nuclear coordinates.
          Store integrals in memory, NReq=     5434786.
          There are   1 degrees of freedom in the 1st order CPHF.
   1 vectors were produced by pass  0.
 AX will form   1 AO Fock derivatives at one time.
   1 vectors were produced by pass  1.
   1 vectors were produced by pass  2.
   1 vectors were produced by pass  3.
   1 vectors were produced by pass  4.
   1 vectors were produced by pass  5.
   1 vectors were produced by pass  6.
   1 vectors were produced by pass  7.
   1 vectors were produced by pass  8.
   1 vectors were produced by pass  9.
   1 vectors were produced by pass 10.
   1 vectors were produced by pass 11.
   1 vectors were produced by pass 12.
   1 vectors were produced by pass 13.
   1 vectors were produced by pass 14.
   1 vectors were produced by pass 15.
 Inv2:  IOpt= 1 Iter= 1 AM= 4.59D-16 Conv= 1.00D-12.
 Inverted reduced A of dimension  16 with in-core refinement.
 ***** Axes restored to original set *****
 -------------------------------------------------------------------
 Center     Atomic                   Forces (Hartrees/Bohr)
 Number     Number              X              Y              Z
 -------------------------------------------------------------------
    1          7          -0.006412787   -0.005080864    0.000000000
    2          7           0.006315946   -0.001205225    0.000000000
    3          7          -0.000240790    0.000116891    0.000000000
    4          1          -0.000480626   -0.000384860    0.000000000
    5          7           0.000026863    0.003613492    0.000000000
    6          6           0.000980461    0.002507023    0.000000000
    7          1          -0.000189069    0.000433544    0.000000000
 -------------------------------------------------------------------
 Cartesian Forces:  Max     0.006412787 RMS     0.002480992

 GradGradGradGradGradGradGradGradGradGradGradGradGradGradGradGradGradGrad
 Berny optimization.
 Internal  Forces:  Max     0.005426966 RMS     0.001634981
 Search for a local minimum.
 Step number   3 out of a maximum of  36
 All quantities printed in internal units (Hartrees-Bohrs-Radians)
 Update second derivatives using information from points  1  2  3
 Trust test= 1.02D+00 RLast= 3.95D-02 DXMaxT set to 4.20D-01
     Eigenvalues ---    0.02506   0.02636   0.02675   0.02835   0.15995
     Eigenvalues ---    0.16027   0.22973   0.29206   0.36461   0.37707
     Eigenvalues ---    0.49303   0.52566   0.58833   0.66373   0.71678
     Eigenvalues --- 1000.000001000.000001000.000001000.000001000.00000
     Eigenvalues --- 1000.000001000.000001000.000001000.000001000.00000
     Eigenvalues --- 1000.00000
 RFO step:  Lambda=-1.59822182D-04.
 Quartic linear search produced a step of  0.14167.
 Iteration  1 RMS(Cart)=  0.00392871 RMS(Int)=  0.00000938
 Iteration  2 RMS(Cart)=  0.00000715 RMS(Int)=  0.00000453
 Iteration  3 RMS(Cart)=  0.00000000 RMS(Int)=  0.00000453
 Variable       Old X    -DE/DX   Delta X   Delta X   Delta X     New X
                                 (Linear)    (Quad)   (Total)
    R1        2.48174   0.00543   0.00401   0.01171   0.01572   2.49746
    R2        2.58938  -0.00361   0.00086  -0.00551  -0.00464   2.58474
    R3        2.55530  -0.00230   0.00059  -0.00312  -0.00254   2.55276
    R4        1.91792  -0.00057   0.00036  -0.00045  -0.00009   1.91782
    R5        2.55211  -0.00247  -0.00041  -0.00484  -0.00525   2.54686
    R6        2.50492   0.00083   0.00101   0.00255   0.00357   2.50849
    R7        2.04115  -0.00047   0.00002  -0.00097  -0.00095   2.04019
    A1        1.94239  -0.00272   0.00023  -0.00959  -0.00935   1.93304
    A2        1.83836   0.00144  -0.00215   0.00707   0.00491   1.84327
    A3        2.08888   0.00072  -0.00147   0.00368   0.00222   2.09110
    A4        1.90998  -0.00098   0.00224  -0.00479  -0.00256   1.90742
    A5        2.28432   0.00026  -0.00077   0.00111   0.00035   2.28467
    A6        1.84469   0.00106   0.00018   0.00400   0.00419   1.84888
    A7        1.88935   0.00121  -0.00049   0.00331   0.00282   1.89217
    A8        2.18008  -0.00066   0.00023  -0.00209  -0.00186   2.17822
    A9        2.21375  -0.00055   0.00026  -0.00122  -0.00096   2.21280
    D1        0.00000   0.00000   0.00000   0.00000   0.00000   0.00000
    D2        0.00000   0.00000   0.00000   0.00000   0.00000   0.00000
    D3        3.14159   0.00000   0.00000   0.00000   0.00000   3.14159
    D4        0.00000   0.00000   0.00000   0.00000   0.00000   0.00000
    D5        0.00000   0.00000   0.00000   0.00000   0.00000   0.00000
    D6        3.14159   0.00000   0.00000   0.00000   0.00000   3.14159
    D7        3.14159   0.00000   0.00000   0.00000   0.00000   3.14159
    D8        0.00000   0.00000   0.00000   0.00000   0.00000   0.00000
    D9        0.00000   0.00000   0.00000   0.00000   0.00000   0.00000
   D10        3.14159   0.00000   0.00000   0.00000   0.00000   3.14159
         Item               Value     Threshold  Converged?
 Maximum Force            0.005427     0.000450     NO 
 RMS     Force            0.001635     0.000300     NO 
 Maximum Displacement     0.014357     0.001800     NO 
 RMS     Displacement     0.003930     0.001200     NO 
 Predicted change in Energy=-8.567623D-05
 GradGradGradGradGradGradGradGradGradGradGradGradGradGradGradGradGradGrad

                          Input orientation:                          
 ---------------------------------------------------------------------
 Center     Atomic     Atomic              Coordinates (Angstroms)
 Number     Number      Type              X           Y           Z
 ---------------------------------------------------------------------
    1          7             0       -1.075775    0.508155    0.000000
    2          7             0        0.068990    1.168563    0.000000
    3          7             0        1.034015    0.223283    0.000000
    4          1             0        2.010631    0.499289    0.000000
    5          7             0       -0.856488   -0.841939    0.000000
    6          6             0        0.461862   -0.996983    0.000000
    7          1             0        1.002924   -1.931242    0.000000
 ---------------------------------------------------------------------
                    Distance matrix (angstroms):
                    1          2          3          4          5
     1  N    0.000000
     2  N    1.321599   0.000000
     3  N    2.128935   1.350862   0.000000
     4  H    3.086418   2.053752   1.014869   0.000000
     5  N    1.367787   2.213285   2.169954   3.165322   0.000000
     6  C    2.151690   2.200896   1.347742   2.153489   1.327436
     7  H    3.204941   3.237441   2.154749   2.631151   2.154993
                    6          7
     6  C    0.000000
     7  H    1.079624   0.000000
 Stoichiometry    CH2N4
 Framework group  CS[SG(CH2N4)]
 Deg. of freedom   11
 Full point group                 CS      NOp   2
 Largest Abelian subgroup         CS      NOp   2
 Largest concise Abelian subgroup C1      NOp   1
                         Standard orientation:                         
 ---------------------------------------------------------------------
 Center     Atomic     Atomic              Coordinates (Angstroms)
 Number     Number      Type              X           Y           Z
 ---------------------------------------------------------------------
    1          7             0       -0.723932   -0.943634    0.000000
    2          7             0       -1.127733    0.314765    0.000000
    3          7             0        0.000000    1.058437    0.000000
    4          1             0       -0.063570    2.071312    0.000000
    5          7             0        0.642026   -1.014364    0.000000
    6          6             0        1.071944    0.241524    0.000000
    7          1             0        2.099384    0.573118    0.000000
 ---------------------------------------------------------------------
 Rotational constants (GHZ):     10.3699527     10.1953679      5.1409596
 Isotopes: N-14,N-14,N-14,H-1,N-14,C-12,H-1
 Standard basis: 6-31G(d) (6D, 7F)
 There are    59 symmetry adapted basis functions of A'  symmetry.
 There are    20 symmetry adapted basis functions of A"  symmetry.
 Crude estimate of integral set expansion from redundant integrals=1.000.
 Integral buffers will be    262144 words long.
 Raffenetti 1 integral format.
 Two-electron integral symmetry is turned on.
    79 basis functions      148 primitive gaussians
    18 alpha electrons       18 beta electrons
       nuclear repulsion energy       165.4568960464 Hartrees.
 One-electron integrals computed using PRISM.
 NBasis=    79 RedAO= T  NBF=    59    20
 NBsUse=    79 1.00D-04 NBFU=    59    20
 Initial guess read from the read-write file:
 Initial guess orbital symmetries:
       Occupied  (A') (A') (A') (A') (A') (A') (A') (A') (A') (A')
                 (A') (A') (A") (A') (A') (A') (A") (A")
       Virtual   (A") (A") (A') (A') (A') (A') (A') (A') (A') (A')
                 (A") (A') (A') (A') (A') (A") (A') (A') (A") (A")
                 (A') (A') (A") (A') (A') (A') (A') (A') (A') (A")
                 (A") (A") (A') (A') (A") (A") (A') (A') (A') (A')
                 (A') (A') (A") (A") (A') (A') (A") (A") (A') (A')
                 (A") (A') (A') (A') (A') (A') (A') (A') (A') (A')
                 (A')
 Requested convergence on RMS density matrix=1.00D-08 within  64 cycles.
 Requested convergence on MAX density matrix=1.00D-06.
 Keep R1 integrals in memory in canonical form, NReq=     5449697.
 SCF Done:  E(RHF) =  -256.744006940     A.U. after   13 cycles
             Convg  =    0.3050D-08             -V/T =  2.0041
             S**2   =   0.0000
 Range of M.O.s used for correlation:     6    79
 NBasis=    79 NAE=    18 NBE=    18 NFC=     5 NFV=     0
 NROrb=     74 NOA=    13 NOB=    13 NVA=    61 NVB=    61
 Fully direct method using O(ONN) memory.
 JobTyp=1 Pass  1:  I=   6 to  18.
 Spin components of T(2) and E(2):
     alpha-alpha T2 =       0.3849865416D-01 E2=     -0.1105369096D+00
     alpha-beta  T2 =       0.1939520688D+00 E2=     -0.5706330096D+00
     beta-beta   T2 =       0.3849865416D-01 E2=     -0.1105369096D+00
 ANorm=    0.1127363906D+01
 E2 =    -0.7917068288D+00 EUMP2 =    -0.25753571376882D+03
          Differentiating once with respect to electric field.
                with respect to dipole field.
          Differentiating once with respect to nuclear coordinates.
          Store integrals in memory, NReq=     5434786.
          There are   1 degrees of freedom in the 1st order CPHF.
   1 vectors were produced by pass  0.
 AX will form   1 AO Fock derivatives at one time.
   1 vectors were produced by pass  1.
   1 vectors were produced by pass  2.
   1 vectors were produced by pass  3.
   1 vectors were produced by pass  4.
   1 vectors were produced by pass  5.
   1 vectors were produced by pass  6.
   1 vectors were produced by pass  7.
   1 vectors were produced by pass  8.
   1 vectors were produced by pass  9.
   1 vectors were produced by pass 10.
   1 vectors were produced by pass 11.
   1 vectors were produced by pass 12.
   1 vectors were produced by pass 13.
   1 vectors were produced by pass 14.
   1 vectors were produced by pass 15.
 Inv2:  IOpt= 1 Iter= 1 AM= 3.20D-16 Conv= 1.00D-12.
 Inverted reduced A of dimension  16 with in-core refinement.
 ***** Axes restored to original set *****
 -------------------------------------------------------------------
 Center     Atomic                   Forces (Hartrees/Bohr)
 Number     Number              X              Y              Z
 -------------------------------------------------------------------
    1          7           0.002759046   -0.003404235    0.000000000
    2          7           0.001406620    0.000847721    0.000000000
    3          7          -0.002977978    0.001305305    0.000000000
    4          1          -0.000584951   -0.000081238    0.000000000
    5          7           0.000697302    0.001854874    0.000000000
    6          6          -0.001052517   -0.000433637    0.000000000
    7          1          -0.000247522   -0.000088790    0.000000000
 -------------------------------------------------------------------
 Cartesian Forces:  Max     0.003404235 RMS     0.001347150

 GradGradGradGradGradGradGradGradGradGradGradGradGradGradGradGradGradGrad
 Berny optimization.
 Internal  Forces:  Max     0.002358989 RMS     0.001049845
 Search for a local minimum.
 Step number   4 out of a maximum of  36
 All quantities printed in internal units (Hartrees-Bohrs-Radians)
 Update second derivatives using information from points  1  2  3  4
 Trust test= 7.45D-01 RLast= 2.17D-02 DXMaxT set to 4.20D-01
     Eigenvalues ---    0.02506   0.02636   0.02677   0.02836   0.15992
     Eigenvalues ---    0.16029   0.22039   0.25844   0.37645   0.46021
     Eigenvalues ---    0.49118   0.52766   0.58876   0.62652   0.75103
     Eigenvalues --- 1000.000001000.000001000.000001000.000001000.00000
     Eigenvalues --- 1000.000001000.000001000.000001000.000001000.00000
     Eigenvalues --- 1000.00000
 RFO step:  Lambda=-4.23714953D-05.
 Quartic linear search produced a step of -0.20006.
 Iteration  1 RMS(Cart)=  0.00194497 RMS(Int)=  0.00000344
 Iteration  2 RMS(Cart)=  0.00000214 RMS(Int)=  0.00000226
 Iteration  3 RMS(Cart)=  0.00000000 RMS(Int)=  0.00000226
 Variable       Old X    -DE/DX   Delta X   Delta X   Delta X     New X
                                 (Linear)    (Quad)   (Total)
    R1        2.49746  -0.00052  -0.00315   0.00544   0.00230   2.49976
    R2        2.58474  -0.00236   0.00093  -0.00541  -0.00449   2.58026
    R3        2.55276  -0.00223   0.00051  -0.00393  -0.00342   2.54934
    R4        1.91782  -0.00058   0.00002  -0.00088  -0.00086   1.91696
    R5        2.54686   0.00039   0.00105  -0.00128  -0.00023   2.54663
    R6        2.50849  -0.00216  -0.00071  -0.00092  -0.00164   2.50685
    R7        2.04019  -0.00005   0.00019  -0.00034  -0.00015   2.04004
    A1        1.93304   0.00214   0.00187   0.00241   0.00428   1.93731
    A2        1.84327  -0.00221  -0.00098  -0.00436  -0.00534   1.83793
    A3        2.09110  -0.00070  -0.00044  -0.00143  -0.00188   2.08922
    A4        1.90742   0.00124   0.00051   0.00302   0.00354   1.91096
    A5        2.28467  -0.00054  -0.00007  -0.00159  -0.00166   2.28301
    A6        1.84888  -0.00064  -0.00084  -0.00068  -0.00152   1.84736
    A7        1.89217  -0.00052  -0.00056  -0.00039  -0.00095   1.89121
    A8        2.17822   0.00052   0.00037   0.00132   0.00169   2.17991
    A9        2.21280   0.00000   0.00019  -0.00093  -0.00074   2.21206
    D1        0.00000   0.00000   0.00000   0.00000   0.00000   0.00000
    D2        0.00000   0.00000   0.00000   0.00000   0.00000   0.00000
    D3        3.14159   0.00000   0.00000   0.00000   0.00000   3.14159
    D4        0.00000   0.00000   0.00000   0.00000   0.00000   0.00000
    D5        0.00000   0.00000   0.00000   0.00000   0.00000   0.00000
    D6        3.14159   0.00000   0.00000   0.00000   0.00000   3.14159
    D7        3.14159   0.00000   0.00000   0.00000   0.00000   3.14159
    D8        0.00000   0.00000   0.00000   0.00000   0.00000   0.00000
    D9        0.00000   0.00000   0.00000   0.00000   0.00000   0.00000
   D10        3.14159   0.00000   0.00000   0.00000   0.00000   3.14159
         Item               Value     Threshold  Converged?
 Maximum Force            0.002359     0.000450     NO 
 RMS     Force            0.001050     0.000300     NO 
 Maximum Displacement     0.005082     0.001800     NO 
 RMS     Displacement     0.001945     0.001200     NO 
 Predicted change in Energy=-2.543994D-05
 GradGradGradGradGradGradGradGradGradGradGradGradGradGradGradGradGradGrad

                          Input orientation:                          
 ---------------------------------------------------------------------
 Center     Atomic     Atomic              Coordinates (Angstroms)
 Number     Number      Type              X           Y           Z
 ---------------------------------------------------------------------
    1          7             0       -1.072528    0.506085    0.000000
    2          7             0        0.071333    1.170481    0.000000
    3          7             0        1.032808    0.224171    0.000000
    4          1             0        2.009125    0.499554    0.000000
    5          7             0       -0.855408   -0.841956    0.000000
    6          6             0        0.462110   -0.996642    0.000000
    7          1             0        1.002623   -1.931125    0.000000
 ---------------------------------------------------------------------
                    Distance matrix (angstroms):
                    1          2          3          4          5
     1  N    0.000000
     2  N    1.322815   0.000000
     3  N    2.124127   1.349051   0.000000
     4  H    3.081660   2.050654   1.014411   0.000000
     5  N    1.365414   2.215570   2.168406   3.163099   0.000000
     6  C    2.147860   2.202074   1.347620   2.152175   1.326568
     7  H    3.200975   3.238404   2.155507   2.630827   2.153734
                    6          7
     6  C    0.000000
     7  H    1.079543   0.000000
 Stoichiometry    CH2N4
 Framework group  CS[SG(CH2N4)]
 Deg. of freedom   11
 Full point group                 CS      NOp   2
 Largest Abelian subgroup         CS      NOp   2
 Largest concise Abelian subgroup C1      NOp   1
                         Standard orientation:                         
 ---------------------------------------------------------------------
 Center     Atomic     Atomic              Coordinates (Angstroms)
 Number     Number      Type              X           Y           Z
 ---------------------------------------------------------------------
    1          7             0       -0.722261   -0.941191    0.000000
    2          7             0       -1.128790    0.317608    0.000000
    3          7             0        0.000000    1.056371    0.000000
    4          1             0       -0.061930    2.068891    0.000000
    5          7             0        0.641152   -1.015079    0.000000
    6          6             0        1.071902    0.239607    0.000000
    7          1             0        2.099803    0.569505    0.000000
 ---------------------------------------------------------------------
 Rotational constants (GHZ):     10.4074606     10.1841050      5.1472857
 Isotopes: N-14,N-14,N-14,H-1,N-14,C-12,H-1
 Standard basis: 6-31G(d) (6D, 7F)
 There are    59 symmetry adapted basis functions of A'  symmetry.
 There are    20 symmetry adapted basis functions of A"  symmetry.
 Crude estimate of integral set expansion from redundant integrals=1.000.
 Integral buffers will be    262144 words long.
 Raffenetti 1 integral format.
 Two-electron integral symmetry is turned on.
    79 basis functions      148 primitive gaussians
    18 alpha electrons       18 beta electrons
       nuclear repulsion energy       165.5567739410 Hartrees.
 One-electron integrals computed using PRISM.
 NBasis=    79 RedAO= T  NBF=    59    20
 NBsUse=    79 1.00D-04 NBFU=    59    20
 Initial guess read from the read-write file:
 Initial guess orbital symmetries:
       Occupied  (A') (A') (A') (A') (A') (A') (A') (A') (A') (A')
                 (A') (A') (A") (A') (A') (A') (A") (A")
       Virtual   (A") (A") (A') (A') (A') (A') (A') (A') (A') (A')
                 (A") (A') (A') (A') (A') (A") (A') (A') (A") (A")
                 (A') (A') (A") (A') (A') (A') (A') (A') (A') (A")
                 (A") (A") (A') (A') (A") (A") (A') (A') (A') (A')
                 (A') (A') (A") (A") (A') (A') (A") (A") (A') (A')
                 (A") (A') (A') (A') (A') (A') (A') (A') (A') (A')
                 (A')
 Requested convergence on RMS density matrix=1.00D-08 within  64 cycles.
 Requested convergence on MAX density matrix=1.00D-06.
 Keep R1 integrals in memory in canonical form, NReq=     5449697.
 SCF Done:  E(RHF) =  -256.744178799     A.U. after   11 cycles
             Convg  =    0.6247D-08             -V/T =  2.0040
             S**2   =   0.0000
 Range of M.O.s used for correlation:     6    79
 NBasis=    79 NAE=    18 NBE=    18 NFC=     5 NFV=     0
 NROrb=     74 NOA=    13 NOB=    13 NVA=    61 NVB=    61
 Fully direct method using O(ONN) memory.
 JobTyp=1 Pass  1:  I=   6 to  18.
 Spin components of T(2) and E(2):
     alpha-alpha T2 =       0.3848208218D-01 E2=     -0.1105388605D+00
     alpha-beta  T2 =       0.1938014210D+00 E2=     -0.5704840823D+00
     beta-beta   T2 =       0.3848208218D-01 E2=     -0.1105388605D+00
 ANorm=    0.1127282389D+01
 E2 =    -0.7915618033D+00 EUMP2 =    -0.25753574060242D+03
          Differentiating once with respect to electric field.
                with respect to dipole field.
          Differentiating once with respect to nuclear coordinates.
          Store integrals in memory, NReq=     5434786.
          There are   1 degrees of freedom in the 1st order CPHF.
   1 vectors were produced by pass  0.
 AX will form   1 AO Fock derivatives at one time.
   1 vectors were produced by pass  1.
   1 vectors were produced by pass  2.
   1 vectors were produced by pass  3.
   1 vectors were produced by pass  4.
   1 vectors were produced by pass  5.
   1 vectors were produced by pass  6.
   1 vectors were produced by pass  7.
   1 vectors were produced by pass  8.
   1 vectors were produced by pass  9.
   1 vectors were produced by pass 10.
   1 vectors were produced by pass 11.
   1 vectors were produced by pass 12.
   1 vectors were produced by pass 13.
   1 vectors were produced by pass 14.
   1 vectors were produced by pass 15.
 Inv2:  IOpt= 1 Iter= 1 AM= 3.83D-16 Conv= 1.00D-12.
 Inverted reduced A of dimension  16 with in-core refinement.
 ***** Axes restored to original set *****
 -------------------------------------------------------------------
 Center     Atomic                   Forces (Hartrees/Bohr)
 Number     Number              X              Y              Z
 -------------------------------------------------------------------
    1          7           0.000238582   -0.000675839    0.000000000
    2          7          -0.000209083   -0.001095662    0.000000000
    3          7          -0.000576184    0.000819249    0.000000000
    4          1          -0.000059436   -0.000157203    0.000000000
    5          7           0.000635808    0.001880848    0.000000000
    6          6          -0.000035538   -0.000760893    0.000000000
    7          1           0.000005851   -0.000010500    0.000000000
 -------------------------------------------------------------------
 Cartesian Forces:  Max     0.001880848 RMS     0.000590056

 GradGradGradGradGradGradGradGradGradGradGradGradGradGradGradGradGradGrad
 Berny optimization.
 Internal  Forces:  Max     0.001190931 RMS     0.000379023
 Search for a local minimum.
 Step number   5 out of a maximum of  36
 All quantities printed in internal units (Hartrees-Bohrs-Radians)
 Update second derivatives using information from points  1  2  3  4  5

 Trust test= 1.05D+00 RLast= 1.06D-02 DXMaxT set to 4.20D-01
     Eigenvalues ---    0.02506   0.02636   0.02677   0.02835   0.15499
     Eigenvalues ---    0.16087   0.17807   0.37594   0.37969   0.45802
     Eigenvalues ---    0.49147   0.51461   0.55575   0.60499   0.74374
     Eigenvalues --- 1000.000001000.000001000.000001000.000001000.00000
     Eigenvalues --- 1000.000001000.000001000.000001000.000001000.00000
     Eigenvalues --- 1000.00000
 RFO step:  Lambda=-1.01638760D-05.
 Quartic linear search produced a step of  0.05651.
 Iteration  1 RMS(Cart)=  0.00096806 RMS(Int)=  0.00000089
 Iteration  2 RMS(Cart)=  0.00000085 RMS(Int)=  0.00000035
 Variable       Old X    -DE/DX   Delta X   Delta X   Delta X     New X
                                 (Linear)    (Quad)   (Total)
    R1        2.49976  -0.00068   0.00013  -0.00030  -0.00017   2.49959
    R2        2.58026  -0.00119  -0.00025  -0.00298  -0.00323   2.57702
    R3        2.54934  -0.00055  -0.00019  -0.00144  -0.00163   2.54770
    R4        1.91696  -0.00010  -0.00005  -0.00036  -0.00041   1.91655
    R5        2.54663  -0.00004  -0.00001  -0.00010  -0.00012   2.54652
    R6        2.50685  -0.00034  -0.00009  -0.00066  -0.00076   2.50609
    R7        2.04004   0.00001  -0.00001  -0.00003  -0.00004   2.04000
    A1        1.93731  -0.00034   0.00024  -0.00144  -0.00120   1.93611
    A2        1.83793   0.00031  -0.00030   0.00030   0.00000   1.83793
    A3        2.08922   0.00016  -0.00011   0.00034   0.00024   2.08946
    A4        1.91096  -0.00005   0.00020   0.00093   0.00113   1.91209
    A5        2.28301  -0.00010  -0.00009  -0.00128  -0.00137   2.28164
    A6        1.84736   0.00073  -0.00009   0.00283   0.00274   1.85010
    A7        1.89121  -0.00066  -0.00005  -0.00262  -0.00267   1.88854
    A8        2.17991   0.00033   0.00010   0.00148   0.00157   2.18149
    A9        2.21206   0.00033  -0.00004   0.00114   0.00110   2.21316
    D1        0.00000   0.00000   0.00000   0.00000   0.00000   0.00000
    D2        0.00000   0.00000   0.00000   0.00000   0.00000   0.00000
    D3        3.14159   0.00000   0.00000   0.00000   0.00000   3.14159
    D4        0.00000   0.00000   0.00000   0.00000   0.00000   0.00000
    D5        0.00000   0.00000   0.00000   0.00000   0.00000   0.00000
    D6        3.14159   0.00000   0.00000   0.00000   0.00000   3.14159
    D7        3.14159   0.00000   0.00000   0.00000   0.00000   3.14159
    D8        0.00000   0.00000   0.00000   0.00000   0.00000   0.00000
    D9        0.00000   0.00000   0.00000   0.00000   0.00000   0.00000
   D10        3.14159   0.00000   0.00000   0.00000   0.00000   3.14159
         Item               Value     Threshold  Converged?
 Maximum Force            0.001191     0.000450     NO 
 RMS     Force            0.000379     0.000300     NO 
 Maximum Displacement     0.003216     0.001800     NO 
 RMS     Displacement     0.000968     0.001200     YES
 Predicted change in Energy=-5.158543D-06
 GradGradGradGradGradGradGradGradGradGradGradGradGradGradGradGradGradGrad

                          Input orientation:                          
 ---------------------------------------------------------------------
 Center     Atomic     Atomic              Coordinates (Angstroms)
 Number     Number      Type              X           Y           Z
 ---------------------------------------------------------------------
    1          7             0       -1.073071    0.505851    0.000000
    2          7             0        0.070766    1.170109    0.000000
    3          7             0        1.031547    0.224326    0.000000
    4          1             0        2.007742    0.499337    0.000000
    5          7             0       -0.854713   -0.840255    0.000000
    6          6             0        0.462156   -0.997029    0.000000
    7          1             0        1.002166   -1.931779    0.000000
 ---------------------------------------------------------------------
                    Distance matrix (angstroms):
                    1          2          3          4          5
     1  N    0.000000
     2  N    1.322725   0.000000
     3  N    2.123364   1.348186   0.000000
     4  H    3.080820   2.049832   1.014193   0.000000
     5  N    1.363702   2.213160   2.165943   3.160405   0.000000
     6  C    2.148388   2.202198   1.347559   2.151267   1.326168
     7  H    3.201351   3.238705   2.156304   2.630875   2.153932
                    6          7
     6  C    0.000000
     7  H    1.079522   0.000000
 Stoichiometry    CH2N4
 Framework group  CS[SG(CH2N4)]
 Deg. of freedom   11
 Full point group                 CS      NOp   2
 Largest Abelian subgroup         CS      NOp   2
 Largest concise Abelian subgroup C1      NOp   1
                         Standard orientation:                         
 ---------------------------------------------------------------------
 Center     Atomic     Atomic              Coordinates (Angstroms)
 Number     Number      Type              X           Y           Z
 ---------------------------------------------------------------------
    1          7             0       -0.722088   -0.941313    0.000000
    2          7             0       -1.128260    0.317506    0.000000
    3          7             0        0.000000    1.055501    0.000000
    4          1             0       -0.061410    2.067833    0.000000
    5          7             0        0.639685   -1.013826    0.000000
    6          6             0        1.072563    0.239704    0.000000
    7          1             0        2.100676    0.568870    0.000000
 ---------------------------------------------------------------------
 Rotational constants (GHZ):     10.4087916     10.2012248      5.1519815
 Isotopes: N-14,N-14,N-14,H-1,N-14,C-12,H-1
 Standard basis: 6-31G(d) (6D, 7F)
 There are    59 symmetry adapted basis functions of A'  symmetry.
 There are    20 symmetry adapted basis functions of A"  symmetry.
 Crude estimate of integral set expansion from redundant integrals=1.000.
 Integral buffers will be    262144 words long.
 Raffenetti 1 integral format.
 Two-electron integral symmetry is turned on.
    79 basis functions      148 primitive gaussians
    18 alpha electrons       18 beta electrons
       nuclear repulsion energy       165.6301541853 Hartrees.
 One-electron integrals computed using PRISM.
 NBasis=    79 RedAO= T  NBF=    59    20
 NBsUse=    79 1.00D-04 NBFU=    59    20
 Initial guess read from the read-write file:
 Initial guess orbital symmetries:
       Occupied  (A') (A') (A') (A') (A') (A') (A') (A') (A') (A')
                 (A') (A') (A") (A') (A') (A') (A") (A")
       Virtual   (A") (A") (A') (A') (A') (A') (A') (A') (A') (A')
                 (A") (A') (A') (A') (A') (A") (A') (A') (A") (A")
                 (A') (A') (A") (A') (A') (A') (A') (A') (A') (A")
                 (A") (A") (A') (A') (A") (A") (A') (A') (A') (A')
                 (A') (A') (A") (A") (A') (A') (A") (A") (A') (A')
                 (A") (A') (A') (A') (A') (A') (A') (A') (A') (A')
                 (A')
 Requested convergence on RMS density matrix=1.00D-08 within  64 cycles.
 Requested convergence on MAX density matrix=1.00D-06.
 Keep R1 integrals in memory in canonical form, NReq=     5449697.
 SCF Done:  E(RHF) =  -256.744399026     A.U. after   11 cycles
             Convg  =    0.8486D-08             -V/T =  2.0040
             S**2   =   0.0000
 Range of M.O.s used for correlation:     6    79
 NBasis=    79 NAE=    18 NBE=    18 NFC=     5 NFV=     0
 NROrb=     74 NOA=    13 NOB=    13 NVA=    61 NVB=    61
 Fully direct method using O(ONN) memory.
 JobTyp=1 Pass  1:  I=   6 to  18.
 Spin components of T(2) and E(2):
     alpha-alpha T2 =       0.3845630510D-01 E2=     -0.1105208987D+00
     alpha-beta  T2 =       0.1936340868D+00 E2=     -0.5703046794D+00
     beta-beta   T2 =       0.3845630510D-01 E2=     -0.1105208987D+00
 ANorm=    0.1127185298D+01
 E2 =    -0.7913464768D+00 EUMP2 =    -0.25753574550264D+03
          Differentiating once with respect to electric field.
                with respect to dipole field.
          Differentiating once with respect to nuclear coordinates.
          Store integrals in memory, NReq=     5434786.
          There are   1 degrees of freedom in the 1st order CPHF.
   1 vectors were produced by pass  0.
 AX will form   1 AO Fock derivatives at one time.
   1 vectors were produced by pass  1.
   1 vectors were produced by pass  2.
   1 vectors were produced by pass  3.
   1 vectors were produced by pass  4.
   1 vectors were produced by pass  5.
   1 vectors were produced by pass  6.
   1 vectors were produced by pass  7.
   1 vectors were produced by pass  8.
   1 vectors were produced by pass  9.
   1 vectors were produced by pass 10.
   1 vectors were produced by pass 11.
   1 vectors were produced by pass 12.
   1 vectors were produced by pass 13.
   1 vectors were produced by pass 14.
   1 vectors were produced by pass 15.
 Inv2:  IOpt= 1 Iter= 1 AM= 4.90D-16 Conv= 1.00D-12.
 Inverted reduced A of dimension  16 with in-core refinement.
 ***** Axes restored to original set *****
 -------------------------------------------------------------------
 Center     Atomic                   Forces (Hartrees/Bohr)
 Number     Number              X              Y              Z
 -------------------------------------------------------------------
    1          7           0.000331535   -0.000281605    0.000000000
    2          7          -0.000152930   -0.000356414    0.000000000
    3          7           0.000288458    0.000515871    0.000000000
    4          1           0.000114594    0.000012829    0.000000000
    5          7          -0.000497922    0.000222371    0.000000000
    6          6          -0.000088591   -0.000141692    0.000000000
    7          1           0.000004856    0.000028640    0.000000000
 -------------------------------------------------------------------
 Cartesian Forces:  Max     0.000515871 RMS     0.000221296

 GradGradGradGradGradGradGradGradGradGradGradGradGradGradGradGradGradGrad
 Berny optimization.
 Internal  Forces:  Max     0.000358481 RMS     0.000158585
 Search for a local minimum.
 Step number   6 out of a maximum of  36
 All quantities printed in internal units (Hartrees-Bohrs-Radians)
 Update second derivatives using information from points  1  2  3  4  5
                                                        6
 Trust test= 9.50D-01 RLast= 6.07D-03 DXMaxT set to 4.20D-01
     Eigenvalues ---    0.02506   0.02636   0.02676   0.02835   0.15645
     Eigenvalues ---    0.16079   0.21193   0.37249   0.37983   0.39862
     Eigenvalues ---    0.48505   0.49784   0.55626   0.66924   0.76637
     Eigenvalues --- 1000.000001000.000001000.000001000.000001000.00000
     Eigenvalues --- 1000.000001000.000001000.000001000.000001000.00000
     Eigenvalues --- 1000.00000
 RFO step:  Lambda=-1.35689156D-06.
 Quartic linear search produced a step of -0.04834.
 Iteration  1 RMS(Cart)=  0.00034255 RMS(Int)=  0.00000009
 Iteration  2 RMS(Cart)=  0.00000006 RMS(Int)=  0.00000006
 Variable       Old X    -DE/DX   Delta X   Delta X   Delta X     New X
                                 (Linear)    (Quad)   (Total)
    R1        2.49959  -0.00012   0.00001  -0.00041  -0.00040   2.49919
    R2        2.57702  -0.00036   0.00016  -0.00107  -0.00092   2.57611
    R3        2.54770  -0.00019   0.00008  -0.00051  -0.00043   2.54727
    R4        1.91655   0.00011   0.00002   0.00010   0.00012   1.91667
    R5        2.54652   0.00035   0.00001   0.00059   0.00059   2.54711
    R6        2.50609   0.00026   0.00004   0.00017   0.00020   2.50630
    R7        2.04000  -0.00002   0.00000  -0.00010  -0.00010   2.03990
    A1        1.93611   0.00022   0.00006   0.00042   0.00048   1.93659
    A2        1.83793   0.00018   0.00000   0.00034   0.00034   1.83828
    A3        2.08946   0.00017  -0.00001   0.00055   0.00054   2.09000
    A4        1.91209  -0.00029  -0.00005  -0.00067  -0.00073   1.91136
    A5        2.28164   0.00013   0.00007   0.00013   0.00019   2.28183
    A6        1.85010  -0.00020  -0.00013  -0.00032  -0.00045   1.84965
    A7        1.88854   0.00011   0.00013   0.00023   0.00036   1.88890
    A8        2.18149  -0.00007  -0.00008  -0.00019  -0.00026   2.18122
    A9        2.21316  -0.00003  -0.00005  -0.00004  -0.00009   2.21306
    D1        0.00000   0.00000   0.00000   0.00000   0.00000   0.00000
    D2        0.00000   0.00000   0.00000   0.00000   0.00000   0.00000
    D3        3.14159   0.00000   0.00000   0.00000   0.00000   3.14159
    D4        0.00000   0.00000   0.00000   0.00000   0.00000   0.00000
    D5        0.00000   0.00000   0.00000   0.00000   0.00000   0.00000
    D6        3.14159   0.00000   0.00000   0.00000   0.00000   3.14159
    D7        3.14159   0.00000   0.00000   0.00000   0.00000   3.14159
    D8        0.00000   0.00000   0.00000   0.00000   0.00000   0.00000
    D9        0.00000   0.00000   0.00000   0.00000   0.00000   0.00000
   D10        3.14159   0.00000   0.00000   0.00000   0.00000   3.14159
         Item               Value     Threshold  Converged?
 Maximum Force            0.000358     0.000450     YES
 RMS     Force            0.000159     0.000300     YES
 Maximum Displacement     0.000732     0.001800     YES
 RMS     Displacement     0.000343     0.001200     YES
 Predicted change in Energy=-6.911001D-07
 Optimization completed.
    -- Stationary point found.
                         ----------------------------
                         !   Optimized Parameters   !
                         ! (Angstroms and Degrees)  !
 ------------------------                            -------------------------
 ! Name  Definition              Value          Derivative Info.             !
 -----------------------------------------------------------------------------
 ! R1    R(1,2)                  1.3227         -DE/DX =   -0.0001           !
 ! R2    R(1,5)                  1.3637         -DE/DX =   -0.0004           !
 ! R3    R(2,3)                  1.3482         -DE/DX =   -0.0002           !
 ! R4    R(3,4)                  1.0142         -DE/DX =    0.0001           !
 ! R5    R(3,6)                  1.3476         -DE/DX =    0.0004           !
 ! R6    R(5,6)                  1.3262         -DE/DX =    0.0003           !
 ! R7    R(6,7)                  1.0795         -DE/DX =    0.               !
 ! A1    A(2,1,5)              110.931          -DE/DX =    0.0002           !
 ! A2    A(1,2,3)              105.3058         -DE/DX =    0.0002           !
 ! A3    A(2,3,4)              119.7172         -DE/DX =    0.0002           !
 ! A4    A(2,3,6)              109.5545         -DE/DX =   -0.0003           !
 ! A5    A(4,3,6)              130.7282         -DE/DX =    0.0001           !
 ! A6    A(1,5,6)              106.0031         -DE/DX =   -0.0002           !
 ! A7    A(3,6,5)              108.2056         -DE/DX =    0.0001           !
 ! A8    A(3,6,7)              124.9899         -DE/DX =   -0.0001           !
 ! A9    A(5,6,7)              126.8045         -DE/DX =    0.               !
 ! D1    D(5,1,2,3)              0.             -DE/DX =    0.               !
 ! D2    D(2,1,5,6)              0.             -DE/DX =    0.               !
 ! D3    D(1,2,3,4)            180.             -DE/DX =    0.               !
 ! D4    D(1,2,3,6)              0.             -DE/DX =    0.               !
 ! D5    D(2,3,6,5)              0.             -DE/DX =    0.               !
 ! D6    D(2,3,6,7)            180.             -DE/DX =    0.               !
 ! D7    D(4,3,6,5)            180.             -DE/DX =    0.               !
 ! D8    D(4,3,6,7)              0.             -DE/DX =    0.               !
 ! D9    D(1,5,6,3)              0.             -DE/DX =    0.               !
 ! D10   D(1,5,6,7)            180.             -DE/DX =    0.               !
 -----------------------------------------------------------------------------
 GradGradGradGradGradGradGradGradGradGradGradGradGradGradGradGradGradGrad

                          Input orientation:                          
 ---------------------------------------------------------------------
 Center     Atomic     Atomic              Coordinates (Angstroms)
 Number     Number      Type              X           Y           Z
 ---------------------------------------------------------------------
    1          7             0       -1.073197    0.505696    0.000000
    2          7             0        0.070640    1.169954    0.000000
    3          7             0        1.031421    0.224170    0.000000
    4          1             0        2.007616    0.499182    0.000000
    5          7             0       -0.854839   -0.840411    0.000000
    6          6             0        0.462029   -0.997185    0.000000
    7          1             0        1.002040   -1.931934    0.000000
 ---------------------------------------------------------------------
                    Distance matrix (angstroms):
                    1          2          3          4          5
     1  N    0.000000
     2  N    1.322725   0.000000
     3  N    2.123364   1.348186   0.000000
     4  H    3.080820   2.049832   1.014193   0.000000
     5  N    1.363702   2.213160   2.165943   3.160405   0.000000
     6  C    2.148388   2.202198   1.347559   2.151267   1.326168
     7  H    3.201351   3.238705   2.156304   2.630875   2.153932
                    6          7
     6  C    0.000000
     7  H    1.079522   0.000000
 Stoichiometry    CH2N4
 Framework group  CS[SG(CH2N4)]
 Deg. of freedom   11
 Full point group                 CS      NOp   2
 Largest Abelian subgroup         CS      NOp   2
 Largest concise Abelian subgroup C1      NOp   1
                         Standard orientation:                         
 ---------------------------------------------------------------------
 Center     Atomic     Atomic              Coordinates (Angstroms)
 Number     Number      Type              X           Y           Z
 ---------------------------------------------------------------------
    1          7             0       -0.722088   -0.941313    0.000000
    2          7             0       -1.128260    0.317506    0.000000
    3          7             0        0.000000    1.055501    0.000000
    4          1             0       -0.061410    2.067833    0.000000
    5          7             0        0.639685   -1.013826    0.000000
    6          6             0        1.072563    0.239704    0.000000
    7          1             0        2.100676    0.568870    0.000000
 ---------------------------------------------------------------------
 Rotational constants (GHZ):     10.4087916     10.2012248      5.1519815
 Isotopes: N-14,N-14,N-14,H-1,N-14,C-12,H-1

 **********************************************************************

            Population analysis using the SCF density.

 **********************************************************************

 Orbital Symmetries:
[...]
 Approx polarizability:  38.484  -0.145  40.504   0.000   0.000  16.880
 Full mass-weighted force constant matrix:
 Low frequencies ---  -15.2903   -1.3702   -0.0008    0.0007    0.0010   15.2189
 Low frequencies ---  606.1253  697.5907  735.1153
 Harmonic frequencies (cm**-1), IR intensities (KM/Mole),
 Raman scattering activities (A**4/AMU), Raman depolarization ratios,
 reduced masses (AMU), force constants (mDyne/A) and normal coordinates:
                     1                      2                      3
                    A"                     A"                     A"
 Frequencies --   606.1252               697.5906               735.1152
 Red. masses --     2.3635                 1.8919                 4.9011
 Frc consts  --     0.5116                 0.5424                 1.5605
 IR Inten    --    73.5899                17.0317                15.2613
 Raman Activ --     0.0000                 0.0000                 0.0000
 Depolar     --     0.0000                 0.0000                 0.0000
 Atom AN      X      Y      Z        X      Y      Z        X      Y      Z
   1   7     0.00   0.00   0.01     0.00   0.00   0.08     0.00   0.00   0.36
   2   7     0.00   0.00  -0.12     0.00   0.00   0.05     0.00   0.00  -0.33
   3   7     0.00   0.00   0.26     0.00   0.00  -0.05     0.00   0.00   0.09
   4   1     0.00   0.00  -0.92     0.00   0.00  -0.84     0.00   0.00   0.83
   5   7     0.00   0.00   0.05     0.00   0.00  -0.18     0.00   0.00  -0.22
   6   6     0.00   0.00  -0.14     0.00   0.00   0.17     0.00   0.00   0.05
   7   1     0.00   0.00  -0.22     0.00   0.00   0.47     0.00   0.00  -0.13
                     4                      5                      6
                    A"                     A'                     A'
 Frequencies --   811.0132               969.5317              1012.0711
 Red. masses --     1.2919                 4.7752                 6.1473
 Frc consts  --     0.5006                 2.6446                 3.7099
 IR Inten    --    31.7409                 2.7860                 3.5198
 Raman Activ --     0.0000                 0.0000                 0.0000
 Depolar     --     0.0000                 0.0000                 0.0000
 Atom AN      X      Y      Z        X      Y      Z        X      Y      Z
   1   7     0.00   0.00   0.03     0.03   0.16   0.00     0.14  -0.09   0.00
   2   7     0.00   0.00   0.00    -0.14   0.18   0.00     0.19  -0.07   0.00
   3   7     0.00   0.00   0.01    -0.11  -0.03   0.00     0.00   0.43   0.00
   4   1     0.00   0.00   0.14     0.47   0.01   0.00    -0.07   0.45   0.00
   5   7     0.00   0.00   0.02     0.33  -0.26   0.00    -0.03  -0.20   0.00
   6   6     0.00   0.00  -0.16    -0.14  -0.11   0.00    -0.33  -0.07   0.00
   7   1     0.00   0.00   0.98    -0.36   0.59   0.00    -0.19  -0.59   0.00
                     7                      8                      9
                    A'                     A'                     A'
 Frequencies --  1092.5169              1117.9164              1157.6082
 Red. masses --     4.4933                 3.9739                 2.8006
 Frc consts  --     3.1599                 2.9261                 2.2111
 IR Inten    --    30.7463                10.9179                16.7829
 Raman Activ --     0.0000                 0.0000                 0.0000
 Depolar     --     0.0000                 0.0000                 0.0000
 Atom AN      X      Y      Z        X      Y      Z        X      Y      Z
   1   7     0.40  -0.03   0.00     0.15   0.08   0.00     0.08   0.30   0.00
   2   7    -0.23   0.09   0.00     0.31   0.11   0.00    -0.04  -0.13   0.00
   3   7     0.02  -0.07   0.00    -0.13  -0.18   0.00    -0.09  -0.01   0.00
   4   1     0.79  -0.02   0.00    -0.49  -0.23   0.00    -0.55  -0.04   0.00
   5   7    -0.20   0.06   0.00    -0.17  -0.04   0.00     0.03   0.00   0.00
   6   6    -0.06  -0.03   0.00    -0.11   0.00   0.00     0.05  -0.11   0.00
   7   1     0.02  -0.31   0.00    -0.32   0.61   0.00     0.24  -0.71   0.00
                    10                     11                     12
                    A'                     A'                     A'
 Frequencies --  1203.8085              1277.9404              1493.1138
 Red. masses --     2.9407                 2.9014                 2.4154
 Frc consts  --     2.5108                 2.7918                 3.1727
 IR Inten    --     1.6139                 2.2563                28.1835
 Raman Activ --     0.0000                 0.0000                 0.0000
 Depolar     --     0.0000                 0.0000                 0.0000
 Atom AN      X      Y      Z        X      Y      Z        X      Y      Z
   1   7     0.04  -0.18   0.00    -0.07  -0.04   0.00     0.03  -0.02   0.00
   2   7    -0.04   0.26   0.00     0.12   0.07   0.00    -0.10   0.04   0.00
   3   7    -0.14   0.04   0.00    -0.07  -0.13   0.00     0.22  -0.02   0.00
   4   1    -0.73   0.01   0.00     0.42  -0.12   0.00    -0.87  -0.10   0.00
   5   7     0.04  -0.06   0.00     0.14   0.21   0.00     0.05   0.11   0.00
   6   6     0.15  -0.03   0.00    -0.19  -0.06   0.00    -0.15  -0.13   0.00
   7   1     0.31  -0.47   0.00     0.01  -0.81   0.00    -0.29   0.19   0.00
                    13                     14                     15
                    A'                     A'                     A'
 Frequencies --  1505.5414              3349.8766              3661.9983
 Red. masses --     4.6944                 1.1009                 1.0847
 Frc consts  --     6.2693                 7.2786                 8.5703
 IR Inten    --     8.4423                 2.4856               114.0476
 Raman Activ --     0.0000                 0.0000                 0.0000
 Depolar     --     0.0000                 0.0000                 0.0000
 Atom AN      X      Y      Z        X      Y      Z        X      Y      Z
   1   7     0.01  -0.04   0.00     0.00   0.00   0.00     0.00   0.00   0.00
   2   7     0.04  -0.04   0.00     0.00   0.00   0.00     0.00   0.00   0.00
   3   7    -0.16   0.16   0.00     0.00   0.00   0.00     0.01  -0.08   0.00
   4   1     0.31   0.22   0.00     0.01   0.02   0.00    -0.06   0.99   0.00
   5   7    -0.02   0.22   0.00     0.00   0.00   0.00     0.00   0.00   0.00
   6   6     0.15  -0.43   0.00     0.09   0.03   0.00    -0.01   0.00   0.00
   7   1    -0.20   0.71   0.00    -0.95  -0.30   0.00     0.02   0.00   0.00

 -------------------
 - Thermochemistry -
 -------------------
 Temperature   298.150 Kelvin.  Pressure   1.00000 Atm.
 Atom  1 has atomic number  7 and mass  14.00307
 Atom  2 has atomic number  7 and mass  14.00307
 Atom  3 has atomic number  7 and mass  14.00307
 Atom  4 has atomic number  1 and mass   1.00783
 Atom  5 has atomic number  7 and mass  14.00307
 Atom  6 has atomic number  6 and mass  12.00000
 Atom  7 has atomic number  1 and mass   1.00783
 Molecular mass:    70.02795 amu.
 Principal axes and moments of inertia in atomic units:
                           1         2         3
     EIGENVALUES --   173.38623 176.91417 350.30040
           X            0.71210   0.70208   0.00000
           Y           -0.70208   0.71210   0.00000
           Z            0.00000   0.00000   1.00000
 THIS MOLECULE IS AN ASYMMETRIC TOP.
 ROTATIONAL SYMMETRY NUMBER  1.
 ROTATIONAL TEMPERATURES (KELVIN)      0.49954     0.48958     0.24725
 ROTATIONAL CONSTANTS (GHZ)           10.40879    10.20122     5.15198
 Zero-point vibrational energy     123764.3 (Joules/Mol)
                                   29.58037 (Kcal/Mol)
 WARNING-- EXPLICIT CONSIDERATION OF   1 DEGREES OF FREEDOM AS
           VIBRATIONS MAY CAUSE SIGNIFICANT ERROR
 VIBRATIONAL TEMPERATURES:    872.07  1003.67  1057.66  1166.86  1394.93
          (KELVIN)           1456.14  1571.88  1608.42  1665.53  1732.00
                             1838.66  2148.25  2166.13  4819.70  5268.77
 
 Zero-point correction=                           0.047139 (Hartree/Particle)
 Thermal correction to Energy=                    0.050601
 Thermal correction to Enthalpy=                  0.051545
 Thermal correction to Gibbs Free Energy=         0.021032
 Sum of electronic and zero-point Energies=           -257.488606
 Sum of electronic and thermal Energies=              -257.485145
 Sum of electronic and thermal Enthalpies=            -257.484201
 Sum of electronic and thermal Free Energies=         -257.514714
 
                     E (Thermal)             CV                S
                      KCAL/MOL        CAL/MOL-KELVIN    CAL/MOL-KELVIN
 TOTAL                   31.752             11.284             64.220
 ELECTRONIC               0.000              0.000              0.000
 TRANSLATIONAL            0.889              2.981             38.656
 ROTATIONAL               0.889              2.981             23.889
 VIBRATIONAL             29.975              5.323              1.674
 VIBRATION  1             0.965              1.019              0.439
                       Q            LOG10(Q)             LN(Q)
 TOTAL BOT       0.211881D-09         -9.673909        -22.274998
 TOTAL V=0       0.101983D+13         12.008526         27.650654
 VIB (BOT)       0.247894D-21        -21.605735        -49.749043
 VIB (BOT)  1    0.244800D+00         -0.611189         -1.407314
 VIB (V=0)       0.119317D+01          0.076701          0.176610
 VIB (V=0)  1    0.105671D+01          0.023956          0.055161
 ELECTRONIC      0.100000D+01          0.000000          0.000000
 TRANSLATIONAL   0.230339D+08          7.362368         16.952478
 ROTATIONAL      0.371072D+05          4.569458         10.521567
 ***** Axes restored to original set *****
 -------------------------------------------------------------------
 Center     Atomic                   Forces (Hartrees/Bohr)
 Number     Number              X              Y              Z
 -------------------------------------------------------------------
    1          7           0.000331518   -0.000281614    0.000000000
    2          7          -0.000152912   -0.000356412    0.000000000
    3          7           0.000288462    0.000515863    0.000000000
    4          1           0.000114587    0.000012831    0.000000000
    5          7          -0.000497910    0.000222368    0.000000000
    6          6          -0.000088598   -0.000141681    0.000000000
    7          1           0.000004853    0.000028645    0.000000000
 -------------------------------------------------------------------
 Cartesian Forces:  Max     0.000515863 RMS     0.000221292

 GradGradGradGradGradGradGradGradGradGradGradGradGradGradGradGradGradGrad
 Berny optimization.
 Internal  Forces:  Max     0.000358483 RMS     0.000158583
 Search for a local minimum.
 Step number   1 out of a maximum of  36
 All quantities printed in internal units (Hartrees-Bohrs-Radians)
 Second derivative matrix not updated -- analytic derivatives used.
     Eigenvalues ---    0.00883   0.02427   0.07051   0.07885   0.10451
     Eigenvalues ---    0.10891   0.20601   0.28881   0.35002   0.37388
     Eigenvalues ---    0.39601   0.47322   0.49173   0.55497   0.62194
     Eigenvalues --- 1000.000001000.000001000.000001000.000001000.00000
     Eigenvalues --- 1000.000001000.000001000.000001000.000001000.00000
     Eigenvalues --- 1000.00000
 Angle between quadratic step and forces=  16.21 degrees.
 Linear search not attempted -- first point.
 Iteration  1 RMS(Cart)=  0.00033942 RMS(Int)=  0.00000009
 Iteration  2 RMS(Cart)=  0.00000007 RMS(Int)=  0.00000004
 Variable       Old X    -DE/DX   Delta X   Delta X   Delta X     New X
                                 (Linear)    (Quad)   (Total)
    R1        2.49959  -0.00012   0.00000  -0.00054  -0.00054   2.49905
    R2        2.57702  -0.00036   0.00000  -0.00090  -0.00090   2.57612
    R3        2.54770  -0.00019   0.00000  -0.00024  -0.00024   2.54746
    R4        1.91655   0.00011   0.00000   0.00021   0.00021   1.91676
    R5        2.54652   0.00035   0.00000   0.00079   0.00079   2.54730
    R6        2.50609   0.00026   0.00000   0.00046   0.00046   2.50656
    R7        2.04000  -0.00002   0.00000  -0.00005  -0.00005   2.03995
    A1        1.93611   0.00022   0.00000   0.00050   0.00050   1.93662
    A2        1.83793   0.00018   0.00000   0.00041   0.00041   1.83835
    A3        2.08946   0.00017   0.00000   0.00060   0.00060   2.09006
    A4        1.91209  -0.00029   0.00000  -0.00075  -0.00075   1.91134
    A5        2.28164   0.00013   0.00000   0.00014   0.00014   2.28178
    A6        1.85010  -0.00020   0.00000  -0.00037  -0.00037   1.84973
    A7        1.88854   0.00011   0.00000   0.00020   0.00020   1.88875
    A8        2.18149  -0.00007   0.00000  -0.00032  -0.00032   2.18117
    A9        2.21316  -0.00003   0.00000   0.00012   0.00012   2.21327
    D1        0.00000   0.00000   0.00000   0.00000   0.00000   0.00000
    D2        0.00000   0.00000   0.00000   0.00000   0.00000   0.00000
    D3        3.14159   0.00000   0.00000   0.00000   0.00000   3.14159
    D4        0.00000   0.00000   0.00000   0.00000   0.00000   0.00000
    D5        0.00000   0.00000   0.00000   0.00000   0.00000   0.00000
    D6        3.14159   0.00000   0.00000   0.00000   0.00000   3.14159
    D7        3.14159   0.00000   0.00000   0.00000   0.00000   3.14159
    D8        0.00000   0.00000   0.00000   0.00000   0.00000   0.00000
    D9        0.00000   0.00000   0.00000   0.00000   0.00000   0.00000
   D10        3.14159   0.00000   0.00000   0.00000   0.00000   3.14159
         Item               Value     Threshold  Converged?
 Maximum Force            0.000358     0.000450     YES
 RMS     Force            0.000159     0.000300     YES
 Maximum Displacement     0.000809     0.001800     YES
 RMS     Displacement     0.000339     0.001200     YES
 Predicted change in Energy=-7.477516D-07
 Optimization completed.
    -- Stationary point found.
                         ----------------------------
                         !   Optimized Parameters   !
                         ! (Angstroms and Degrees)  !
 ------------------------                            -------------------------
 ! Name  Definition              Value          Derivative Info.             !
 -----------------------------------------------------------------------------
 ! R1    R(1,2)                  1.3227         -DE/DX =   -0.0001           !
 ! R2    R(1,5)                  1.3637         -DE/DX =   -0.0004           !
 ! R3    R(2,3)                  1.3482         -DE/DX =   -0.0002           !
 ! R4    R(3,4)                  1.0142         -DE/DX =    0.0001           !
 ! R5    R(3,6)                  1.3476         -DE/DX =    0.0004           !
 ! R6    R(5,6)                  1.3262         -DE/DX =    0.0003           !
 ! R7    R(6,7)                  1.0795         -DE/DX =    0.               !
 ! A1    A(2,1,5)              110.931          -DE/DX =    0.0002           !
 ! A2    A(1,2,3)              105.3058         -DE/DX =    0.0002           !
 ! A3    A(2,3,4)              119.7172         -DE/DX =    0.0002           !
 ! A4    A(2,3,6)              109.5545         -DE/DX =   -0.0003           !
 ! A5    A(4,3,6)              130.7282         -DE/DX =    0.0001           !
 ! A6    A(1,5,6)              106.0031         -DE/DX =   -0.0002           !
 ! A7    A(3,6,5)              108.2056         -DE/DX =    0.0001           !
 ! A8    A(3,6,7)              124.9899         -DE/DX =   -0.0001           !
 ! A9    A(5,6,7)              126.8045         -DE/DX =    0.               !
 ! D1    D(5,1,2,3)              0.             -DE/DX =    0.               !
 ! D2    D(2,1,5,6)              0.             -DE/DX =    0.               !
 ! D3    D(1,2,3,4)            180.             -DE/DX =    0.               !
 ! D4    D(1,2,3,6)              0.             -DE/DX =    0.               !
 ! D5    D(2,3,6,5)              0.             -DE/DX =    0.               !
 ! D6    D(2,3,6,7)            180.             -DE/DX =    0.               !
 ! D7    D(4,3,6,5)            180.             -DE/DX =    0.               !
 ! D8    D(4,3,6,7)              0.             -DE/DX =    0.               !
 ! D9    D(1,5,6,3)              0.             -DE/DX =    0.               !
 ! D10   D(1,5,6,7)            180.             -DE/DX =    0.               !
 -----------------------------------------------------------------------------
 GradGradGradGradGradGradGradGradGradGradGradGradGradGradGradGradGradGrad

 1\1\GINC-QUANTUM\Freq\RMP2-FC\6-31G(d)\C1H2N4\RDJ3\18-Dec-1998\0\\#N G
 EOM=ALLCHECK GUESS=TCHECK RMP2(FC)/6-31G(D) FREQ\\1H tetrazole c CH-NH
 -N=N-N= casno=288948\\0,1\N,-1.073197177,0.5056957719,0.\N,0.070639705
 9,1.1699535078,0.\N,1.0314208612,0.2241702796,0.\H,2.007615937,0.49918
 15296,0.\N,-0.854839392,-0.8404108182,0.\C,0.4620293287,-0.9971847916,
 0.\H,1.002040104,-1.9319339679,0.\\Version=IBM-RS6000-G98RevA.4\State=
 1-A'\HF=-256.744399\MP2=-257.5357455\RMSD=1.029e-09\RMSF=2.213e-04\Dip
 ole=2.1205904,-0.5790961,0.\DipoleDeriv=-0.1333782,0.1007111,0.,-0.065
 6602,0.1521514,0.,0.,0.,-0.1700399,0.2001584,-0.2994882,0.,-0.1755836,
 -0.2290781,0.,0.,0.,-0.0942647,-0.5226279,0.0254537,0.,-0.0045139,-0.1
 495728,0.,0.,0.,-0.1538842,0.3062769,0.0407488,0.,0.0274612,0.2302807,
 0.,0.,0.,0.3609854,-0.2483196,-0.0048713,0.,-0.0102928,-0.3894632,0.,0
 .,0.,-0.1949322,0.3089065,0.1108649,0.,0.2013829,0.2907795,0.,0.,0.,0.
 0721201,0.0889839,0.0265809,0.,0.0272065,0.0949026,0.,0.,0.,0.1800153\
 Polar=36.8044823,-1.4803249,36.9385405,0.,0.,15.3732216\PG=CS [SG(C1H2
 N4)]\NImag=0\\0.53646369,-0.04335906,0.41961290,0.,0.,0.12123303,-0.23
 218606,-0.11715266,0.,0.44076566,-0.01649860,-0.14145815,0.,0.00607565
 ,0.54758629,0.,0.,-0.09381842,0.,0.,0.11208113,-0.14340012,-0.01994538
 ,0.,-0.16548966,0.05176341,0.,0.96647278,0.03072258,-0.00933170,0.,0.1
 0762348,-0.22397772,0.,0.16207047,0.67878526,0.,0.,0.02483647,0.,0.,-0
 .06734560,0.,0.,0.09309022,-0.00229604,0.00277674,0.,-0.01365202,-0.01
 289497,0.,-0.43229286,-0.10638951,0.,0.44468254,0.01134858,-0.00634198
 ,0.,0.02570468,0.01744753,0.,-0.11482965,-0.10232258,0.,0.10909252,0.0
 9025703,0.,0.,0.00869955,0.,0.,-0.01241848,0.,0.,-0.00882442,0.,0.,0.0
 1534486,-0.10875202,0.07079886,0.,-0.01369346,-0.01113328,0.,-0.087288
 12,-0.08110293,0.,0.00176678,-0.00671146,0.,0.60290259,-0.00510156,-0.
 20655421,0.,-0.08165071,-0.10238204,0.,0.00129987,-0.00133929,0.,0.002
 88671,-0.00798422,0.,0.02667914,0.41611309,0.,0.,-0.08878700,0.,0.,0.0
 3510472,0.,0.,0.01892574,0.,0.,0.00758848,0.,0.,0.10735921,-0.04392268
 ,0.10347672,0.,-0.01127367,-0.01153687,0.,-0.15300096,-0.09237443,0.,0
 .00206860,-0.02493299,0.,-0.38927999,0.02820541,0.,0.73127034,0.026533
 58,-0.05672833,0.,0.06025892,-0.09521815,0.,-0.09610348,-0.32773627,0.
 ,0.00468805,0.00954454,0.,0.00357864,-0.10480388,0.,-0.14042452,0.8750
 0642,0.,0.,0.01910181,0.,0.,0.01957466,0.,0.,-0.05545185,0.,0.,-0.0099
 0007,0.,0.,-0.07383597,0.,0.,0.12518364,-0.00590677,0.00340477,0.,-0.0
 0447079,-0.00577533,0.,0.01499893,-0.02054968,0.,-0.00027700,0.0003283
 3,0.,-0.00565579,0.02768113,0.,-0.13586164,0.14146881,0.,0.13717305,-0
 .00364553,0.00080146,0.,-0.00085935,-0.00199776,0.,0.01574475,-0.01407
 769,0.,-0.00015955,-0.00060032,0.,-0.00210897,0.00695055,0.,0.13758669
 ,-0.30006433,0.,-0.14655803,0.30898808,0.,0.,0.00873456,0.,0.,0.006821
 99,0.,0.,-0.00523057,0.,0.,-0.00048991,0.,0.,-0.00635517,0.,0.,-0.0246
 7222,0.,0.,0.02119132\\-0.00033152,0.00028161,0.,0.00015291,0.00035641
 ,0.,-0.00028846,-0.00051586,0.,-0.00011459,-0.00001283,0.,0.00049791,-
 0.00022237,0.,0.00008860,0.00014168,0.,-0.00000485,-0.00002865,0.\\\@


 EVERYTHING'S GOT A MORAL, IF ONLY YOU CAN FIND IT.

                                    -- LEWIS CARROL, ALICE IN WONDERLAND
 Job cpu time:  0 days  0 hours 17 minutes 10.9 seconds.
 File lengths (MBytes):  RWF=  328 Int=    0 D2E=    0 Chk=    3 Scr=    1
 Normal termination of Gaussian 98.
