 Entering Gaussian System, Link 0=g98
 Initial command:
 /usr/local/apps/g98/g98/l1.exe /wrk/rdj3/Gau-15542.inp -scrdir=/wrk/rdj3/
 Entering Link 1 = /usr/local/apps/g98/g98/l1.exe PID=     14306.
  
 Copyright (c) 1988,1990,1992,1993,1995,1998 Gaussian, Inc.
                  All Rights Reserved.
  
 This is part of the Gaussian(R) 98 program.  It is based on
 the Gaussian 94(TM) system (copyright 1995 Gaussian, Inc.),
 the Gaussian 92(TM) system (copyright 1992 Gaussian, Inc.),
 the Gaussian 90(TM) system (copyright 1990 Gaussian, Inc.),
 the Gaussian 88(TM) system (copyright 1988 Gaussian, Inc.),
 the Gaussian 86(TM) system (copyright 1986 Carnegie Mellon
 University), and the Gaussian 82(TM) system (copyright 1983
 Carnegie Mellon University). Gaussian is a federally registered
 trademark of Gaussian, Inc.
  
 This software contains proprietary and confidential information,
 including trade secrets, belonging to Gaussian, Inc.
  
 This software is provided under written license and may be
 used, copied, transmitted, or stored only in accord with that
 written license.
  
 The following legend is applicable only to US Government
 contracts under DFARS:
  
                    RESTRICTED RIGHTS LEGEND
  
 Use, duplication or disclosure by the US Government is subject
 to restrictions as set forth in subparagraph (c)(1)(ii) of the
 Rights in Technical Data and Computer Software clause at DFARS
 252.227-7013.
  
 Gaussian, Inc.
 Carnegie Office Park, Building 6, Pittsburgh, PA 15106 USA
  
 The following legend is applicable only to US Government
 contracts under FAR:
  
                    RESTRICTED RIGHTS LEGEND
  
 Use, reproduction and disclosure by the US Government is subject
 to restrictions as set forth in subparagraph (c) of the
 Commercial Computer Software - Restricted Rights clause at FAR
 52.227-19.
  
 Gaussian, Inc.
 Carnegie Office Park, Building 6, Pittsburgh, PA 15106 USA
  
  
 ---------------------------------------------------------------
 Warning -- This program may not be used in any manner that
 competes with the business of Gaussian, Inc. or will provide
 assistance to any competitor of Gaussian, Inc.  The licensee
 of this program is prohibited from giving any competitor of
 Gaussian, Inc. access to this program.  By using this program,
 the user acknowledges that Gaussian, Inc. is engaged in the
 business of creating and licensing software in the field of
 computational chemistry and represents and warrants to the
 licensee that it is not a competitor of Gaussian, Inc. and that
 it will not use this program in any manner prohibited above.
 ---------------------------------------------------------------
  

 Cite this work as:
 Gaussian 98, Revision A.4,
 M. J. Frisch, G. W. Trucks, H. B. Schlegel, G. E. Scuseria, 
 M. A. Robb, J. R. Cheeseman, V. G. Zakrzewski, J. A. Montgomery, Jr., 
 R. E. Stratmann, J. C. Burant, S. Dapprich, J. M. Millam, 
 A. D. Daniels, K. N. Kudin, M. C. Strain, O. Farkas, J. Tomasi, 
 V. Barone, M. Cossi, R. Cammi, B. Mennucci, C. Pomelli, C. Adamo, 
 S. Clifford, J. Ochterski, G. A. Petersson, P. Y. Ayala, Q. Cui, 
 K. Morokuma, D. K. Malick, A. D. Rabuck, K. Raghavachari, 
 J. B. Foresman, J. Cioslowski, J. V. Ortiz, B. B. Stefanov, G. Liu, 
 A. Liashenko, P. Piskorz, I. Komaromi, R. Gomperts, R. L. Martin, 
 D. J. Fox, T. Keith, M. A. Al-Laham, C. Y. Peng, A. Nanayakkara, 
 C. Gonzalez, M. Challacombe, P. M. W. Gill, B. Johnson, W. Chen, 
 M. W. Wong, J. L. Andres, C. Gonzalez, M. Head-Gordon, 
 E. S. Replogle, and J. A. Pople, 
 Gaussian, Inc., Pittsburgh PA, 1998.

 **********************************************
 Gaussian 98:  IBM-RS6000-G98RevA.4 11-Sep-1998
                  25-Apr-2000 
 **********************************************
 %mem=24000000
 ----------------------
 #MP2/6-31+G** opt freq
 ----------------------
 1/18=20,38=1/1,3;
 2/9=110,17=6,18=5/2;
 3/5=1,6=6,7=111,11=9,25=1,30=1/1,2,3;
 4//1;
 5/5=2,38=4/2;
 8/6=4,10=1,23=2/1;
 9/15=2,16=-3/6;
 10/5=1/2;
 6/7=2,8=2,9=2,10=2/1;
 7/12=2/1,2,3,16;
 1/18=20/3(1);
 99//99;
 2/9=110/2;
 3/5=1,6=6,7=111,11=9,25=1,30=1/1,2,3;
 4/5=5,16=2/1;
 5/5=2,38=4/2;
 8/6=4,10=1,23=2/1;
 9/15=2,16=-3/6;
 10/5=1/2;
 7/12=2/1,2,3,16;
 1/18=20/3(-8);
 2/9=110/2;
 6/7=2,8=2,9=2,10=2/1;
 99//99;
 ----------------------------------------
 1H tetrazole c CH-NH-N=N-N= casno=288948
 ----------------------------------------
 Symbolic Z-matrix:
 Charge =  0 Multiplicity = 1
 7                    -1.12329  -0.25456   0. 
 7                    -0.67158   0.91328   0. 
 7                     0.65055   0.80984   0. 
 1                     1.224     1.62189   0. 
 7                    -0.13465  -1.16105   0. 
 6                     0.96218  -0.48332   0. 
 1                     1.95569  -0.87454   0. 

 GradGradGradGradGradGradGradGradGradGradGradGradGradGradGradGradGradGrad
 Berny optimization.
 Initialization pass.
                         ----------------------------
                         !    Initial Parameters    !
                         ! (Angstroms and Degrees)  !
 ------------------------                            -------------------------
 ! Name  Definition              Value          Derivative Info.             !
 -----------------------------------------------------------------------------
 ! R1    R(1,2)                  1.2522         estimate D2E/DX2             !
 ! R2    R(1,5)                  1.3413         estimate D2E/DX2             !
 ! R3    R(2,3)                  1.3262         estimate D2E/DX2             !
 ! R4    R(3,4)                  0.9941         estimate D2E/DX2             !
 ! R5    R(3,6)                  1.3302         estimate D2E/DX2             !
 ! R6    R(5,6)                  1.2893         estimate D2E/DX2             !
 ! R7    R(6,7)                  1.0678         estimate D2E/DX2             !
 ! A1    A(2,1,5)              111.3714         estimate D2E/DX2             !
 ! A2    A(1,2,3)              106.673          estimate D2E/DX2             !
 ! A3    A(2,3,4)              120.7559         estimate D2E/DX2             !
 ! A4    A(2,3,6)              108.0227         estimate D2E/DX2             !
 ! A5    A(4,3,6)              131.2214         estimate D2E/DX2             !
 ! A6    A(1,5,6)              105.77           estimate D2E/DX2             !
 ! A7    A(3,6,5)              108.1628         estimate D2E/DX2             !
 ! A8    A(3,6,7)              125.0426         estimate D2E/DX2             !
 ! A9    A(5,6,7)              126.7945         estimate D2E/DX2             !
 ! D1    D(5,1,2,3)              0.             estimate D2E/DX2             !
 ! D2    D(2,1,5,6)              0.             estimate D2E/DX2             !
 ! D3    D(1,2,3,4)            180.             estimate D2E/DX2             !
 ! D4    D(1,2,3,6)              0.             estimate D2E/DX2             !
 ! D5    D(2,3,6,5)              0.             estimate D2E/DX2             !
 ! D6    D(2,3,6,7)            180.             estimate D2E/DX2             !
 ! D7    D(4,3,6,5)            180.             estimate D2E/DX2             !
 ! D8    D(4,3,6,7)              0.             estimate D2E/DX2             !
 ! D9    D(1,5,6,3)              0.             estimate D2E/DX2             !
 ! D10   D(1,5,6,7)            180.             estimate D2E/DX2             !
 -----------------------------------------------------------------------------
 Trust Radius=3.00D-01 FncErr=1.00D-07 GrdErr=1.00D-07
 Number of steps in this run=  36 maximum allowed number of steps= 100.
 GradGradGradGradGradGradGradGradGradGradGradGradGradGradGradGradGradGrad

                          Input orientation:                          
 ---------------------------------------------------------------------
 Center     Atomic     Atomic              Coordinates (Angstroms)
 Number     Number      Type              X           Y           Z
 ---------------------------------------------------------------------
    1          7             0       -1.123293   -0.254560    0.000000
    2          7             0       -0.671576    0.913277    0.000000
    3          7             0        0.650545    0.809842    0.000000
    4          1             0        1.224004    1.621891    0.000000
    5          7             0       -0.134646   -1.161053    0.000000
    6          6             0        0.962183   -0.483316    0.000000
    7          1             0        1.955691   -0.874535    0.000000
 ---------------------------------------------------------------------
                    Distance matrix (angstroms):
                    1          2          3          4          5
     1  N    0.000000
     2  N    1.252155   0.000000
     3  N    2.068684   1.326161   0.000000
     4  H    3.005141   2.023699   0.994122   0.000000
     5  N    1.341325   2.142694   2.121545   3.096887   0.000000
     6  C    2.097985   2.149335   1.330179   2.121426   1.289326
     7  H    3.140782   3.177861   2.130852   2.601444   2.109882
                    6          7
     6  C    0.000000
     7  H    1.067760   0.000000
 Stoichiometry    CH2N4
 Framework group  CS[SG(CH2N4)]
 Deg. of freedom   11
 Full point group                 CS      NOp   2
 Largest Abelian subgroup         CS      NOp   2
 Largest concise Abelian subgroup C1      NOp   1
                         Standard orientation:                         
 ---------------------------------------------------------------------
 Center     Atomic     Atomic              Coordinates (Angstroms)
 Number     Number      Type              X           Y           Z
 ---------------------------------------------------------------------
    1          7             0       -0.716312   -0.901934    0.000000
    2          7             0       -1.095520    0.291420    0.000000
    3          7             0        0.000000    1.038775    0.000000
    4          1             0       -0.061479    2.030994    0.000000
    5          7             0        0.622151   -0.989495    0.000000
    6          6             0        1.052813    0.225779    0.000000
    7          1             0        2.072370    0.542976    0.000000
 ---------------------------------------------------------------------
 Rotational constants (GHZ):     10.9198679     10.7343949      5.4131685
 Isotopes: N-14,N-14,N-14,H-1,N-14,C-12,H-1
 Standard basis: 6-31+G(d,p) (6D, 7F)
 There are    78 symmetry adapted basis functions of A'  symmetry.
 There are    27 symmetry adapted basis functions of A"  symmetry.
 Crude estimate of integral set expansion from redundant integrals=1.000.
 Integral buffers will be    262144 words long.
 Raffenetti 1 integral format.
 Two-electron integral symmetry is turned on.
   105 basis functions      174 primitive gaussians
    18 alpha electrons       18 beta electrons
       nuclear repulsion energy       169.8288422228 Hartrees.
 One-electron integrals computed using PRISM.
 NBasis=   105 RedAO= T  NBF=    78    27
 NBsUse=   105 1.00D-04 NBFU=    78    27
 Projected INDO Guess.
 Initial guess orbital symmetries:
       Occupied  (A') (A') (A') (A') (A') (A') (A') (A') (A') (A')
                 (A') (A") (A') (A') (A") (A") (A') (A')
       Virtual   (A") (A') (A") (A') (A') (A') (A') (A') (A') (A')
                 (A') (A') (A') (A') (A') (A') (A') (A') (A') (A')
                 (A') (A') (A') (A') (A') (A') (A') (A') (A') (A')
                 (A') (A') (A') (A') (A') (A') (A') (A') (A') (A')
                 (A') (A') (A') (A') (A') (A') (A') (A') (A') (A')
                 (A') (A') (A') (A') (A') (A') (A') (A') (A') (A')
                 (A') (A') (A') (A') (A') (A") (A") (A") (A") (A")
                 (A") (A") (A") (A") (A") (A") (A") (A") (A") (A")
                 (A") (A") (A") (A") (A") (A") (A")
 Requested convergence on RMS density matrix=1.00D-08 within  64 cycles.
 Requested convergence on MAX density matrix=1.00D-06.
 Keep R1 integrals in memory in canonical form, NReq=    16118385.
 SCF Done:  E(RHF) =  -256.767607569     A.U. after   15 cycles
             Convg  =    0.6637D-08             -V/T =  2.0018
             S**2   =   0.0000
 Range of M.O.s used for correlation:     6   105
 NBasis=   105 NAE=    18 NBE=    18 NFC=     5 NFV=     0
 NROrb=    100 NOA=    13 NOB=    13 NVA=    87 NVB=    87

 **** Warning!!: The largest alpha MO coefficient is  0.58436587D+02

 Fully direct method using O(ONN) memory.
 JobTyp=1 Pass  1:  I=   6 to  18.
 Spin components of T(2) and E(2):
     alpha-alpha T2 =       0.3739687848D-01 E2=     -0.1102099270D+00
     alpha-beta  T2 =       0.1876171789D+00 E2=     -0.5729567138D+00
     beta-beta   T2 =       0.3739687848D-01 E2=     -0.1102099270D+00
 ANorm=    0.1123570619D+01
 E2 =    -0.7933765679D+00 EUMP2 =    -0.25756098413701D+03
          Differentiating once with respect to electric field.
                with respect to dipole field.
          Differentiating once with respect to nuclear coordinates.
          Store integrals in memory, NReq=    15927892.
          There are   1 degrees of freedom in the 1st order CPHF.
   1 vectors were produced by pass  0.
 AX will form   1 AO Fock derivatives at one time.
   1 vectors were produced by pass  1.
   1 vectors were produced by pass  2.
   1 vectors were produced by pass  3.
   1 vectors were produced by pass  4.
   1 vectors were produced by pass  5.
   1 vectors were produced by pass  6.
   1 vectors were produced by pass  7.
   1 vectors were produced by pass  8.
   1 vectors were produced by pass  9.
   1 vectors were produced by pass 10.
   1 vectors were produced by pass 11.
   1 vectors were produced by pass 12.
   1 vectors were produced by pass 13.
   1 vectors were produced by pass 14.
   1 vectors were produced by pass 15.
 Inv2:  IOpt= 1 Iter= 1 AM= 4.56D-16 Conv= 1.00D-12.
 Inverted reduced A of dimension  16 with in-core refinement.

 **********************************************************************

            Population analysis using the SCF density.

 **********************************************************************

 Orbital Symmetries:
       Occupied  (A') (A') (A') (A') (A') (A') (A') (A') (A') (A')
                 (A') (A") (A') (A') (A') (A') (A") (A")
       Virtual   (A') (A') (A") (A') (A") (A') (A') (A") (A') (A")
                 (A") (A') (A') (A') (A") (A') (A") (A') (A') (A')
                 (A') (A') (A') (A') (A') (A') (A') (A') (A') (A")
                 (A') (A') (A') (A') (A') (A") (A') (A") (A') (A')
                 (A") (A') (A") (A') (A') (A') (A') (A") (A') (A')
                 (A") (A") (A') (A") (A') (A") (A') (A') (A') (A')
                 (A") (A') (A') (A") (A") (A') (A") (A') (A') (A")
                 (A') (A') (A') (A") (A") (A') (A') (A') (A') (A')
                 (A') (A') (A') (A') (A') (A') (A')
  The electronic state is 1-A'.
 Alpha  occ. eigenvalues --  -15.69155 -15.66999 -15.65056 -15.60922 -11.34029
 Alpha  occ. eigenvalues --   -1.52973  -1.27402  -1.21776  -0.92092  -0.90353
 Alpha  occ. eigenvalues --   -0.81586  -0.69534  -0.68992  -0.57840  -0.48128
 Alpha  occ. eigenvalues --   -0.46944  -0.46426  -0.43056
 Alpha virt. eigenvalues --    0.05155   0.08249   0.08841   0.10055   0.14044
 Alpha virt. eigenvalues --    0.14768   0.16339   0.18352   0.18970   0.20644
 Alpha virt. eigenvalues --    0.22251   0.23661   0.24718   0.27481   0.29058
 Alpha virt. eigenvalues --    0.30657   0.31143   0.31622   0.31972   0.33039
 Alpha virt. eigenvalues --    0.34793   0.35509   0.40303   0.42156   0.45337
 Alpha virt. eigenvalues --    0.48862   0.60610   0.67433   0.70977   0.86018
 Alpha virt. eigenvalues --    0.98646   1.00466   1.03355   1.06753   1.07573
 Alpha virt. eigenvalues --    1.10879   1.12992   1.13315   1.17038   1.18917
 Alpha virt. eigenvalues --    1.19643   1.22799   1.23072   1.27497   1.30245
 Alpha virt. eigenvalues --    1.32577   1.45469   1.48681   1.49463   1.55768
 Alpha virt. eigenvalues --    1.59432   1.61528   1.70458   1.80738   1.81406
 Alpha virt. eigenvalues --    1.81732   1.95119   2.19487   2.22760   2.27509
 Alpha virt. eigenvalues --    2.36995   2.41188   2.51581   2.54224   2.58155
 Alpha virt. eigenvalues --    2.65336   2.68434   2.72508   2.77847   2.85415
 Alpha virt. eigenvalues --    2.90306   2.95719   3.00004   3.00121   3.07201
 Alpha virt. eigenvalues --    3.16356   3.22180   3.31248   3.45532   3.53154
 Alpha virt. eigenvalues --    3.69705   4.08877   4.33163   4.40332   4.64621
 Alpha virt. eigenvalues --    4.69952   4.93944
          Condensed to atoms (all electrons):
              1          2          3          4          5          6
  1  N    6.386675   0.409541  -0.011747  -0.002395   0.193004   0.002279
  2  N    0.409541   6.463095   0.146128   0.007361   0.072940  -0.116702
  3  N   -0.011747   0.146128   6.875546   0.314172  -0.133399   0.272078
  4  H   -0.002395   0.007361   0.314172   0.306117   0.003053  -0.003309
  5  N    0.193004   0.072940  -0.133399   0.003053   6.817868   0.416164
  6  C    0.002279  -0.116702   0.272078  -0.003309   0.416164   4.865495
  7  H    0.002900   0.001290  -0.054273   0.002152  -0.027533   0.430242
              7
  1  N    0.002900
  2  N    0.001290
  3  N   -0.054273
  4  H    0.002152
  5  N   -0.027533
  6  C    0.430242
  7  H    0.437313
 Total atomic charges:
              1
  1  N    0.019743
  2  N    0.016348
  3  N   -0.408505
  4  H    0.372848
  5  N   -0.342096
  6  C    0.133752
  7  H    0.207910
 Sum of Mulliken charges=   0.00000
 Atomic charges with hydrogens summed into heavy atoms:
              1
  1  N    0.019743
  2  N    0.016348
  3  N   -0.035657
  4  H    0.000000
  5  N   -0.342096
  6  C    0.341662
  7  H    0.000000
 Sum of Mulliken charges=   0.00000
 Electronic spatial extent (au):  <R**2>=   245.7835
 Charge=     0.0000 electrons
 Dipole moment (Debye):
    X=     2.7422    Y=     5.0659    Z=     0.0000  Tot=     5.7605
 Quadrupole moment (Debye-Ang):
   XX=   -29.2245   YY=   -27.0547   ZZ=   -28.9950
   XY=     2.0996   XZ=     0.0000   YZ=     0.0000
 Octapole moment (Debye-Ang**2):
  XXX=    13.3077  YYY=    23.8783  ZZZ=     0.0000  XYY=    -0.6576
  XXY=     5.3258  XXZ=     0.0000  XZZ=    -0.5114  YZZ=     0.7881
  YYZ=     0.0000  XYZ=     0.0000
 Hexadecapole moment (Debye-Ang**3):
 XXXX=  -142.1372 YYYY=  -120.2028 ZZZZ=   -27.6856 XXXY=     7.4854
 XXXZ=     0.0000 YYYX=     0.2462 YYYZ=     0.0000 ZZZX=     0.0000
 ZZZY=     0.0000 XXYY=   -54.1373 XXZZ=   -31.0788 YYZZ=   -29.6565
 XXYZ=     0.0000 YYXZ=     0.0000 ZZXY=     0.1942
 N-N= 1.698288422228D+02 E-N=-9.406330591453D+02  KE= 2.563053837881D+02
 Symmetry A'   KE= 2.473020148995D+02
 Symmetry A"   KE= 9.003368888615D+00
 ***** Axes restored to original set *****
 -------------------------------------------------------------------
 Center     Atomic                   Forces (Hartrees/Bohr)
 Number     Number              X              Y              Z
 -------------------------------------------------------------------
    1          7          -0.048119722   -0.049872730    0.000000000
    2          7          -0.001707631    0.072506452    0.000000000
    3          7           0.013846829    0.009575439    0.000000000
    4          1           0.008160960    0.011846216    0.000000000
    5          7          -0.017356034   -0.043358418    0.000000000
    6          6           0.039794894    0.001187973    0.000000000
    7          1           0.005380703   -0.001884932    0.000000000
 -------------------------------------------------------------------
 Cartesian Forces:  Max     0.072506452 RMS     0.026142458

 GradGradGradGradGradGradGradGradGradGradGradGradGradGradGradGradGradGrad
 Berny optimization.
 Internal  Forces:  Max     0.071421701 RMS     0.019638822
 Search for a local minimum.
 Step number   1 out of a maximum of  36
 All quantities printed in internal units (Hartrees-Bohrs-Radians)
 Second derivative matrix not updated -- first step.
     Eigenvalues ---    0.02505   0.02639   0.02674   0.02834   0.16000
     Eigenvalues ---    0.16000   0.22605   0.24688   0.37515   0.48737
     Eigenvalues ---    0.50885   0.56605   0.58506   0.66912   0.78894
     Eigenvalues --- 1000.000001000.000001000.000001000.000001000.00000
     Eigenvalues --- 1000.000001000.000001000.000001000.000001000.00000
     Eigenvalues --- 1000.00000
 RFO step:  Lambda=-1.37889176D-02.
 Linear search not attempted -- first point.
 Iteration  1 RMS(Cart)=  0.02753165 RMS(Int)=  0.00005532
 Iteration  2 RMS(Cart)=  0.00002392 RMS(Int)=  0.00004571
 Iteration  3 RMS(Cart)=  0.00000000 RMS(Int)=  0.00004571
 Variable       Old X    -DE/DX   Delta X   Delta X   Delta X     New X
                                 (Linear)    (Quad)   (Total)
    R1        2.36623   0.07142   0.00000   0.08789   0.08795   2.45418
    R2        2.53474   0.02685   0.00000   0.04886   0.04891   2.58365
    R3        2.50608   0.02881   0.00000   0.04633   0.04631   2.55239
    R4        1.87862   0.01438   0.00000   0.02870   0.02870   1.90732
    R5        2.51367   0.02841   0.00000   0.04284   0.04277   2.55645
    R6        2.43647   0.04717   0.00000   0.06407   0.06405   2.50052
    R7        2.01777   0.00570   0.00000   0.01465   0.01465   2.03242
    A1        1.94380  -0.00578   0.00000  -0.00623  -0.00610   1.93770
    A2        1.86179  -0.00340   0.00000  -0.00496  -0.00492   1.85687
    A3        2.10759  -0.00233   0.00000  -0.00459  -0.00455   2.10304
    A4        1.88535   0.00435   0.00000   0.00738   0.00729   1.89264
    A5        2.29025  -0.00202   0.00000  -0.00279  -0.00274   2.28750
    A6        1.84604   0.00030   0.00000  -0.00026  -0.00024   1.84580
    A7        1.88780   0.00453   0.00000   0.00407   0.00398   1.89177
    A8        2.18241  -0.00248   0.00000  -0.00330  -0.00325   2.17915
    A9        2.21298  -0.00205   0.00000  -0.00077  -0.00073   2.21226
    D1        0.00000   0.00000   0.00000   0.00000   0.00000   0.00000
    D2        0.00000   0.00000   0.00000   0.00000   0.00000   0.00000
    D3        3.14159   0.00000   0.00000   0.00000   0.00000   3.14159
    D4        0.00000   0.00000   0.00000   0.00000   0.00000   0.00000
    D5        0.00000   0.00000   0.00000   0.00000   0.00000   0.00000
    D6        3.14159   0.00000   0.00000   0.00000   0.00000   3.14159
    D7        3.14159   0.00000   0.00000   0.00000   0.00000   3.14159
    D8        0.00000   0.00000   0.00000   0.00000   0.00000   0.00000
    D9        0.00000   0.00000   0.00000   0.00000   0.00000   0.00000
   D10        3.14159   0.00000   0.00000   0.00000   0.00000   3.14159
         Item               Value     Threshold  Converged?
 Maximum Force            0.071422     0.000450     NO 
 RMS     Force            0.019639     0.000300     NO 
 Maximum Displacement     0.066251     0.001800     NO 
 RMS     Displacement     0.027523     0.001200     NO 
 Predicted change in Energy=-6.762401D-03
 GradGradGradGradGradGradGradGradGradGradGradGradGradGradGradGradGradGrad

                          Input orientation:                          
 ---------------------------------------------------------------------
 Center     Atomic     Atomic              Coordinates (Angstroms)
 Number     Number      Type              X           Y           Z
 ---------------------------------------------------------------------
    1          7             0       -1.158352   -0.271426    0.000000
    2          7             0       -0.686981    0.938705    0.000000
    3          7             0        0.658767    0.823545    0.000000
    4          1             0        1.243246    1.646401    0.000000
    5          7             0       -0.147182   -1.191641    0.000000
    6          6             0        0.975706   -0.491617    0.000000
    7          1             0        1.977702   -0.882421    0.000000
 ---------------------------------------------------------------------
                    Distance matrix (angstroms):
                    1          2          3          4          5
     1  N    0.000000
     2  N    1.298694   0.000000
     3  N    2.121528   1.350666   0.000000
     4  H    3.073391   2.055872   1.009311   0.000000
     5  N    1.367209   2.197671   2.170375   3.160344   0.000000
     6  C    2.145387   2.193251   1.352813   2.154693   1.323220
     7  H    3.195019   3.227543   2.156365   2.633319   2.147265
                    6          7
     6  C    0.000000
     7  H    1.075511   0.000000
 Stoichiometry    CH2N4
 Framework group  CS[SG(CH2N4)]
 Deg. of freedom   11
 Full point group                 CS      NOp   2
 Largest Abelian subgroup         CS      NOp   2
 Largest concise Abelian subgroup C1      NOp   1
                         Standard orientation:                         
 ---------------------------------------------------------------------
 Center     Atomic     Atomic              Coordinates (Angstroms)
 Number     Number      Type              X           Y           Z
 ---------------------------------------------------------------------
    1          7             0       -0.727360   -0.931815    0.000000
    2          7             0       -1.119939    0.306123    0.000000
    3          7             0        0.000000    1.061130    0.000000
    4          1             0       -0.061451    2.068568    0.000000
    5          7             0        0.637404   -1.013537    0.000000
    6          6             0        1.072197    0.236209    0.000000
    7          1             0        2.097535    0.560872    0.000000
 ---------------------------------------------------------------------
 Rotational constants (GHZ):     10.4212599     10.2791378      5.1748555
 Isotopes: N-14,N-14,N-14,H-1,N-14,C-12,H-1
 Standard basis: 6-31+G(d,p) (6D, 7F)
 There are    78 symmetry adapted basis functions of A'  symmetry.
 There are    27 symmetry adapted basis functions of A"  symmetry.
 Crude estimate of integral set expansion from redundant integrals=1.000.
 Integral buffers will be    262144 words long.
 Raffenetti 1 integral format.
 Two-electron integral symmetry is turned on.
   105 basis functions      174 primitive gaussians
    18 alpha electrons       18 beta electrons
       nuclear repulsion energy       166.0416843283 Hartrees.
 One-electron integrals computed using PRISM.
 NBasis=   105 RedAO= T  NBF=    78    27
 NBsUse=   105 1.00D-04 NBFU=    78    27
 Initial guess read from the read-write file:
 Initial guess orbital symmetries:
       Occupied  (A') (A') (A') (A') (A') (A') (A') (A') (A') (A')
                 (A') (A") (A') (A') (A') (A') (A") (A")
       Virtual   (A') (A') (A") (A') (A") (A') (A') (A") (A') (A")
                 (A") (A') (A') (A') (A") (A') (A") (A') (A') (A')
                 (A') (A') (A') (A') (A') (A') (A') (A') (A') (A")
                 (A') (A') (A') (A') (A') (A") (A') (A") (A') (A')
                 (A") (A') (A") (A') (A') (A') (A') (A") (A') (A')
                 (A") (A") (A') (A") (A') (A") (A') (A') (A') (A')
                 (A") (A') (A') (A") (A") (A') (A") (A') (A') (A")
                 (A') (A') (A') (A") (A") (A') (A') (A') (A') (A')
                 (A') (A') (A') (A') (A') (A') (A')
 Requested convergence on RMS density matrix=1.00D-08 within  64 cycles.
 Requested convergence on MAX density matrix=1.00D-06.
 Keep R1 integrals in memory in canonical form, NReq=    16118385.
 SCF Done:  E(RHF) =  -256.761065440     A.U. after   13 cycles
             Convg  =    0.8453D-08             -V/T =  2.0038
             S**2   =   0.0000
 Range of M.O.s used for correlation:     6   105
 NBasis=   105 NAE=    18 NBE=    18 NFC=     5 NFV=     0
 NROrb=    100 NOA=    13 NOB=    13 NVA=    87 NVB=    87

 **** Warning!!: The largest alpha MO coefficient is  0.52989066D+02

 Fully direct method using O(ONN) memory.
 JobTyp=1 Pass  1:  I=   6 to  18.
 Spin components of T(2) and E(2):
     alpha-alpha T2 =       0.3928119604D-01 E2=     -0.1120067700D+00
     alpha-beta  T2 =       0.1974897591D+00 E2=     -0.5834856051D+00
     beta-beta   T2 =       0.3928119604D-01 E2=     -0.1120067700D+00
 ANorm=    0.1129624783D+01
 E2 =    -0.8074991450D+00 EUMP2 =    -0.25756856458470D+03
          Differentiating once with respect to electric field.
                with respect to dipole field.
          Differentiating once with respect to nuclear coordinates.
          Store integrals in memory, NReq=    15927892.
          There are   1 degrees of freedom in the 1st order CPHF.
   1 vectors were produced by pass  0.
 AX will form   1 AO Fock derivatives at one time.
   1 vectors were produced by pass  1.
   1 vectors were produced by pass  2.
   1 vectors were produced by pass  3.
   1 vectors were produced by pass  4.
   1 vectors were produced by pass  5.
   1 vectors were produced by pass  6.
   1 vectors were produced by pass  7.
   1 vectors were produced by pass  8.
   1 vectors were produced by pass  9.
   1 vectors were produced by pass 10.
   1 vectors were produced by pass 11.
   1 vectors were produced by pass 12.
   1 vectors were produced by pass 13.
   1 vectors were produced by pass 14.
   1 vectors were produced by pass 15.
 Inv2:  IOpt= 1 Iter= 1 AM= 5.46D-16 Conv= 1.00D-12.
 Inverted reduced A of dimension  16 with in-core refinement.
 ***** Axes restored to original set *****
 -------------------------------------------------------------------
 Center     Atomic                   Forces (Hartrees/Bohr)
 Number     Number              X              Y              Z
 -------------------------------------------------------------------
    1          7          -0.005478034   -0.015514770    0.000000000
    2          7           0.003749482    0.020994635    0.000000000
    3          7          -0.000952548   -0.006131066    0.000000000
    4          1          -0.000070496    0.000410593    0.000000000
    5          7          -0.001442786   -0.003236302    0.000000000
    6          6           0.004464843    0.003496839    0.000000000
    7          1          -0.000270461   -0.000019929    0.000000000
 -------------------------------------------------------------------
 Cartesian Forces:  Max     0.020994635 RMS     0.006206804

 GradGradGradGradGradGradGradGradGradGradGradGradGradGradGradGradGradGrad
 Berny optimization.
 Internal  Forces:  Max     0.016749650 RMS     0.003681262
 Search for a local minimum.
 Step number   2 out of a maximum of  36
 All quantities printed in internal units (Hartrees-Bohrs-Radians)
 Update second derivatives using information from points  1  2
 Trust test= 1.12D+00 RLast= 1.39D-01 DXMaxT set to 4.18D-01
     Eigenvalues ---    0.02506   0.02638   0.02676   0.02835   0.15998
     Eigenvalues ---    0.16001   0.22457   0.24573   0.37577   0.48824
     Eigenvalues ---    0.50517   0.56289   0.60521   0.66772   0.69483
     Eigenvalues --- 1000.000001000.000001000.000001000.000001000.00000
     Eigenvalues --- 1000.000001000.000001000.000001000.000001000.00000
     Eigenvalues --- 1000.00000
 RFO step:  Lambda=-4.07398267D-04.
 Quartic linear search produced a step of  0.18342.
 Iteration  1 RMS(Cart)=  0.00669899 RMS(Int)=  0.00005047
 Iteration  2 RMS(Cart)=  0.00004650 RMS(Int)=  0.00002182
 Iteration  3 RMS(Cart)=  0.00000000 RMS(Int)=  0.00002182
 Variable       Old X    -DE/DX   Delta X   Delta X   Delta X     New X
                                 (Linear)    (Quad)   (Total)
    R1        2.45418   0.01675   0.01613   0.01350   0.02965   2.48383
    R2        2.58365   0.00135   0.00897  -0.00209   0.00687   2.59052
    R3        2.55239   0.00100   0.00849  -0.00415   0.00437   2.55676
    R4        1.90732   0.00029   0.00526  -0.00290   0.00237   1.90969
    R5        2.55645  -0.00060   0.00785  -0.00892  -0.00108   2.55537
    R6        2.50052   0.00349   0.01175  -0.00384   0.00788   2.50840
    R7        2.03242  -0.00024   0.00269  -0.00249   0.00020   2.03262
    A1        1.93770  -0.00049  -0.00112   0.00719   0.00608   1.94377
    A2        1.85687  -0.00504  -0.00090  -0.01827  -0.01911   1.83776
    A3        2.10304  -0.00246  -0.00083  -0.01020  -0.01104   2.09200
    A4        1.89264   0.00436   0.00134   0.01637   0.01772   1.91037
    A5        2.28750  -0.00190  -0.00050  -0.00617  -0.00668   2.28082
    A6        1.84580   0.00001  -0.00004  -0.00170  -0.00181   1.84399
    A7        1.89177   0.00116   0.00073  -0.00358  -0.00288   1.88889
    A8        2.17915  -0.00046  -0.00060   0.00275   0.00217   2.18132
    A9        2.21226  -0.00070  -0.00013   0.00083   0.00071   2.21297
    D1        0.00000   0.00000   0.00000   0.00000   0.00000   0.00000
    D2        0.00000   0.00000   0.00000   0.00000   0.00000   0.00000
    D3        3.14159   0.00000   0.00000   0.00000   0.00000   3.14159
    D4        0.00000   0.00000   0.00000   0.00000   0.00000   0.00000
    D5        0.00000   0.00000   0.00000   0.00000   0.00000   0.00000
    D6        3.14159   0.00000   0.00000   0.00000   0.00000   3.14159
    D7        3.14159   0.00000   0.00000   0.00000   0.00000   3.14159
    D8        0.00000   0.00000   0.00000   0.00000   0.00000   0.00000
    D9        0.00000   0.00000   0.00000   0.00000   0.00000   0.00000
   D10        3.14159   0.00000   0.00000   0.00000   0.00000   3.14159
         Item               Value     Threshold  Converged?
 Maximum Force            0.016750     0.000450     NO 
 RMS     Force            0.003681     0.000300     NO 
 Maximum Displacement     0.027814     0.001800     NO 
 RMS     Displacement     0.006701     0.001200     NO 
 Predicted change in Energy=-4.039446D-04
 GradGradGradGradGradGradGradGradGradGradGradGradGradGradGradGradGradGrad

                          Input orientation:                          
 ---------------------------------------------------------------------
 Center     Atomic     Atomic              Coordinates (Angstroms)
 Number     Number      Type              X           Y           Z
 ---------------------------------------------------------------------
    1          7             0       -1.152882   -0.271603    0.000000
    2          7             0       -0.683107    0.955964    0.000000
    3          7             0        0.663308    0.822869    0.000000
    4          1             0        1.250261    1.645503    0.000000
    5          7             0       -0.139144   -1.194397    0.000000
    6          6             0        0.986103   -0.490280    0.000000
    7          1             0        1.989126   -0.878729    0.000000
 ---------------------------------------------------------------------
                    Distance matrix (angstroms):
                    1          2          3          4          5
     1  N    0.000000
     2  N    1.314385   0.000000
     3  N    2.120475   1.352978   0.000000
     4  H    3.074148   2.052651   1.010564   0.000000
     5  N    1.370844   2.218096   2.171012   3.161563   0.000000
     6  C    2.150133   2.208593   1.352242   2.152057   1.327388
     7  H    3.200127   3.241439   2.157134   2.630146   2.151553
                    6          7
     6  C    0.000000
     7  H    1.075615   0.000000
 Stoichiometry    CH2N4
 Framework group  CS[SG(CH2N4)]
 Deg. of freedom   11
 Full point group                 CS      NOp   2
 Largest Abelian subgroup         CS      NOp   2
 Largest concise Abelian subgroup C1      NOp   1
                         Standard orientation:                         
 ---------------------------------------------------------------------
 Center     Atomic     Atomic              Coordinates (Angstroms)
 Number     Number      Type              X           Y           Z
 ---------------------------------------------------------------------
    1          7             0       -0.725541   -0.935417    0.000000
    2          7             0       -1.131191    0.314805    0.000000
    3          7             0        0.000000    1.057070    0.000000
    4          1             0       -0.060100    2.065845    0.000000
    5          7             0        0.642899   -1.016568    0.000000
    6          6             0        1.076072    0.238152    0.000000
    7          1             0        2.100499    0.566019    0.000000
 ---------------------------------------------------------------------
 Rotational constants (GHZ):     10.4054917     10.1561245      5.1396480
 Isotopes: N-14,N-14,N-14,H-1,N-14,C-12,H-1
 Standard basis: 6-31+G(d,p) (6D, 7F)
 There are    78 symmetry adapted basis functions of A'  symmetry.
 There are    27 symmetry adapted basis functions of A"  symmetry.
 Crude estimate of integral set expansion from redundant integrals=1.000.
 Integral buffers will be    262144 words long.
 Raffenetti 1 integral format.
 Two-electron integral symmetry is turned on.
   105 basis functions      174 primitive gaussians
    18 alpha electrons       18 beta electrons
       nuclear repulsion energy       165.4635555328 Hartrees.
 One-electron integrals computed using PRISM.
 NBasis=   105 RedAO= T  NBF=    78    27
 NBsUse=   105 1.00D-04 NBFU=    78    27
 Initial guess read from the read-write file:
 Initial guess orbital symmetries:
       Occupied  (A') (A') (A') (A') (A') (A') (A') (A') (A') (A')
                 (A') (A') (A") (A') (A') (A') (A") (A")
       Virtual   (A') (A') (A") (A') (A") (A') (A') (A") (A') (A")
                 (A") (A') (A') (A') (A") (A') (A") (A') (A') (A')
                 (A') (A') (A') (A') (A') (A') (A') (A') (A') (A")
                 (A') (A') (A') (A') (A') (A") (A') (A") (A') (A')
                 (A") (A') (A") (A') (A') (A') (A') (A') (A") (A')
                 (A") (A") (A') (A") (A") (A') (A') (A') (A') (A')
                 (A") (A') (A') (A") (A") (A') (A") (A') (A') (A")
                 (A') (A") (A') (A') (A") (A') (A') (A') (A') (A')
                 (A') (A') (A') (A') (A') (A') (A')
 Requested convergence on RMS density matrix=1.00D-08 within  64 cycles.
 Requested convergence on MAX density matrix=1.00D-06.
 Keep R1 integrals in memory in canonical form, NReq=    16118385.
 SCF Done:  E(RHF) =  -256.758266742     A.U. after   13 cycles
             Convg  =    0.5529D-08             -V/T =  2.0041
             S**2   =   0.0000
 Range of M.O.s used for correlation:     6   105
 NBasis=   105 NAE=    18 NBE=    18 NFC=     5 NFV=     0
 NROrb=    100 NOA=    13 NOB=    13 NVA=    87 NVB=    87

 **** Warning!!: The largest alpha MO coefficient is  0.51847960D+02

 Fully direct method using O(ONN) memory.
 JobTyp=1 Pass  1:  I=   6 to  18.
 Spin components of T(2) and E(2):
     alpha-alpha T2 =       0.3971289293D-01 E2=     -0.1124704329D+00
     alpha-beta  T2 =       0.1995544050D+00 E2=     -0.5857319703D+00
     beta-beta   T2 =       0.3971289293D-01 E2=     -0.1124704329D+00
 ANorm=    0.1130920064D+01
 E2 =    -0.8106728361D+00 EUMP2 =    -0.25756893957812D+03
          Differentiating once with respect to electric field.
                with respect to dipole field.
          Differentiating once with respect to nuclear coordinates.
          Store integrals in memory, NReq=    15927892.
          There are   1 degrees of freedom in the 1st order CPHF.
   1 vectors were produced by pass  0.
 AX will form   1 AO Fock derivatives at one time.
   1 vectors were produced by pass  1.
   1 vectors were produced by pass  2.
   1 vectors were produced by pass  3.
   1 vectors were produced by pass  4.
   1 vectors were produced by pass  5.
   1 vectors were produced by pass  6.
   1 vectors were produced by pass  7.
   1 vectors were produced by pass  8.
   1 vectors were produced by pass  9.
   1 vectors were produced by pass 10.
   1 vectors were produced by pass 11.
   1 vectors were produced by pass 12.
   1 vectors were produced by pass 13.
   1 vectors were produced by pass 14.
   1 vectors were produced by pass 15.
 Inv2:  IOpt= 1 Iter= 1 AM= 5.58D-16 Conv= 1.00D-12.
 Inverted reduced A of dimension  16 with in-core refinement.
 ***** Axes restored to original set *****
 -------------------------------------------------------------------
 Center     Atomic                   Forces (Hartrees/Bohr)
 Number     Number              X              Y              Z
 -------------------------------------------------------------------
    1          7          -0.003096626   -0.008348445    0.000000000
    2          7           0.006272041    0.001951236    0.000000000
    3          7           0.000178405   -0.000105819    0.000000000
    4          1           0.000040460   -0.000556698    0.000000000
    5          7          -0.002274105    0.003845879    0.000000000
    6          6          -0.000877533    0.002964388    0.000000000
    7          1          -0.000242642    0.000249460    0.000000000
 -------------------------------------------------------------------
 Cartesian Forces:  Max     0.008348445 RMS     0.002694148

 GradGradGradGradGradGradGradGradGradGradGradGradGradGradGradGradGradGrad
 Berny optimization.
 Internal  Forces:  Max     0.005384603 RMS     0.001868668
 Search for a local minimum.
 Step number   3 out of a maximum of  36
 All quantities printed in internal units (Hartrees-Bohrs-Radians)
 Update second derivatives using information from points  1  2  3
 Trust test= 9.28D-01 RLast= 4.37D-02 DXMaxT set to 4.18D-01
     Eigenvalues ---    0.02506   0.02636   0.02675   0.02834   0.15999
     Eigenvalues ---    0.16034   0.22347   0.32045   0.36856   0.37624
     Eigenvalues ---    0.49101   0.52522   0.58557   0.67197   0.71302
     Eigenvalues --- 1000.000001000.000001000.000001000.000001000.00000
     Eigenvalues --- 1000.000001000.000001000.000001000.000001000.00000
     Eigenvalues --- 1000.00000
 RFO step:  Lambda=-2.20272577D-04.
 Quartic linear search produced a step of  0.02204.
 Iteration  1 RMS(Cart)=  0.00457600 RMS(Int)=  0.00001658
 Iteration  2 RMS(Cart)=  0.00001199 RMS(Int)=  0.00000888
 Iteration  3 RMS(Cart)=  0.00000000 RMS(Int)=  0.00000888
 Variable       Old X    -DE/DX   Delta X   Delta X   Delta X     New X
                                 (Linear)    (Quad)   (Total)
    R1        2.48383   0.00538   0.00065   0.01559   0.01624   2.50007
    R2        2.59052  -0.00381   0.00015  -0.00422  -0.00406   2.58646
    R3        2.55676  -0.00210   0.00010  -0.00180  -0.00172   2.55504
    R4        1.90969  -0.00043   0.00005   0.00006   0.00011   1.90980
    R5        2.55537  -0.00323  -0.00002  -0.00580  -0.00584   2.54953
    R6        2.50840   0.00107   0.00017   0.00398   0.00416   2.51256
    R7        2.03262  -0.00032   0.00000  -0.00062  -0.00062   2.03200
    A1        1.94377  -0.00402   0.00013  -0.01259  -0.01244   1.93133
    A2        1.83776   0.00248  -0.00042   0.00741   0.00697   1.84473
    A3        2.09200   0.00106  -0.00024   0.00330   0.00307   2.09506
    A4        1.91037  -0.00143   0.00039  -0.00335  -0.00298   1.90738
    A5        2.28082   0.00038  -0.00015   0.00005  -0.00008   2.28074
    A6        1.84399   0.00191  -0.00004   0.00666   0.00664   1.85063
    A7        1.88889   0.00106  -0.00006   0.00188   0.00181   1.89070
    A8        2.18132  -0.00068   0.00005  -0.00172  -0.00167   2.17966
    A9        2.21297  -0.00038   0.00002  -0.00016  -0.00014   2.21283
    D1        0.00000   0.00000   0.00000   0.00000   0.00000   0.00000
    D2        0.00000   0.00000   0.00000   0.00000   0.00000   0.00000
    D3        3.14159   0.00000   0.00000   0.00000   0.00000   3.14159
    D4        0.00000   0.00000   0.00000   0.00000   0.00000   0.00000
    D5        0.00000   0.00000   0.00000   0.00000   0.00000   0.00000
    D6        3.14159   0.00000   0.00000   0.00000   0.00000   3.14159
    D7        3.14159   0.00000   0.00000   0.00000   0.00000   3.14159
    D8        0.00000   0.00000   0.00000   0.00000   0.00000   0.00000
    D9        0.00000   0.00000   0.00000   0.00000   0.00000   0.00000
   D10        3.14159   0.00000   0.00000   0.00000   0.00000   3.14159
         Item               Value     Threshold  Converged?
 Maximum Force            0.005385     0.000450     NO 
 RMS     Force            0.001869     0.000300     NO 
 Maximum Displacement     0.012789     0.001800     NO 
 RMS     Displacement     0.004578     0.001200     NO 
 Predicted change in Energy=-1.102609D-04
 GradGradGradGradGradGradGradGradGradGradGradGradGradGradGradGradGradGrad

                          Input orientation:                          
 ---------------------------------------------------------------------
 Center     Atomic     Atomic              Coordinates (Angstroms)
 Number     Number      Type              X           Y           Z
 ---------------------------------------------------------------------
    1          7             0       -1.158906   -0.278626    0.000000
    2          7             0       -0.679049    0.954263    0.000000
    3          7             0        0.666633    0.822999    0.000000
    4          1             0        1.255078    1.644639    0.000000
    5          7             0       -0.140550   -1.193112    0.000000
    6          6             0        0.986476   -0.487693    0.000000
    7          1             0        1.989187   -0.876045    0.000000
 ---------------------------------------------------------------------
                    Distance matrix (angstroms):
                    1          2          3          4          5
     1  N    0.000000
     2  N    1.322980   0.000000
     3  N    2.132175   1.352069   0.000000
     4  H    3.086465   2.053647   1.010623   0.000000
     5  N    1.368697   2.213865   2.171693   3.162374   0.000000
     6  C    2.155544   2.203000   1.349153   2.149182   1.329588
     7  H    3.204278   3.235662   2.153114   2.625407   2.153210
                    6          7
     6  C    0.000000
     7  H    1.075289   0.000000
 Stoichiometry    CH2N4
 Framework group  CS[SG(CH2N4)]
 Deg. of freedom   11
 Full point group                 CS      NOp   2
 Largest Abelian subgroup         CS      NOp   2
 Largest concise Abelian subgroup C1      NOp   1
                         Standard orientation:                         
 ---------------------------------------------------------------------
 Center     Atomic     Atomic              Coordinates (Angstroms)
 Number     Number      Type              X           Y           Z
 ---------------------------------------------------------------------
    1          7             0       -0.724977   -0.945264    0.000000
    2          7             0       -1.128228    0.314762    0.000000
    3          7             0        0.000000    1.059873    0.000000
    4          1             0       -0.059997    2.068714    0.000000
    5          7             0        0.641954   -1.014770    0.000000
    6          6             0        1.073597    0.242803    0.000000
    7          1             0        2.097172    0.572258    0.000000
 ---------------------------------------------------------------------
 Rotational constants (GHZ):     10.3424820     10.1888160      5.1325370
 Isotopes: N-14,N-14,N-14,H-1,N-14,C-12,H-1
 Standard basis: 6-31+G(d,p) (6D, 7F)
 There are    78 symmetry adapted basis functions of A'  symmetry.
 There are    27 symmetry adapted basis functions of A"  symmetry.
 Crude estimate of integral set expansion from redundant integrals=1.000.
 Integral buffers will be    262144 words long.
 Raffenetti 1 integral format.
 Two-electron integral symmetry is turned on.
   105 basis functions      174 primitive gaussians
    18 alpha electrons       18 beta electrons
       nuclear repulsion energy       165.3384236121 Hartrees.
 One-electron integrals computed using PRISM.
 NBasis=   105 RedAO= T  NBF=    78    27
 NBsUse=   105 1.00D-04 NBFU=    78    27
 Initial guess read from the read-write file:
 Initial guess orbital symmetries:
       Occupied  (A') (A') (A') (A') (A') (A') (A') (A') (A') (A')
                 (A') (A') (A") (A') (A') (A') (A") (A")
       Virtual   (A') (A') (A") (A') (A") (A') (A') (A") (A') (A")
                 (A") (A') (A') (A') (A") (A') (A") (A') (A') (A')
                 (A') (A') (A') (A') (A') (A') (A') (A') (A') (A")
                 (A') (A') (A') (A') (A') (A") (A') (A") (A') (A")
                 (A') (A') (A") (A') (A') (A') (A') (A') (A") (A')
                 (A") (A") (A') (A") (A') (A") (A') (A') (A') (A')
                 (A") (A') (A') (A") (A") (A') (A') (A") (A') (A")
                 (A') (A") (A') (A') (A") (A') (A') (A') (A') (A')
                 (A') (A') (A') (A') (A') (A') (A')
 Requested convergence on RMS density matrix=1.00D-08 within  64 cycles.
 Requested convergence on MAX density matrix=1.00D-06.
 Keep R1 integrals in memory in canonical form, NReq=    16118385.
 SCF Done:  E(RHF) =  -256.757251367     A.U. after   13 cycles
             Convg  =    0.3950D-08             -V/T =  2.0042
             S**2   =   0.0000
 Range of M.O.s used for correlation:     6   105
 NBasis=   105 NAE=    18 NBE=    18 NFC=     5 NFV=     0
 NROrb=    100 NOA=    13 NOB=    13 NVA=    87 NVB=    87

 **** Warning!!: The largest alpha MO coefficient is  0.51489928D+02

 Fully direct method using O(ONN) memory.
 JobTyp=1 Pass  1:  I=   6 to  18.
 Spin components of T(2) and E(2):
     alpha-alpha T2 =       0.3986749032D-01 E2=     -0.1126559662D+00
     alpha-beta  T2 =       0.2002220418D+00 E2=     -0.5864543068D+00
     beta-beta   T2 =       0.3986749032D-01 E2=     -0.1126559662D+00
 ANorm=    0.1131351856D+01
 E2 =    -0.8117662392D+00 EUMP2 =    -0.25756901760614D+03
          Differentiating once with respect to electric field.
                with respect to dipole field.
          Differentiating once with respect to nuclear coordinates.
          Store integrals in memory, NReq=    15927892.
          There are   1 degrees of freedom in the 1st order CPHF.
   1 vectors were produced by pass  0.
 AX will form   1 AO Fock derivatives at one time.
   1 vectors were produced by pass  1.
   1 vectors were produced by pass  2.
   1 vectors were produced by pass  3.
   1 vectors were produced by pass  4.
   1 vectors were produced by pass  5.
   1 vectors were produced by pass  6.
   1 vectors were produced by pass  7.
   1 vectors were produced by pass  8.
   1 vectors were produced by pass  9.
   1 vectors were produced by pass 10.
   1 vectors were produced by pass 11.
   1 vectors were produced by pass 12.
   1 vectors were produced by pass 13.
   1 vectors were produced by pass 14.
   1 vectors were produced by pass 15.
 Inv2:  IOpt= 1 Iter= 1 AM= 3.47D-16 Conv= 1.00D-12.
 Inverted reduced A of dimension  16 with in-core refinement.
 ***** Axes restored to original set *****
 -------------------------------------------------------------------
 Center     Atomic                   Forces (Hartrees/Bohr)
 Number     Number              X              Y              Z
 -------------------------------------------------------------------
    1          7           0.004969514   -0.001027046    0.000000000
    2          7           0.000948241    0.001347675    0.000000000
    3          7          -0.003290312   -0.000901669    0.000000000
    4          1          -0.000433635   -0.000376990    0.000000000
    5          7          -0.000719720    0.001933688    0.000000000
    6          6          -0.001330692   -0.000742088    0.000000000
    7          1          -0.000143396   -0.000233569    0.000000000
 -------------------------------------------------------------------
 Cartesian Forces:  Max     0.004969514 RMS     0.001497447

 GradGradGradGradGradGradGradGradGradGradGradGradGradGradGradGradGradGrad
 Berny optimization.
 Internal  Forces:  Max     0.002873970 RMS     0.001183056
 Search for a local minimum.
 Step number   4 out of a maximum of  36
 All quantities printed in internal units (Hartrees-Bohrs-Radians)
 Update second derivatives using information from points  1  2  3  4
 Trust test= 7.08D-01 RLast= 2.46D-02 DXMaxT set to 4.18D-01
     Eigenvalues ---    0.02506   0.02636   0.02677   0.02835   0.15981
     Eigenvalues ---    0.16054   0.22328   0.28838   0.37570   0.46240
     Eigenvalues ---    0.49019   0.52544   0.58725   0.63301   0.76256
     Eigenvalues --- 1000.000001000.000001000.000001000.000001000.00000
     Eigenvalues --- 1000.000001000.000001000.000001000.000001000.00000
     Eigenvalues --- 1000.00000
 RFO step:  Lambda=-4.23460373D-05.
 Quartic linear search produced a step of -0.22523.
 Iteration  1 RMS(Cart)=  0.00192122 RMS(Int)=  0.00000337
 Iteration  2 RMS(Cart)=  0.00000181 RMS(Int)=  0.00000251
 Iteration  3 RMS(Cart)=  0.00000000 RMS(Int)=  0.00000251
 Variable       Old X    -DE/DX   Delta X   Delta X   Delta X     New X
                                 (Linear)    (Quad)   (Total)
    R1        2.50007  -0.00064  -0.00366   0.00456   0.00090   2.50097
    R2        2.58646  -0.00287   0.00091  -0.00579  -0.00488   2.58158
    R3        2.55504  -0.00277   0.00039  -0.00421  -0.00382   2.55122
    R4        1.90980  -0.00056  -0.00003  -0.00082  -0.00085   1.90896
    R5        2.54953   0.00019   0.00131  -0.00179  -0.00048   2.54905
    R6        2.51256  -0.00246  -0.00094  -0.00122  -0.00216   2.51040
    R7        2.03200  -0.00005   0.00014  -0.00026  -0.00013   2.03188
    A1        1.93133   0.00239   0.00280   0.00154   0.00434   1.93568
    A2        1.84473  -0.00225  -0.00157  -0.00292  -0.00448   1.84025
    A3        2.09506  -0.00065  -0.00069  -0.00070  -0.00139   2.09368
    A4        1.90738   0.00105   0.00067   0.00168   0.00236   1.90974
    A5        2.28074  -0.00040   0.00002  -0.00099  -0.00097   2.27977
    A6        1.85063  -0.00098  -0.00150  -0.00059  -0.00210   1.84853
    A7        1.89070  -0.00020  -0.00041   0.00028  -0.00012   1.89058
    A8        2.17966   0.00037   0.00038   0.00081   0.00118   2.18084
    A9        2.21283  -0.00017   0.00003  -0.00109  -0.00106   2.21177
    D1        0.00000   0.00000   0.00000   0.00000   0.00000   0.00000
    D2        0.00000   0.00000   0.00000   0.00000   0.00000   0.00000
    D3        3.14159   0.00000   0.00000   0.00000   0.00000   3.14159
    D4        0.00000   0.00000   0.00000   0.00000   0.00000   0.00000
    D5        0.00000   0.00000   0.00000   0.00000   0.00000   0.00000
    D6        3.14159   0.00000   0.00000   0.00000   0.00000   3.14159
    D7        3.14159   0.00000   0.00000   0.00000   0.00000   3.14159
    D8        0.00000   0.00000   0.00000   0.00000   0.00000   0.00000
    D9        0.00000   0.00000   0.00000   0.00000   0.00000   0.00000
   D10        3.14159   0.00000   0.00000   0.00000   0.00000   3.14159
         Item               Value     Threshold  Converged?
 Maximum Force            0.002874     0.000450     NO 
 RMS     Force            0.001183     0.000300     NO 
 Maximum Displacement     0.007334     0.001800     NO 
 RMS     Displacement     0.001921     0.001200     NO 
 Predicted change in Energy=-2.837035D-05
 GradGradGradGradGradGradGradGradGradGradGradGradGradGradGradGradGradGrad

                          Input orientation:                          
 ---------------------------------------------------------------------
 Center     Atomic     Atomic              Coordinates (Angstroms)
 Number     Number      Type              X           Y           Z
 ---------------------------------------------------------------------
    1          7             0       -1.154470   -0.278123    0.000000
    2          7             0       -0.677834    0.956523    0.000000
    3          7             0        0.665609    0.823126    0.000000
    4          1             0        1.254077    1.644199    0.000000
    5          7             0       -0.139490   -1.192501    0.000000
    6          6             0        0.986214   -0.487120    0.000000
    7          1             0        1.988648   -0.876004    0.000000
 ---------------------------------------------------------------------
                    Distance matrix (angstroms):
                    1          2          3          4          5
     1  N    0.000000
     2  N    1.323455   0.000000
     3  N    2.127307   1.350050   0.000000
     4  H    3.081626   2.050653   1.010176   0.000000
     5  N    1.366116   2.215428   2.170469   3.160521   0.000000
     6  C    2.150862   2.202990   1.348900   2.148086   1.328447
     7  H    3.199477   3.235473   2.153479   2.625075   2.151544
                    6          7
     6  C    0.000000
     7  H    1.075222   0.000000
 Stoichiometry    CH2N4
 Framework group  CS[SG(CH2N4)]
 Deg. of freedom   11
 Full point group                 CS      NOp   2
 Largest Abelian subgroup         CS      NOp   2
 Largest concise Abelian subgroup C1      NOp   1
                         Standard orientation:                         
 ---------------------------------------------------------------------
 Center     Atomic     Atomic              Coordinates (Angstroms)
 Number     Number      Type              X           Y           Z
 ---------------------------------------------------------------------
    1          7             0       -0.723214   -0.942507    0.000000
    2          7             0       -1.128663    0.317312    0.000000
    3          7             0        0.000000    1.058092    0.000000
    4          1             0       -0.058493    2.066573    0.000000
    5          7             0        0.640946   -1.015582    0.000000
    6          6             0        1.072993    0.240645    0.000000
    7          1             0        2.097055    0.568364    0.000000
 ---------------------------------------------------------------------
 Rotational constants (GHZ):     10.3844365     10.1815342      5.1409922
 Isotopes: N-14,N-14,N-14,H-1,N-14,C-12,H-1
 Standard basis: 6-31+G(d,p) (6D, 7F)
 There are    78 symmetry adapted basis functions of A'  symmetry.
 There are    27 symmetry adapted basis functions of A"  symmetry.
 Crude estimate of integral set expansion from redundant integrals=1.000.
 Integral buffers will be    262144 words long.
 Raffenetti 1 integral format.
 Two-electron integral symmetry is turned on.
   105 basis functions      174 primitive gaussians
    18 alpha electrons       18 beta electrons
       nuclear repulsion energy       165.4727279741 Hartrees.
 One-electron integrals computed using PRISM.
 NBasis=   105 RedAO= T  NBF=    78    27
 NBsUse=   105 1.00D-04 NBFU=    78    27
 Initial guess read from the read-write file:
 Initial guess orbital symmetries:
       Occupied  (A') (A') (A') (A') (A') (A') (A') (A') (A') (A')
                 (A') (A') (A") (A') (A') (A') (A") (A")
       Virtual   (A') (A') (A") (A') (A") (A') (A') (A") (A') (A")
                 (A") (A') (A') (A') (A") (A') (A") (A') (A') (A')
                 (A') (A') (A') (A') (A') (A') (A') (A') (A') (A")
                 (A') (A') (A') (A') (A') (A") (A') (A") (A') (A')
                 (A") (A') (A") (A') (A') (A') (A') (A') (A") (A')
                 (A") (A") (A') (A") (A") (A') (A') (A') (A') (A')
                 (A") (A') (A') (A") (A") (A') (A') (A") (A') (A")
                 (A') (A") (A') (A') (A") (A') (A') (A') (A') (A')
                 (A') (A') (A') (A') (A') (A') (A')
 Requested convergence on RMS density matrix=1.00D-08 within  64 cycles.
 Requested convergence on MAX density matrix=1.00D-06.
 Keep R1 integrals in memory in canonical form, NReq=    16118385.
 SCF Done:  E(RHF) =  -256.757604609     A.U. after   11 cycles
             Convg  =    0.7150D-08             -V/T =  2.0041
             S**2   =   0.0000
 Range of M.O.s used for correlation:     6   105
 NBasis=   105 NAE=    18 NBE=    18 NFC=     5 NFV=     0
 NROrb=    100 NOA=    13 NOB=    13 NVA=    87 NVB=    87

 **** Warning!!: The largest alpha MO coefficient is  0.51611253D+02

 Fully direct method using O(ONN) memory.
 JobTyp=1 Pass  1:  I=   6 to  18.
 Spin components of T(2) and E(2):
     alpha-alpha T2 =       0.3982532237D-01 E2=     -0.1126322124D+00
     alpha-beta  T2 =       0.1999492843D+00 E2=     -0.5861820829D+00
     beta-beta   T2 =       0.3982532237D-01 E2=     -0.1126322124D+00
 ANorm=    0.1131194028D+01
 E2 =    -0.8114465077D+00 EUMP2 =    -0.25756905111619D+03
          Differentiating once with respect to electric field.
                with respect to dipole field.
          Differentiating once with respect to nuclear coordinates.
          Store integrals in memory, NReq=    15927892.
          There are   1 degrees of freedom in the 1st order CPHF.
   1 vectors were produced by pass  0.
 AX will form   1 AO Fock derivatives at one time.
   1 vectors were produced by pass  1.
   1 vectors were produced by pass  2.
   1 vectors were produced by pass  3.
   1 vectors were produced by pass  4.
   1 vectors were produced by pass  5.
   1 vectors were produced by pass  6.
   1 vectors were produced by pass  7.
   1 vectors were produced by pass  8.
   1 vectors were produced by pass  9.
   1 vectors were produced by pass 10.
   1 vectors were produced by pass 11.
   1 vectors were produced by pass 12.
   1 vectors were produced by pass 13.
   1 vectors were produced by pass 14.
   1 vectors were produced by pass 15.
 Inv2:  IOpt= 1 Iter= 1 AM= 3.56D-16 Conv= 1.00D-12.
 Inverted reduced A of dimension  16 with in-core refinement.
 ***** Axes restored to original set *****
 -------------------------------------------------------------------
 Center     Atomic                   Forces (Hartrees/Bohr)
 Number     Number              X              Y              Z
 -------------------------------------------------------------------
    1          7           0.001017655   -0.000740999    0.000000000
    2          7           0.000642828   -0.000339302    0.000000000
    3          7          -0.001245308   -0.000011335    0.000000000
    4          1           0.000005761   -0.000136334    0.000000000
    5          7          -0.000725931    0.001825202    0.000000000
    6          6           0.000303670   -0.000566825    0.000000000
    7          1           0.000001324   -0.000030408    0.000000000
 -------------------------------------------------------------------
 Cartesian Forces:  Max     0.001825202 RMS     0.000615489

 GradGradGradGradGradGradGradGradGradGradGradGradGradGradGradGradGradGrad
 Berny optimization.
 Internal  Forces:  Max     0.001373614 RMS     0.000380806
 Search for a local minimum.
 Step number   5 out of a maximum of  36
 All quantities printed in internal units (Hartrees-Bohrs-Radians)
 Update second derivatives using information from points  1  2  3  4  5

 Trust test= 1.18D+00 RLast= 9.95D-03 DXMaxT set to 4.18D-01
     Eigenvalues ---    0.02506   0.02636   0.02677   0.02835   0.15696
     Eigenvalues ---    0.16086   0.18750   0.36292   0.37616   0.45273
     Eigenvalues ---    0.48518   0.49869   0.55825   0.60513   0.73883
     Eigenvalues --- 1000.000001000.000001000.000001000.000001000.00000
     Eigenvalues --- 1000.000001000.000001000.000001000.000001000.00000
     Eigenvalues --- 1000.00000
 RFO step:  Lambda=-9.85953257D-06.
 Quartic linear search produced a step of  0.21932.
 Iteration  1 RMS(Cart)=  0.00106828 RMS(Int)=  0.00000089
 Iteration  2 RMS(Cart)=  0.00000092 RMS(Int)=  0.00000026
 Variable       Old X    -DE/DX   Delta X   Delta X   Delta X     New X
                                 (Linear)    (Quad)   (Total)
    R1        2.50097  -0.00037   0.00020   0.00041   0.00061   2.50157
    R2        2.58158  -0.00137  -0.00107  -0.00304  -0.00411   2.57747
    R3        2.55122  -0.00078  -0.00084  -0.00142  -0.00226   2.54897
    R4        1.90896  -0.00011  -0.00019  -0.00019  -0.00037   1.90858
    R5        2.54905  -0.00003  -0.00010  -0.00018  -0.00028   2.54877
    R6        2.51040  -0.00052  -0.00047  -0.00049  -0.00096   2.50944
    R7        2.03188   0.00001  -0.00003   0.00003   0.00001   2.03188
    A1        1.93568  -0.00004   0.00095  -0.00150  -0.00055   1.93513
    A2        1.84025  -0.00007  -0.00098   0.00002  -0.00097   1.83928
    A3        2.09368   0.00001  -0.00030   0.00006  -0.00024   2.09343
    A4        1.90974   0.00015   0.00052   0.00127   0.00179   1.91153
    A5        2.27977  -0.00015  -0.00021  -0.00133  -0.00154   2.27822
    A6        1.84853   0.00054  -0.00046   0.00297   0.00251   1.85104
    A7        1.89058  -0.00058  -0.00003  -0.00276  -0.00278   1.88780
    A8        2.18084   0.00032   0.00026   0.00151   0.00177   2.18261
    A9        2.21177   0.00026  -0.00023   0.00125   0.00101   2.21278
    D1        0.00000   0.00000   0.00000   0.00000   0.00000   0.00000
    D2        0.00000   0.00000   0.00000   0.00000   0.00000   0.00000
    D3        3.14159   0.00000   0.00000   0.00000   0.00000   3.14159
    D4        0.00000   0.00000   0.00000   0.00000   0.00000   0.00000
    D5        0.00000   0.00000   0.00000   0.00000   0.00000   0.00000
    D6        3.14159   0.00000   0.00000   0.00000   0.00000   3.14159
    D7        3.14159   0.00000   0.00000   0.00000   0.00000   3.14159
    D8        0.00000   0.00000   0.00000   0.00000   0.00000   0.00000
    D9        0.00000   0.00000   0.00000   0.00000   0.00000   0.00000
   D10        3.14159   0.00000   0.00000   0.00000   0.00000   3.14159
         Item               Value     Threshold  Converged?
 Maximum Force            0.001374     0.000450     NO 
 RMS     Force            0.000381     0.000300     NO 
 Maximum Displacement     0.003913     0.001800     NO 
 RMS     Displacement     0.001068     0.001200     YES
 Predicted change in Energy=-6.045638D-06
 GradGradGradGradGradGradGradGradGradGradGradGradGradGradGradGradGradGrad

                          Input orientation:                          
 ---------------------------------------------------------------------
 Center     Atomic     Atomic              Coordinates (Angstroms)
 Number     Number      Type              X           Y           Z
 ---------------------------------------------------------------------
    1          7             0       -1.154276   -0.278694    0.000000
    2          7             0       -0.678003    0.956437    0.000000
    3          7             0        0.664174    0.822378    0.000000
    4          1             0        1.252804    1.643091    0.000000
    5          7             0       -0.140061   -1.190671    0.000000
    6          6             0        0.986324   -0.487336    0.000000
    7          1             0        1.988540   -0.876787    0.000000
 ---------------------------------------------------------------------
                    Distance matrix (angstroms):
                    1          2          3          4          5
     1  N    0.000000
     2  N    1.323776   0.000000
     3  N    2.125822   1.348855   0.000000
     4  H    3.080145   2.049270   1.009978   0.000000
     5  N    1.363941   2.213471   2.167754   3.157575   0.000000
     6  C    2.150744   2.203284   1.348752   2.147028   1.327939
     7  H    3.199220   3.235917   2.154322   2.625089   2.151619
                    6          7
     6  C    0.000000
     7  H    1.075225   0.000000
 Stoichiometry    CH2N4
 Framework group  CS[SG(CH2N4)]
 Deg. of freedom   11
 Full point group                 CS      NOp   2
 Largest Abelian subgroup         CS      NOp   2
 Largest concise Abelian subgroup C1      NOp   1
                         Standard orientation:                         
 ---------------------------------------------------------------------
 Center     Atomic     Atomic              Coordinates (Angstroms)
 Number     Number      Type              X           Y           Z
 ---------------------------------------------------------------------
    1          7             0       -0.722691   -0.942342    0.000000
    2          7             0       -1.128327    0.317754    0.000000
    3          7             0        0.000000    1.056867    0.000000
    4          1             0       -0.057822    2.065189    0.000000
    5          7             0        0.639342   -1.014461    0.000000
    6          6             0        1.073601    0.240466    0.000000
    7          1             0        2.097954    0.567283    0.000000
 ---------------------------------------------------------------------
 Rotational constants (GHZ):     10.3917085     10.1965331      5.1465978
 Isotopes: N-14,N-14,N-14,H-1,N-14,C-12,H-1
 Standard basis: 6-31+G(d,p) (6D, 7F)
 There are    78 symmetry adapted basis functions of A'  symmetry.
 There are    27 symmetry adapted basis functions of A"  symmetry.
 Crude estimate of integral set expansion from redundant integrals=1.000.
 Integral buffers will be    262144 words long.
 Raffenetti 1 integral format.
 Two-electron integral symmetry is turned on.
   105 basis functions      174 primitive gaussians
    18 alpha electrons       18 beta electrons
       nuclear repulsion energy       165.5600473440 Hartrees.
 One-electron integrals computed using PRISM.
 NBasis=   105 RedAO= T  NBF=    78    27
 NBsUse=   105 1.00D-04 NBFU=    78    27
 Initial guess read from the read-write file:
 Initial guess orbital symmetries:
       Occupied  (A') (A') (A') (A') (A') (A') (A') (A') (A') (A')
                 (A') (A') (A") (A') (A') (A') (A") (A")
       Virtual   (A') (A') (A") (A') (A") (A') (A') (A") (A') (A")
                 (A") (A') (A') (A') (A") (A') (A") (A') (A') (A')
                 (A') (A') (A') (A') (A') (A') (A') (A') (A') (A")
                 (A') (A') (A') (A') (A') (A") (A') (A") (A') (A')
                 (A") (A') (A") (A') (A') (A') (A') (A') (A") (A')
                 (A") (A") (A') (A") (A") (A') (A') (A') (A') (A')
                 (A") (A') (A') (A") (A") (A') (A') (A") (A') (A")
                 (A') (A") (A') (A') (A") (A') (A') (A') (A') (A')
                 (A') (A') (A') (A') (A') (A') (A')
 Requested convergence on RMS density matrix=1.00D-08 within  64 cycles.
 Requested convergence on MAX density matrix=1.00D-06.
 Keep R1 integrals in memory in canonical form, NReq=    16118385.
 SCF Done:  E(RHF) =  -256.757823591     A.U. after   12 cycles
             Convg  =    0.2200D-08             -V/T =  2.0041
             S**2   =   0.0000
 Range of M.O.s used for correlation:     6   105
 NBasis=   105 NAE=    18 NBE=    18 NFC=     5 NFV=     0
 NROrb=    100 NOA=    13 NOB=    13 NVA=    87 NVB=    87

 **** Warning!!: The largest alpha MO coefficient is  0.51717945D+02

 Fully direct method using O(ONN) memory.
 JobTyp=1 Pass  1:  I=   6 to  18.
 Spin components of T(2) and E(2):
     alpha-alpha T2 =       0.3979962092D-01 E2=     -0.1126190237D+00
     alpha-beta  T2 =       0.1997698777D+00 E2=     -0.5859951688D+00
     beta-beta   T2 =       0.3979962092D-01 E2=     -0.1126190237D+00
 ANorm=    0.1131092003D+01
 E2 =    -0.8112332161D+00 EUMP2 =    -0.25756905680704D+03
          Differentiating once with respect to electric field.
                with respect to dipole field.
          Differentiating once with respect to nuclear coordinates.
          Store integrals in memory, NReq=    15927892.
          There are   1 degrees of freedom in the 1st order CPHF.
   1 vectors were produced by pass  0.
 AX will form   1 AO Fock derivatives at one time.
   1 vectors were produced by pass  1.
   1 vectors were produced by pass  2.
   1 vectors were produced by pass  3.
   1 vectors were produced by pass  4.
   1 vectors were produced by pass  5.
   1 vectors were produced by pass  6.
   1 vectors were produced by pass  7.
   1 vectors were produced by pass  8.
   1 vectors were produced by pass  9.
   1 vectors were produced by pass 10.
   1 vectors were produced by pass 11.
   1 vectors were produced by pass 12.
   1 vectors were produced by pass 13.
   1 vectors were produced by pass 14.
   1 vectors were produced by pass 15.
 Inv2:  IOpt= 1 Iter= 1 AM= 3.49D-16 Conv= 1.00D-12.
 Inverted reduced A of dimension  16 with in-core refinement.
 ***** Axes restored to original set *****
 -------------------------------------------------------------------
 Center     Atomic                   Forces (Hartrees/Bohr)
 Number     Number              X              Y              Z
 -------------------------------------------------------------------
    1          7           0.000278001   -0.000147541    0.000000000
    2          7           0.000147739   -0.000280073    0.000000000
    3          7          -0.000017279    0.000597040    0.000000000
    4          1           0.000076049    0.000070898    0.000000000
    5          7          -0.000546392   -0.000142678    0.000000000
    6          6           0.000090118   -0.000134324    0.000000000
    7          1          -0.000028236    0.000036677    0.000000000
 -------------------------------------------------------------------
 Cartesian Forces:  Max     0.000597040 RMS     0.000208634

 GradGradGradGradGradGradGradGradGradGradGradGradGradGradGradGradGradGrad
 Berny optimization.
 Internal  Forces:  Max     0.000342271 RMS     0.000154322
 Search for a local minimum.
 Step number   6 out of a maximum of  36
 All quantities printed in internal units (Hartrees-Bohrs-Radians)
 Update second derivatives using information from points  1  2  3  4  5
                                                        6
 Trust test= 9.41D-01 RLast= 6.97D-03 DXMaxT set to 4.18D-01
     Eigenvalues ---    0.02505   0.02636   0.02676   0.02835   0.15737
     Eigenvalues ---    0.16084   0.21286   0.34892   0.37542   0.40338
     Eigenvalues ---    0.47889   0.49458   0.55423   0.65177   0.76391
     Eigenvalues --- 1000.000001000.000001000.000001000.000001000.00000
     Eigenvalues --- 1000.000001000.000001000.000001000.000001000.00000
     Eigenvalues --- 1000.00000
 RFO step:  Lambda=-1.24785738D-06.
 Quartic linear search produced a step of -0.05799.
 Iteration  1 RMS(Cart)=  0.00035642 RMS(Int)=  0.00000008
 Iteration  2 RMS(Cart)=  0.00000006 RMS(Int)=  0.00000006
 Variable       Old X    -DE/DX   Delta X   Delta X   Delta X     New X
                                 (Linear)    (Quad)   (Total)
    R1        2.50157   0.00002  -0.00004   0.00004   0.00001   2.50158
    R2        2.57747  -0.00033   0.00024  -0.00114  -0.00090   2.57657
    R3        2.54897  -0.00013   0.00013  -0.00052  -0.00039   2.54858
    R4        1.90858   0.00010   0.00002   0.00011   0.00014   1.90872
    R5        2.54877   0.00033   0.00002   0.00053   0.00055   2.54932
    R6        2.50944   0.00034   0.00006   0.00029   0.00034   2.50978
    R7        2.03188  -0.00004   0.00000  -0.00012  -0.00012   2.03176
    A1        1.93513   0.00013   0.00003   0.00032   0.00035   1.93548
    A2        1.83928   0.00022   0.00006   0.00032   0.00038   1.83966
    A3        2.09343   0.00017   0.00001   0.00050   0.00051   2.09395
    A4        1.91153  -0.00031  -0.00010  -0.00065  -0.00075   1.91078
    A5        2.27822   0.00013   0.00009   0.00015   0.00024   2.27846
    A6        1.85104  -0.00015  -0.00015  -0.00027  -0.00041   1.85063
    A7        1.88780   0.00012   0.00016   0.00027   0.00043   1.88823
    A8        2.18261  -0.00008  -0.00010  -0.00021  -0.00032   2.18229
    A9        2.21278  -0.00003  -0.00006  -0.00006  -0.00012   2.21266
    D1        0.00000   0.00000   0.00000   0.00000   0.00000   0.00000
    D2        0.00000   0.00000   0.00000   0.00000   0.00000   0.00000
    D3        3.14159   0.00000   0.00000   0.00000   0.00000   3.14159
    D4        0.00000   0.00000   0.00000   0.00000   0.00000   0.00000
    D5        0.00000   0.00000   0.00000   0.00000   0.00000   0.00000
    D6        3.14159   0.00000   0.00000   0.00000   0.00000   3.14159
    D7        3.14159   0.00000   0.00000   0.00000   0.00000   3.14159
    D8        0.00000   0.00000   0.00000   0.00000   0.00000   0.00000
    D9        0.00000   0.00000   0.00000   0.00000   0.00000   0.00000
   D10        3.14159   0.00000   0.00000   0.00000   0.00000   3.14159
         Item               Value     Threshold  Converged?
 Maximum Force            0.000342     0.000450     YES
 RMS     Force            0.000154     0.000300     YES
 Maximum Displacement     0.000730     0.001800     YES
 RMS     Displacement     0.000356     0.001200     YES
 Predicted change in Energy=-6.455504D-07
 Optimization completed.
    -- Stationary point found.
                         ----------------------------
                         !   Optimized Parameters   !
                         ! (Angstroms and Degrees)  !
 ------------------------                            -------------------------
 ! Name  Definition              Value          Derivative Info.             !
 -----------------------------------------------------------------------------
 ! R1    R(1,2)                  1.3238         -DE/DX =    0.               !
 ! R2    R(1,5)                  1.3639         -DE/DX =   -0.0003           !
 ! R3    R(2,3)                  1.3489         -DE/DX =   -0.0001           !
 ! R4    R(3,4)                  1.01           -DE/DX =    0.0001           !
 ! R5    R(3,6)                  1.3488         -DE/DX =    0.0003           !
 ! R6    R(5,6)                  1.3279         -DE/DX =    0.0003           !
 ! R7    R(6,7)                  1.0752         -DE/DX =    0.               !
 ! A1    A(2,1,5)              110.8748         -DE/DX =    0.0001           !
 ! A2    A(1,2,3)              105.3831         -DE/DX =    0.0002           !
 ! A3    A(2,3,4)              119.9449         -DE/DX =    0.0002           !
 ! A4    A(2,3,6)              109.5226         -DE/DX =   -0.0003           !
 ! A5    A(4,3,6)              130.5326         -DE/DX =    0.0001           !
 ! A6    A(1,5,6)              106.0569         -DE/DX =   -0.0002           !
 ! A7    A(3,6,5)              108.1627         -DE/DX =    0.0001           !
 ! A8    A(3,6,7)              125.0543         -DE/DX =   -0.0001           !
 ! A9    A(5,6,7)              126.783          -DE/DX =    0.               !
 ! D1    D(5,1,2,3)              0.             -DE/DX =    0.               !
 ! D2    D(2,1,5,6)              0.             -DE/DX =    0.               !
 ! D3    D(1,2,3,4)            180.             -DE/DX =    0.               !
 ! D4    D(1,2,3,6)              0.             -DE/DX =    0.               !
 ! D5    D(2,3,6,5)              0.             -DE/DX =    0.               !
 ! D6    D(2,3,6,7)            180.             -DE/DX =    0.               !
 ! D7    D(4,3,6,5)            180.             -DE/DX =    0.               !
 ! D8    D(4,3,6,7)              0.             -DE/DX =    0.               !
 ! D9    D(1,5,6,3)              0.             -DE/DX =    0.               !
 ! D10   D(1,5,6,7)            180.             -DE/DX =    0.               !
 -----------------------------------------------------------------------------
 GradGradGradGradGradGradGradGradGradGradGradGradGradGradGradGradGradGrad

                          Input orientation:                          
 ---------------------------------------------------------------------
 Center     Atomic     Atomic              Coordinates (Angstroms)
 Number     Number      Type              X           Y           Z
 ---------------------------------------------------------------------
    1          7             0       -1.154335   -0.278928    0.000000
    2          7             0       -0.678062    0.956202    0.000000
    3          7             0        0.664115    0.822143    0.000000
    4          1             0        1.252745    1.642856    0.000000
    5          7             0       -0.140120   -1.190905    0.000000
    6          6             0        0.986265   -0.487570    0.000000
    7          1             0        1.988481   -0.877021    0.000000
 ---------------------------------------------------------------------
                    Distance matrix (angstroms):
[...]
 Approx polarizability:  41.056  -0.337  43.178   0.000   0.000  23.743
 Full mass-weighted force constant matrix:
 Low frequencies ---  -17.5218   -7.1267   -0.0012   -0.0005    0.0003   14.3757
 Low frequencies ---  570.2122  685.2644  715.2526
 Harmonic frequencies (cm**-1), IR intensities (KM/Mole),
 Raman scattering activities (A**4/AMU), Raman depolarization ratios,
 reduced masses (AMU), force constants (mDyne/A) and normal coordinates:
                     1                      2                      3
                    A"                     A"                     A"
 Frequencies --   570.2120               685.2644               715.2525
 Red. masses --     2.5643                 2.0904                 3.9107
 Frc consts  --     0.4912                 0.5783                 1.1787
 IR Inten    --    58.8971                15.7745                17.6350
 Raman Activ --     0.0000                 0.0000                 0.0000
 Depolar     --     0.0000                 0.0000                 0.0000
 Atom AN      X      Y      Z        X      Y      Z        X      Y      Z
   1   7     0.00   0.00   0.02     0.00   0.00   0.10     0.00   0.00   0.31
   2   7     0.00   0.00  -0.13     0.00   0.00   0.03     0.00   0.00  -0.30
   3   7     0.00   0.00   0.28     0.00   0.00  -0.05     0.00   0.00   0.08
   4   1     0.00   0.00  -0.92     0.00   0.00  -0.85     0.00   0.00   0.87
   5   7     0.00   0.00   0.05     0.00   0.00  -0.21     0.00   0.00  -0.17
   6   6     0.00   0.00  -0.16     0.00   0.00   0.18     0.00   0.00   0.03
   7   1     0.00   0.00  -0.17     0.00   0.00   0.43     0.00   0.00  -0.17
                     4                      5                      6
                    A"                     A'                     A'
 Frequencies --   803.1869               962.2601              1005.2281
 Red. masses --     1.2401                 4.9195                 6.3191
 Frc consts  --     0.4713                 2.6838                 3.7621
 IR Inten    --    39.5285                 2.6800                 2.0978
 Raman Activ --     0.0000                 0.0000                 0.0000
 Depolar     --     0.0000                 0.0000                 0.0000
 Atom AN      X      Y      Z        X      Y      Z        X      Y      Z
   1   7     0.00   0.00   0.03     0.04   0.16   0.00     0.15  -0.10   0.00
   2   7     0.00   0.00   0.00    -0.14   0.19   0.00     0.20  -0.06   0.00
   3   7     0.00   0.00   0.00    -0.11  -0.03   0.00     0.00   0.44   0.00
   4   1     0.00   0.00   0.14     0.46   0.00   0.00    -0.06   0.45   0.00
   5   7     0.00   0.00   0.01     0.33  -0.26   0.00    -0.04  -0.20   0.00
   6   6     0.00   0.00  -0.14    -0.14  -0.11   0.00    -0.34  -0.07   0.00
   7   1     0.00   0.00   0.98    -0.37   0.59   0.00    -0.20  -0.57   0.00
                     7                      8                      9
                    A'                     A'                     A'
 Frequencies --  1084.9411              1111.7468              1148.8486
 Red. masses --     4.7766                 4.0039                 2.8326
 Frc consts  --     3.3127                 2.9157                 2.2027
 IR Inten    --    32.1345                10.7969                17.1262
 Raman Activ --     0.0000                 0.0000                 0.0000
 Depolar     --     0.0000                 0.0000                 0.0000
 Atom AN      X      Y      Z        X      Y      Z        X      Y      Z
   1   7     0.41  -0.03   0.00     0.14   0.09   0.00     0.09   0.30   0.00
   2   7    -0.23   0.10   0.00     0.31   0.11   0.00    -0.04  -0.14   0.00
   3   7     0.02  -0.08   0.00    -0.14  -0.19   0.00    -0.09  -0.01   0.00
   4   1     0.79  -0.04   0.00    -0.49  -0.23   0.00    -0.54  -0.03   0.00
   5   7    -0.21   0.06   0.00    -0.17  -0.04   0.00     0.02   0.00   0.00
   6   6    -0.06  -0.03   0.00    -0.10   0.01   0.00     0.05  -0.12   0.00
   7   1     0.01  -0.30   0.00    -0.31   0.61   0.00     0.24  -0.71   0.00
                    10                     11                     12
                    A'                     A'                     A'
 Frequencies --  1196.4535              1273.2149              1491.7878
 Red. masses --     2.9134                 2.8630                 2.3823
 Frc consts  --     2.4572                 2.7345                 3.1236
 IR Inten    --     2.0655                 1.8718                23.7445
 Raman Activ --     0.0000                 0.0000                 0.0000
 Depolar     --     0.0000                 0.0000                 0.0000
 Atom AN      X      Y      Z        X      Y      Z        X      Y      Z
   1   7    -0.04   0.17   0.00    -0.06  -0.04   0.00     0.03  -0.02   0.00
   2   7     0.04  -0.26   0.00     0.12   0.07   0.00    -0.09   0.04   0.00
   3   7     0.14  -0.03   0.00    -0.06  -0.12   0.00     0.21  -0.01   0.00
   4   1     0.73  -0.02   0.00     0.41  -0.11   0.00    -0.85  -0.08   0.00
   5   7    -0.04   0.05   0.00     0.15   0.21   0.00     0.04   0.12   0.00
   6   6    -0.16   0.04   0.00    -0.19  -0.06   0.00    -0.13  -0.16   0.00
   7   1    -0.31   0.46   0.00     0.02  -0.82   0.00    -0.30   0.25   0.00
                    13                     14                     15
                    A'                     A'                     A'
 Frequencies --  1499.6425              3374.4885              3711.3022
 Red. masses --     4.3624                 1.1006                 1.0847
 Frc consts  --     5.7803                 7.3840                 8.8027
 IR Inten    --    12.6826                 3.5534               121.5649
 Raman Activ --     0.0000                 0.0000                 0.0000
 Depolar     --     0.0000                 0.0000                 0.0000
 Atom AN      X      Y      Z        X      Y      Z        X      Y      Z
   1   7     0.00  -0.04   0.00     0.00   0.00   0.00     0.00   0.00   0.00
   2   7     0.05  -0.04   0.00     0.00   0.00   0.00     0.00   0.00   0.00
   3   7    -0.18   0.15   0.00     0.00   0.00   0.00     0.01  -0.08   0.00
   4   1     0.43   0.22   0.00     0.01   0.02   0.00    -0.06   1.00   0.00
   5   7    -0.03   0.20   0.00     0.00   0.00   0.00     0.00   0.00   0.00
   6   6     0.16  -0.40   0.00     0.09   0.03   0.00     0.00   0.00   0.00
   7   1    -0.16   0.68   0.00    -0.95  -0.30   0.00     0.02   0.00   0.00

 -------------------
 - Thermochemistry -
 -------------------
 Temperature   298.150 Kelvin.  Pressure   1.00000 Atm.
 Atom  1 has atomic number  7 and mass  14.00307
 Atom  2 has atomic number  7 and mass  14.00307
 Atom  3 has atomic number  7 and mass  14.00307
 Atom  4 has atomic number  1 and mass   1.00783
 Atom  5 has atomic number  7 and mass  14.00307
 Atom  6 has atomic number  6 and mass  12.00000
 Atom  7 has atomic number  1 and mass   1.00783
 Molecular mass:    70.02795 amu.
 Principal axes and moments of inertia in atomic units:
                           1         2         3
     EIGENVALUES --   173.67127 176.99557 350.66683
           X           -0.69068   0.72316   0.00000
           Y            0.72316   0.69068   0.00000
           Z            0.00000   0.00000   1.00000
 THIS MOLECULE IS AN ASYMMETRIC TOP.
 ROTATIONAL SYMMETRY NUMBER  1.
 ROTATIONAL TEMPERATURES (KELVIN)      0.49872     0.48935     0.24700
 ROTATIONAL CONSTANTS (GHZ)           10.39171    10.19653     5.14660
 Zero-point vibrational energy     123417.7 (Joules/Mol)
                                   29.49754 (Kcal/Mol)
 WARNING-- EXPLICIT CONSIDERATION OF   1 DEGREES OF FREEDOM AS
           VIBRATIONS MAY CAUSE SIGNIFICANT ERROR
 VIBRATIONAL TEMPERATURES:    820.40   985.94  1029.08  1155.60  1384.47
          (KELVIN)           1446.29  1560.98  1599.55  1652.93  1721.42
                             1831.86  2146.34  2157.64  4855.11  5339.71
 
 Zero-point correction=                           0.047007 (Hartree/Particle)
 Thermal correction to Energy=                    0.050509
 Thermal correction to Enthalpy=                  0.051453
 Thermal correction to Gibbs Free Energy=         0.020881
 Sum of electronic and zero-point Energies=           -257.522049
 Sum of electronic and thermal Energies=              -257.518548
 Sum of electronic and thermal Enthalpies=            -257.517604
 Sum of electronic and thermal Free Energies=         -257.548175
 
                     E (Thermal)             CV                S
                      KCAL/MOL        CAL/MOL-KELVIN    CAL/MOL-KELVIN
 TOTAL                   31.695             11.478             64.344
 ELECTRONIC               0.000              0.000              0.000
 TRANSLATIONAL            0.889              2.981             38.656
 ROTATIONAL               0.889              2.981             23.893
 VIBRATIONAL             29.917              5.516              1.795
 VIBRATION  1             0.926              1.096              0.504
                       Q            LOG10(Q)             LN(Q)
 TOTAL BOT       0.248492D-09         -9.604688        -22.115611
 TOTAL V=0       0.104001D+13         12.017036         27.670248
 VIB (BOT)       0.290270D-21        -21.537197        -49.591229
 VIB (BOT)  1    0.269854D+00         -0.568870         -1.309872
 VIB (V=0)       0.121486D+01          0.084527          0.194630
 VIB (V=0)  1    0.106817D+01          0.028642          0.065950
 ELECTRONIC      0.100000D+01          0.000000          0.000000
 TRANSLATIONAL   0.230339D+08          7.362368         16.952478
 ROTATIONAL      0.371657D+05          4.570142         10.523141
 ***** Axes restored to original set *****
 -------------------------------------------------------------------
 Center     Atomic                   Forces (Hartrees/Bohr)
 Number     Number              X              Y              Z
 -------------------------------------------------------------------
    1          7           0.000277989   -0.000147553    0.000000000
    2          7           0.000147752   -0.000280070    0.000000000
    3          7          -0.000017274    0.000597036    0.000000000
    4          1           0.000076044    0.000070894    0.000000000
    5          7          -0.000546389   -0.000142672    0.000000000
    6          6           0.000090118   -0.000134314    0.000000000
    7          1          -0.000028240    0.000036678    0.000000000
 -------------------------------------------------------------------
 Cartesian Forces:  Max     0.000597036 RMS     0.000208633

 GradGradGradGradGradGradGradGradGradGradGradGradGradGradGradGradGradGrad
 Berny optimization.
 Internal  Forces:  Max     0.000342271 RMS     0.000154321
 Search for a local minimum.
 Step number   1 out of a maximum of  36
 All quantities printed in internal units (Hartrees-Bohrs-Radians)
 Second derivative matrix not updated -- analytic derivatives used.
     Eigenvalues ---    0.00801   0.02379   0.06595   0.07441   0.10367
     Eigenvalues ---    0.10853   0.20435   0.28529   0.34510   0.36948
     Eigenvalues ---    0.40065   0.47688   0.49315   0.54703   0.61032
     Eigenvalues --- 1000.000001000.000001000.000001000.000001000.00000
     Eigenvalues --- 1000.000001000.000001000.000001000.000001000.00000
     Eigenvalues --- 1000.00000
 Angle between quadratic step and forces=  16.00 degrees.
 Linear search not attempted -- first point.
 Iteration  1 RMS(Cart)=  0.00033525 RMS(Int)=  0.00000008
 Iteration  2 RMS(Cart)=  0.00000006 RMS(Int)=  0.00000004
 Variable       Old X    -DE/DX   Delta X   Delta X   Delta X     New X
                                 (Linear)    (Quad)   (Total)
    R1        2.50157   0.00002   0.00000  -0.00015  -0.00015   2.50142
    R2        2.57747  -0.00033   0.00000  -0.00091  -0.00091   2.57657
    R3        2.54897  -0.00013   0.00000  -0.00019  -0.00019   2.54878
    R4        1.90858   0.00010   0.00000   0.00019   0.00019   1.90877
    R5        2.54877   0.00033   0.00000   0.00075   0.00075   2.54952
    R6        2.50944   0.00034   0.00000   0.00058   0.00058   2.51003
    R7        2.03188  -0.00004   0.00000  -0.00009  -0.00009   2.03179
    A1        1.93513   0.00013   0.00000   0.00033   0.00033   1.93546
    A2        1.83928   0.00022   0.00000   0.00045   0.00045   1.83973
    A3        2.09343   0.00017   0.00000   0.00057   0.00057   2.09400
    A4        1.91153  -0.00031   0.00000  -0.00073  -0.00073   1.91080
    A5        2.27822   0.00013   0.00000   0.00016   0.00016   2.27838
    A6        1.85104  -0.00015   0.00000  -0.00025  -0.00025   1.85079
    A7        1.88780   0.00012   0.00000   0.00020   0.00020   1.88800
    A8        2.18261  -0.00008   0.00000  -0.00033  -0.00033   2.18228
    A9        2.21278  -0.00003   0.00000   0.00013   0.00013   2.21291
    D1        0.00000   0.00000   0.00000   0.00000   0.00000   0.00000
    D2        0.00000   0.00000   0.00000   0.00000   0.00000   0.00000
    D3        3.14159   0.00000   0.00000   0.00000   0.00000   3.14159
    D4        0.00000   0.00000   0.00000   0.00000   0.00000   0.00000
    D5        0.00000   0.00000   0.00000   0.00000   0.00000   0.00000
    D6        3.14159   0.00000   0.00000   0.00000   0.00000   3.14159
    D7        3.14159   0.00000   0.00000   0.00000   0.00000   3.14159
    D8        0.00000   0.00000   0.00000   0.00000   0.00000   0.00000
    D9        0.00000   0.00000   0.00000   0.00000   0.00000   0.00000
   D10        3.14159   0.00000   0.00000   0.00000   0.00000   3.14159
         Item               Value     Threshold  Converged?
 Maximum Force            0.000342     0.000450     YES
 RMS     Force            0.000154     0.000300     YES
 Maximum Displacement     0.000783     0.001800     YES
 RMS     Displacement     0.000335     0.001200     YES
 Predicted change in Energy=-6.817068D-07
 Optimization completed.
    -- Stationary point found.
                         ----------------------------
                         !   Optimized Parameters   !
                         ! (Angstroms and Degrees)  !
 ------------------------                            -------------------------
 ! Name  Definition              Value          Derivative Info.             !
 -----------------------------------------------------------------------------
 ! R1    R(1,2)                  1.3238         -DE/DX =    0.               !
 ! R2    R(1,5)                  1.3639         -DE/DX =   -0.0003           !
 ! R3    R(2,3)                  1.3489         -DE/DX =   -0.0001           !
 ! R4    R(3,4)                  1.01           -DE/DX =    0.0001           !
 ! R5    R(3,6)                  1.3488         -DE/DX =    0.0003           !
 ! R6    R(5,6)                  1.3279         -DE/DX =    0.0003           !
 ! R7    R(6,7)                  1.0752         -DE/DX =    0.               !
 ! A1    A(2,1,5)              110.8748         -DE/DX =    0.0001           !
 ! A2    A(1,2,3)              105.3831         -DE/DX =    0.0002           !
 ! A3    A(2,3,4)              119.9449         -DE/DX =    0.0002           !
 ! A4    A(2,3,6)              109.5226         -DE/DX =   -0.0003           !
 ! A5    A(4,3,6)              130.5326         -DE/DX =    0.0001           !
 ! A6    A(1,5,6)              106.0569         -DE/DX =   -0.0002           !
 ! A7    A(3,6,5)              108.1627         -DE/DX =    0.0001           !
 ! A8    A(3,6,7)              125.0543         -DE/DX =   -0.0001           !
 ! A9    A(5,6,7)              126.783          -DE/DX =    0.               !
 ! D1    D(5,1,2,3)              0.             -DE/DX =    0.               !
 ! D2    D(2,1,5,6)              0.             -DE/DX =    0.               !
 ! D3    D(1,2,3,4)            180.             -DE/DX =    0.               !
 ! D4    D(1,2,3,6)              0.             -DE/DX =    0.               !
 ! D5    D(2,3,6,5)              0.             -DE/DX =    0.               !
 ! D6    D(2,3,6,7)            180.             -DE/DX =    0.               !
 ! D7    D(4,3,6,5)            180.             -DE/DX =    0.               !
 ! D8    D(4,3,6,7)              0.             -DE/DX =    0.               !
 ! D9    D(1,5,6,3)              0.             -DE/DX =    0.               !
 ! D10   D(1,5,6,7)            180.             -DE/DX =    0.               !
 -----------------------------------------------------------------------------
 GradGradGradGradGradGradGradGradGradGradGradGradGradGradGradGradGradGrad

 1\1\GINC-AURUM\Freq\RMP2-FC\6-31+G(d,p)\C1H2N4\RDJ3\25-Apr-2000\0\\#N 
 GEOM=ALLCHECK GUESS=TCHECK RMP2(FC)/6-31+G(D,P) FREQ\\1H tetrazole c C
 H-NH-N=N-N= casno=288948\\0,1\N,-1.1543353048,-0.2789280797,0.\N,-0.67
 80619603,0.9562022218,0.\N,0.6641151333,0.8221434454,0.\H,1.2527449705
 ,1.6428563692,0.\N,-0.1401198933,-1.1909051452,0.\C,0.9862646689,-0.48
 75704112,0.\H,1.9884811917,-0.8770209982,0.\\Version=IBM-RS6000-G98Rev
 A.4\State=1-A'\HF=-256.7578236\MP2=-257.5690568\RMSD=8.131e-10\RMSF=2.
 086e-04\Dipole=2.0760945,0.8837671,0.\DipoleDeriv=-0.0197894,-0.063686
 7,0.,-0.238864,0.0940516,0.,0.,0.,-0.185215,0.2883457,0.0705223,0.,0.2
 508628,-0.2945502,0.,0.,0.,-0.0990776,-0.4018267,-0.2106704,0.,-0.2351
 887,-0.3342751,0.,0.,0.,-0.1156408,0.239708,0.0587143,0.,0.0471286,0.2
 912336,0.,0.,0.,0.3486352,-0.3096465,0.0881126,0.,0.0559454,-0.3467533
 ,0.,0.,0.,-0.189535,0.1334099,0.0600641,0.,0.1197086,0.4797732,0.,0.,0
 .,0.0476556,0.069799,-0.0030561,0.,0.0004073,0.1105203,0.,0.,0.,0.1931
 776\Polar=44.1905496,-0.4916547,42.4963185,0.,0.,24.1616339\PG=CS [SG(
 C1H2N4)]\NImag=0\\0.52541614,0.04732028,0.41536668,0.,0.,0.11443222,-0
 .12944811,-0.10714380,0.,0.46983180,-0.00929868,-0.23821935,0.,-0.0497
 6799,0.50349836,0.,0.,-0.08785470,0.,0.,0.10462036,-0.09434397,-0.0874
 7625,0.,-0.26390526,0.01752605,0.,0.69800895,-0.03951582,-0.05554505,0
 .,0.07125929,-0.12172015,0.,0.18319996,0.95025422,0.,0.,0.02224466,0.,
 0.,-0.06084892,0.,0.,0.08248236,-0.01028148,-0.00048789,0.,-0.00714942
 ,-0.03316964,0.,-0.20233172,-0.18755319,0.,0.20544483,0.00800237,0.002
 24329,0.,0.00619746,0.01101979,0.,-0.19640672,-0.34758630,0.,0.2031680
 7,0.34240778,0.,0.,0.00850004,0.,0.,-0.01258570,0.,0.,-0.00724334,0.,0
 .,0.01460365,-0.17818277,0.09102592,0.,-0.00256650,0.06713407,0.,-0.01
 335262,-0.09026622,0.,-0.00006372,-0.00027259,0.,0.49780016,0.01640458
 ,-0.13447739,0.,-0.00081603,-0.11099385,0.,-0.00997272,-0.07308773,0.,
 0.00902325,-0.00560666,0.,0.09572327,0.50829888,0.,0.,-0.08414863,0.,0
 .,0.03314805,0.,0.,0.01706599,0.,0.,0.00768532,0.,0.,0.10171047,-0.110
 27473,0.05668921,0.,-0.06656146,0.01207496,0.,-0.13008742,0.06733329,0
 .,0.01481464,-0.02115129,0.,-0.29046840,-0.12223950,0.,0.92470460,-0.0
 1599173,0.01255690,0.,0.07988322,-0.03743242,0.,0.06135786,-0.34750891
 ,0.,0.00919306,-0.00227265,0.,-0.14520855,-0.19874203,0.,-0.10309040,0
 .67411644,0.,0.,0.01814076,0.,0.,0.01646522,0.,0.,-0.04779215,0.,0.,-0
 .01060060,0.,0.,-0.06882060,0.,0.,0.11645640,-0.00288508,0.00007252,0.
 ,-0.00020106,-0.00449877,0.,0.00601204,-0.00445731,0.,-0.00043312,0.00
 046269,0.,-0.01316615,0.01187714,0.,-0.34212723,0.11385654,0.,0.352800
 60,-0.00692101,-0.00192508,0.,0.00038784,-0.00615237,0.,0.03177182,-0.
 00480607,0.,-0.00017367,-0.00020525,0.,-0.01813591,0.01460878,0.,0.110
 38374,-0.10071732,0.,-0.11731282,0.09919731,0.,0.,0.00868564,0.,0.,0.0
 0705569,0.,0.,-0.00590860,0.,0.,-0.00035937,0.,0.,-0.00664059,0.,0.,-0
 .02384904,0.,0.,0.02101627\\-0.00027799,0.00014755,0.,-0.00014775,0.00
 028007,0.,0.00001727,-0.00059704,0.,-0.00007604,-0.00007089,0.,0.00054
 639,0.00014267,0.,-0.00009012,0.00013431,0.,0.00002824,-0.00003668,0.\
 \\@


 THERE IS MUCH PLEASURE TO BE GAINED FROM USELESS KNOWLEDGE

                                       -- BERTRAND RUSSELL
 Job cpu time:  0 days  0 hours 50 minutes 21.7 seconds.
 File lengths (MBytes):  RWF=  784 Int=    0 D2E=    0 Chk=    3 Scr=    1
 Normal termination of Gaussian 98.
