 Entering Gaussian System, Link 0=g03
 Initial command:
 /usr/local/apps/g03b05/g03/l1.exe /wrk/rdj3/Gau-19930.inp -scrdir=/wrk/rdj3/
 Entering Link 1 = /usr/local/apps/g03b05/g03/l1.exe PID=     15654.
  
 Copyright (c) 1988,1990,1992,1993,1995,1998,2003, Gaussian, Inc.
                  All Rights Reserved.
  
 This is the Gaussian(R) 03 program.  It is based on the
 the Gaussian(R) 98 system (copyright 1998, Gaussian, Inc.),
 the Gaussian(R) 94 system (copyright 1995, Gaussian, Inc.),
 the Gaussian 92(TM) system (copyright 1992, Gaussian, Inc.),
 the Gaussian 90(TM) system (copyright 1990, Gaussian, Inc.),
 the Gaussian 88(TM) system (copyright 1988, Gaussian, Inc.),
 the Gaussian 86(TM) system (copyright 1986, Carnegie Mellon
 University), and the Gaussian 82(TM) system (copyright 1983,
 Carnegie Mellon University). Gaussian is a federally registered
 trademark of Gaussian, Inc.
  
 This software contains proprietary and confidential information,
 including trade secrets, belonging to Gaussian, Inc.
  
 This software is provided under written license and may be
 used, copied, transmitted, or stored only in accord with that
 written license.
  
 The following legend is applicable only to US Government
 contracts under DFARS:
  
                    RESTRICTED RIGHTS LEGEND
  
 Use, duplication or disclosure by the US Government is subject
 to restrictions as set forth in subparagraph (c)(1)(ii) of the
 Rights in Technical Data and Computer Software clause at DFARS
 252.227-7013.
  
 Gaussian, Inc.
 Carnegie Office Park, Building 6, Pittsburgh, PA 15106 USA
  
 The following legend is applicable only to US Government
 contracts under FAR:
  
                    RESTRICTED RIGHTS LEGEND
  
 Use, reproduction and disclosure by the US Government is subject
 to restrictions as set forth in subparagraph (c) of the
 Commercial Computer Software - Restricted Rights clause at FAR
 52.227-19.
  
 Gaussian, Inc.
 Carnegie Office Park, Building 6, Pittsburgh, PA 15106 USA
  
  
 ---------------------------------------------------------------
 Warning -- This program may not be used in any manner that
 competes with the business of Gaussian, Inc. or will provide
 assistance to any competitor of Gaussian, Inc.  The licensee
 of this program is prohibited from giving any competitor of
 Gaussian, Inc. access to this program.  By using this program,
 the user acknowledges that Gaussian, Inc. is engaged in the
 business of creating and licensing software in the field of
 computational chemistry and represents and warrants to the
 licensee that it is not a competitor of Gaussian, Inc. and that
 it will not use this program in any manner prohibited above.
 ---------------------------------------------------------------
  

 Cite this work as:
 Gaussian 03, Revision B.05,
 M. J. Frisch, G. W. Trucks, H. B. Schlegel, G. E. Scuseria, 
 M. A. Robb, J. R. Cheeseman, J. A. Montgomery, Jr., T. Vreven, 
 K. N. Kudin, J. C. Burant, J. M. Millam, S. S. Iyengar, J. Tomasi, 
 V. Barone, B. Mennucci, M. Cossi, G. Scalmani, N. Rega, 
 G. A. Petersson, H. Nakatsuji, M. Hada, M. Ehara, K. Toyota, 
 R. Fukuda, J. Hasegawa, M. Ishida, T. Nakajima, Y. Honda, O. Kitao, 
 H. Nakai, M. Klene, X. Li, J. E. Knox, H. P. Hratchian, J. B. Cross, 
 C. Adamo, J. Jaramillo, R. Gomperts, R. E. Stratmann, O. Yazyev, 
 A. J. Austin, R. Cammi, C. Pomelli, J. W. Ochterski, P. Y. Ayala, 
 K. Morokuma, G. A. Voth, P. Salvador, J. J. Dannenberg, 
 V. G. Zakrzewski, S. Dapprich, A. D. Daniels, M. C. Strain, 
 O. Farkas, D. K. Malick, A. D. Rabuck, K. Raghavachari, 
 J. B. Foresman, J. V. Ortiz, Q. Cui, A. G. Baboul, S. Clifford, 
 J. Cioslowski, B. B. Stefanov, G. Liu, A. Liashenko, P. Piskorz, 
 I. Komaromi, R. L. Martin, D. J. Fox, T. Keith, M. A. Al-Laham, 
 C. Y. Peng, A. Nanayakkara, M. Challacombe, P. M. W. Gill, 
 B. Johnson, W. Chen, M. W. Wong, C. Gonzalez, and J. A. Pople, 
 Gaussian, Inc., Pittsburgh PA, 2003.
 
 *************************************************
 Gaussian 03:  IBM64-RS6000-G03RevB.05  8-Nov-2003
                    13-Jul-2006 
 *************************************************
 %mem=24000000
 ---------------------------
 #MP2/cc-pVTZ opt freq=numer
 ---------------------------
 1/18=20,38=1/1,3;
 2/9=110,17=6,18=5,40=1/2;
 3/5=16,6=1,11=9,16=1,25=1,30=1/1,2,3;
 4//1;
 5/5=2,38=5/2;
 8/6=4,10=1/1;
 9/15=2,16=-3/6;
 10/5=1/2;
 6/7=2,8=2,9=2,10=2/1;
 7/12=2/1,2,3,16;
 1/18=20/3(1);
 99//99;
 2/9=110/2;
 3/5=16,6=1,11=9,16=1,25=1,30=1/1,2,3;
 4/5=5,16=3/1;
 5/5=2,38=5/2;
 8/6=4,10=1/1;
 9/15=2,16=-3/6;
 10/5=1/2;
 7/12=2/1,2,3,16;
 1/18=20/3(-8);
 2/9=110/2;
 6/7=2,8=2,9=2,10=2/1;
 99//99;
 ---------------------------------------------------------
 1H tetrazole c CH-NH-N=N-N= casno=288948 method=3 basis=6
 ---------------------------------------------------------
 Symbolic Z-matrix:
 Charge =  0 Multiplicity = 1
 7                    -1.12329  -0.25456   0. 
 7                    -0.67158   0.91328   0. 
 7                     0.65055   0.80984   0. 
 1                     1.224     1.62189   0. 
 7                    -0.13465  -1.16105   0. 
 6                     0.96218  -0.48332   0. 
 1                     1.95569  -0.87453   0. 
 

 GradGradGradGradGradGradGradGradGradGradGradGradGradGradGradGradGradGrad
 Berny optimization.
 Initialization pass.
                           ----------------------------
                           !    Initial Parameters    !
                           ! (Angstroms and Degrees)  !
 --------------------------                            --------------------------
 ! Name  Definition              Value          Derivative Info.                !
 --------------------------------------------------------------------------------
 ! R1    R(1,2)                  1.2522         estimate D2E/DX2                !
 ! R2    R(1,5)                  1.3413         estimate D2E/DX2                !
 ! R3    R(2,3)                  1.3262         estimate D2E/DX2                !
 ! R4    R(3,4)                  0.9941         estimate D2E/DX2                !
 ! R5    R(3,6)                  1.3302         estimate D2E/DX2                !
 ! R6    R(5,6)                  1.2893         estimate D2E/DX2                !
 ! R7    R(6,7)                  1.0678         estimate D2E/DX2                !
 ! A1    A(2,1,5)              111.3714         estimate D2E/DX2                !
 ! A2    A(1,2,3)              106.673          estimate D2E/DX2                !
 ! A3    A(2,3,4)              120.7559         estimate D2E/DX2                !
 ! A4    A(2,3,6)              108.0227         estimate D2E/DX2                !
 ! A5    A(4,3,6)              131.2214         estimate D2E/DX2                !
 ! A6    A(1,5,6)              105.77           estimate D2E/DX2                !
 ! A7    A(3,6,5)              108.1628         estimate D2E/DX2                !
 ! A8    A(3,6,7)              125.0426         estimate D2E/DX2                !
 ! A9    A(5,6,7)              126.7945         estimate D2E/DX2                !
 ! D1    D(5,1,2,3)              0.0            estimate D2E/DX2                !
 ! D2    D(2,1,5,6)              0.0            estimate D2E/DX2                !
 ! D3    D(1,2,3,4)            180.0            estimate D2E/DX2                !
 ! D4    D(1,2,3,6)              0.0            estimate D2E/DX2                !
 ! D5    D(2,3,6,5)              0.0            estimate D2E/DX2                !
 ! D6    D(2,3,6,7)            180.0            estimate D2E/DX2                !
 ! D7    D(4,3,6,5)            180.0            estimate D2E/DX2                !
 ! D8    D(4,3,6,7)              0.0            estimate D2E/DX2                !
 ! D9    D(1,5,6,3)              0.0            estimate D2E/DX2                !
 ! D10   D(1,5,6,7)            180.0            estimate D2E/DX2                !
 --------------------------------------------------------------------------------
 Trust Radius=3.00D-01 FncErr=1.00D-07 GrdErr=1.00D-07
 Number of steps in this run=  36 maximum allowed number of steps= 100.
 GradGradGradGradGradGradGradGradGradGradGradGradGradGradGradGradGradGrad

                          Input orientation:                          
 ---------------------------------------------------------------------
 Center     Atomic     Atomic              Coordinates (Angstroms)
 Number     Number      Type              X           Y           Z
 ---------------------------------------------------------------------
    1          7             0       -1.123293    -.254560     .000000
    2          7             0        -.671576     .913277     .000000
    3          7             0         .650545     .809842     .000000
    4          1             0        1.224004    1.621891     .000000
    5          7             0        -.134646   -1.161053     .000000
    6          6             0         .962183    -.483316     .000000
    7          1             0        1.955691    -.874535     .000000
 ---------------------------------------------------------------------
                    Distance matrix (angstroms):
                    1          2          3          4          5
     1  N     .000000
     2  N    1.252155    .000000
     3  N    2.068684   1.326161    .000000
     4  H    3.005141   2.023699    .994122    .000000
     5  N    1.341325   2.142694   2.121545   3.096887    .000000
     6  C    2.097985   2.149335   1.330179   2.121426   1.289326
     7  H    3.140782   3.177861   2.130852   2.601444   2.109882
                    6          7
     6  C     .000000
     7  H    1.067760    .000000
 Stoichiometry    CH2N4
 Framework group  CS[SG(CH2N4)]
 Deg. of freedom    11
 Full point group                 CS      NOp   2
 Largest Abelian subgroup         CS      NOp   2
 Largest concise Abelian subgroup C1      NOp   1
                         Standard orientation:                         
 ---------------------------------------------------------------------
 Center     Atomic     Atomic              Coordinates (Angstroms)
 Number     Number      Type              X           Y           Z
 ---------------------------------------------------------------------
    1          7             0        -.716312    -.901934     .000000
    2          7             0       -1.095520     .291420     .000000
    3          7             0         .000000    1.038775     .000000
    4          1             0        -.061479    2.030994     .000000
    5          7             0         .622151    -.989495     .000000
    6          6             0        1.052813     .225779     .000000
    7          1             0        2.072370     .542976     .000000
 ---------------------------------------------------------------------
 Rotational constants (GHZ):     10.9198664     10.7343935      5.4131678
 Standard basis: CC-pVTZ (5D, 7F)
 There are   120 symmetry adapted basis functions of A'  symmetry.
 There are    58 symmetry adapted basis functions of A"  symmetry.
 Integral buffers will be    131072 words long.
 Raffenetti 1 integral format.
 Two-electron integral symmetry is turned on.
   178 basis functions,   299 primitive gaussians,   205 cartesian basis functions
    18 alpha electrons       18 beta electrons
       nuclear repulsion energy       169.8288291610 Hartrees.
 NAtoms=    7 NActive=    7 NUniq=    7 SFac= 1.00D+00 NAtFMM=   60 Big=F
 One-electron integrals computed using PRISM.
 NBasis=   178 RedAO= T  NBF=   120    58
 NBsUse=   178 1.00D-06 NBFU=   120    58
 Harris functional with IExCor=  205 diagonalized for initial guess.
 ExpMin= 1.03D-01 ExpMax= 1.14D+04 ExpMxC= 3.89D+02 IAcc=1 IRadAn=         1 AccDes= 1.00D-06
 HarFok:  IExCor= 205 AccDes= 1.00D-06 IRadAn=         1 IDoV=1
 ScaDFX=  1.000000  1.000000  1.000000  1.000000
 Initial guess orbital symmetries:
       Occupied  (A') (A') (A') (A') (A') (A') (A') (A') (A') (A')
                 (A') (A') (A") (A') (A") (A') (A") (A')
       Virtual   (A") (A") (A') (A') (A') (A') (A') (A') (A") (A')
                 (A') (A') (A') (A') (A') (A") (A') (A") (A') (A')
                 (A') (A") (A") (A') (A") (A') (A') (A') (A") (A')
                 (A") (A') (A') (A") (A') (A') (A") (A') (A') (A')
                 (A") (A") (A') (A") (A') (A') (A') (A") (A') (A')
                 (A') (A') (A') (A") (A") (A') (A") (A') (A') (A')
                 (A") (A') (A') (A') (A') (A') (A") (A") (A') (A")
                 (A') (A") (A") (A') (A") (A') (A") (A') (A') (A')
                 (A") (A') (A') (A") (A') (A') (A") (A') (A") (A")
                 (A") (A') (A') (A") (A') (A') (A') (A") (A') (A")
                 (A') (A') (A') (A") (A") (A') (A') (A') (A') (A')
                 (A') (A") (A') (A') (A") (A') (A") (A') (A") (A")
                 (A') (A") (A') (A") (A') (A") (A") (A') (A') (A')
                 (A") (A') (A") (A") (A') (A") (A') (A') (A') (A')
                 (A") (A') (A") (A') (A') (A") (A') (A') (A") (A')
                 (A') (A') (A') (A') (A') (A') (A') (A') (A') (A')
 The electronic state of the initial guess is 1-A'.
 Requested convergence on RMS density matrix=1.00D-08 within 128 cycles.
 Requested convergence on MAX density matrix=1.00D-06.
 Requested convergence on             energy=1.00D-06.
 No special actions if energy rises.
 Integral accuracy reduced to 1.0D-05 until final iterations.
 Initial convergence to 1.0D-05 achieved.  Increase integral accuracy.
 SCF Done:  E(RHF) =  -256.848464353     A.U. after   15 cycles
             Convg  =     .8756D-08             -V/T =  2.0006
             S**2   =    .0000
 ExpMin= 1.03D-01 ExpMax= 1.14D+04 ExpMxC= 3.89D+02 IAcc=1 IRadAn=         1 AccDes= 1.00D-06
 HarFok:  IExCor= 205 AccDes= 1.00D-06 IRadAn=         1 IDoV=1
 ScaDFX=  1.000000  1.000000  1.000000  1.000000
 Range of M.O.s used for correlation:     6   178
 NBasis=   178 NAE=    18 NBE=    18 NFC=     5 NFV=     0
 NROrb=    173 NOA=    13 NOB=    13 NVA=   160 NVB=   160

 **** Warning!!: The largest alpha MO coefficient is   .11232735D+02

 Disk-based method using ON**2 memory for 13 occupieds at a time.
 Estimated scratch disk usage=   214966752 words.
 Actual    scratch disk usage=   199492576 words.
 JobTyp=1 Pass  1:  I=   6 to  18 NPSUse=  1 ParTrn=F ParDer=F DoDerP=T.
 Spin components of T(2) and E(2):
     alpha-alpha T2 =        .4025960165D-01 E2=      -.1271582638D+00
     alpha-beta  T2 =        .2046494263D+00 E2=      -.6973530925D+00
     beta-beta   T2 =        .4025960165D-01 E2=      -.1271582638D+00
 ANorm=     .1133652782D+01
 E2 =     -.9516696202D+00 EUMP2 =     -.25780013397283D+03
          Differentiating once with respect to electric field.
                with respect to dipole field.
          Differentiating once with respect to nuclear coordinates.
          There are   1 degrees of freedom in the 1st order CPHF.
 Petite list used in FoFDir.
 MinBra= 0 MaxBra= 3 Meth= 1.
 IRaf=       0 NMat=   1 IRICut=       1 DoRegI=T DoRafI=F ISym2E= 1 JSym2E=1.
     1 vectors were produced by pass  0.
 AX will form   1 AO Fock derivatives at one time.
     1 vectors were produced by pass  1.
     1 vectors were produced by pass  2.
     1 vectors were produced by pass  3.
     1 vectors were produced by pass  4.
     1 vectors were produced by pass  5.
     1 vectors were produced by pass  6.
     1 vectors were produced by pass  7.
     1 vectors were produced by pass  8.
     1 vectors were produced by pass  9.
     1 vectors were produced by pass 10.
     1 vectors were produced by pass 11.
     1 vectors were produced by pass 12.
     1 vectors were produced by pass 13.
     1 vectors were produced by pass 14.
     1 vectors were produced by pass 15.
 Inv2:  IOpt= 1 Iter= 1 AM= 6.81D-16 Conv= 1.00D-12.
 Inverted reduced A of dimension   16 with in-core refinement.
 End of Minotr Frequency-dependent properties file   721 does not exist.

 **********************************************************************

            Population analysis using the SCF density.

 **********************************************************************

 Orbital symmetries:
       Occupied  (A') (A') (A') (A') (A') (A') (A') (A') (A') (A')
                 (A') (A") (A') (A') (A') (A') (A") (A")
       Virtual   (A') (A") (A') (A") (A') (A') (A') (A') (A") (A')
                 (A') (A') (A') (A') (A') (A") (A') (A") (A') (A')
                 (A") (A") (A') (A") (A') (A') (A') (A") (A') (A')
                 (A") (A') (A') (A") (A') (A') (A') (A") (A') (A')
                 (A") (A") (A') (A') (A") (A') (A') (A") (A') (A')
                 (A') (A') (A") (A') (A") (A') (A") (A') (A') (A')
                 (A") (A') (A') (A') (A') (A') (A") (A") (A') (A")
                 (A") (A') (A") (A') (A') (A") (A') (A") (A') (A')
                 (A") (A') (A') (A") (A') (A") (A') (A') (A") (A")
                 (A') (A") (A') (A") (A') (A') (A") (A") (A') (A')
                 (A') (A") (A') (A") (A') (A') (A') (A') (A') (A')
                 (A") (A') (A') (A') (A") (A') (A") (A') (A") (A')
                 (A") (A') (A") (A") (A') (A") (A') (A") (A') (A")
                 (A') (A') (A") (A") (A") (A') (A') (A') (A') (A")
                 (A') (A') (A") (A') (A") (A') (A') (A') (A") (A')
                 (A') (A') (A') (A') (A') (A') (A') (A') (A') (A')
 The electronic state is 1-A'.
 Alpha  occ. eigenvalues --  -15.67590 -15.65438 -15.63634 -15.59423 -11.32865
 Alpha  occ. eigenvalues --   -1.51763  -1.26418  -1.20729   -.91275   -.89511
 Alpha  occ. eigenvalues --    -.80816   -.68991   -.68285   -.57316   -.47592
 Alpha  occ. eigenvalues --    -.46529   -.45890   -.42448
 Alpha virt. eigenvalues --     .11729    .14189    .15907    .18972    .27080
 Alpha virt. eigenvalues --     .29295    .36190    .42114    .42215    .48125
 Alpha virt. eigenvalues --     .51759    .56067    .56685    .57785    .59480
 Alpha virt. eigenvalues --     .60967    .63838    .64038    .68540    .72010
 Alpha virt. eigenvalues --     .73108    .76529    .77621    .80250    .80715
 Alpha virt. eigenvalues --     .86062    .88315    .94911    .96260    .98913
 Alpha virt. eigenvalues --    1.00565   1.01506   1.10765   1.11037   1.17558
 Alpha virt. eigenvalues --    1.18870   1.21018   1.25125   1.34715   1.44433
 Alpha virt. eigenvalues --    1.46266   1.52650   1.55400   1.60316   1.62395
 Alpha virt. eigenvalues --    1.64534   1.69017   1.75290   1.77837   1.83029
 Alpha virt. eigenvalues --    1.87167   1.89979   1.92071   1.92163   1.99826
 Alpha virt. eigenvalues --    2.02805   2.17626   2.18763   2.19965   2.27042
 Alpha virt. eigenvalues --    2.39781   2.39867   2.56222   2.70230   2.76228
 Alpha virt. eigenvalues --    2.89033   2.99403   3.04892   3.08503   3.14816
 Alpha virt. eigenvalues --    3.18077   3.19471   3.21105   3.24227   3.29973
 Alpha virt. eigenvalues --    3.31974   3.39644   3.40590   3.46462   3.50977
 Alpha virt. eigenvalues --    3.51426   3.57065   3.60547   3.65341   3.70788
 Alpha virt. eigenvalues --    3.72190   3.75431   3.80797   3.81301   3.85777
 Alpha virt. eigenvalues --    3.89931   3.91307   3.95227   3.95625   3.98442
 Alpha virt. eigenvalues --    4.07373   4.09833   4.10610   4.11145   4.21709
 Alpha virt. eigenvalues --    4.26434   4.26826   4.29881   4.31133   4.36988
 Alpha virt. eigenvalues --    4.39404   4.43690   4.51578   4.59057   4.70580
 Alpha virt. eigenvalues --    4.73589   4.74502   4.83689   4.86896   4.90100
 Alpha virt. eigenvalues --    4.90704   5.00397   5.02152   5.07587   5.09479
 Alpha virt. eigenvalues --    5.11093   5.17010   5.18413   5.21733   5.26470
 Alpha virt. eigenvalues --    5.28007   5.29193   5.29665   5.37079   5.38948
 Alpha virt. eigenvalues --    5.39461   5.46697   5.56418   5.62483   5.69233
 Alpha virt. eigenvalues --    5.70231   5.73278   5.77681   5.84563   5.92775
 Alpha virt. eigenvalues --    5.94471   5.99139   6.11897   6.18900   6.21933
 Alpha virt. eigenvalues --    6.29102   6.34265   6.38230   6.38252   6.55217
 Alpha virt. eigenvalues --    6.62518   6.75946   7.16651   7.38266   7.50235
 Alpha virt. eigenvalues --    8.51642  11.52285  12.87892  14.01713  14.68795
          Condensed to atoms (all electrons):
              1          2          3          4          5          6
     1  N    6.468682    .457294   -.110442    .004722    .350122   -.105586
     2  N     .457294   6.520163    .313592   -.026001   -.099934   -.094465
     3  N    -.110442    .313592   6.088491    .403253   -.104572    .487629
     4  H     .004722   -.026001    .403253    .424119    .004547   -.028384
     5  N     .350122   -.099934   -.104572    .004547   6.443424    .616200
     6  C    -.105586   -.094465    .487629   -.028384    .616200   4.722519
     7  H     .001428    .002172   -.028232   -.000858   -.018834    .425054
              7
     1  N     .001428
     2  N     .002172
     3  N    -.028232
     4  H    -.000858
     5  N    -.018834
     6  C     .425054
     7  H     .435192
 Mulliken atomic charges:
              1
     1  N    -.066221
     2  N    -.072821
     3  N    -.049719
     4  H     .218602
     5  N    -.190951
     6  C    -.022967
     7  H     .184077
 Sum of Mulliken charges=    .00000
 Atomic charges with hydrogens summed into heavy atoms:
              1
     1  N    -.066221
     2  N    -.072821
     3  N     .168884
     4  H     .000000
     5  N    -.190951
     6  C     .161110
     7  H     .000000
 Sum of Mulliken charges=    .00000
 Electronic spatial extent (au):  <R**2>=   244.6085
 Charge=      .0000 electrons
 Dipole moment (field-independent basis, Debye):
    X=     2.5870    Y=     4.8608    Z=      .0000  Tot=     5.5064
 Quadrupole moment (field-independent basis, Debye-Ang):
   XX=   -28.6909   YY=   -26.5214   ZZ=   -28.4808
   XY=     1.9823   XZ=      .0000   YZ=      .0000
 Traceless Quadrupole moment (field-independent basis, Debye-Ang):
   XX=     -.7932   YY=     1.3763   ZZ=     -.5831
   XY=     1.9823   XZ=      .0000   YZ=      .0000
 Octapole moment (field-independent basis, Debye-Ang**2):
  XXX=    12.3679  YYY=    22.4921  ZZZ=      .0000  XYY=     -.7893
  XXY=     4.9703  XXZ=      .0000  XZZ=     -.6837  YZZ=      .7010
  YYZ=      .0000  XYZ=      .0000
 Hexadecapole moment (field-independent basis, Debye-Ang**3):
 XXXX=  -138.7811 YYYY=  -117.5030 ZZZZ=   -26.0944 XXXY=     7.0295
 XXXZ=      .0000 YYYX=     -.0770 YYYZ=      .0000 ZZZX=      .0000
 ZZZY=      .0000 XXYY=   -52.5906 XXZZ=   -29.9677 YYZZ=   -28.4234
 XXYZ=      .0000 YYXZ=      .0000 ZZXY=      .0851
 N-N= 1.698288291610D+02 E-N=-9.415166386882D+02  KE= 2.566922928544D+02
 Symmetry A'   KE= 2.476744411991D+02
 Symmetry A"   KE= 9.017851655261D+00
 ***** Axes restored to original set *****
 -------------------------------------------------------------------
 Center     Atomic                   Forces (Hartrees/Bohr)
 Number     Number              X              Y              Z
 -------------------------------------------------------------------
    1          7           -.036092581    -.041268430     .000000000
    2          7            .002692736     .058725794     .000000000
    3          7            .008321575     .005846787     .000000000
    4          1            .006283476     .009355626     .000000000
    5          7           -.014312226    -.034716632     .000000000
    6          6            .028833953     .003369893     .000000000
    7          1            .004273068    -.001313039     .000000000
 -------------------------------------------------------------------
 Cartesian Forces:  Max      .058725794 RMS      .020661664

 GradGradGradGradGradGradGradGradGradGradGradGradGradGradGradGradGradGrad
 Berny optimization.
 Internal  Forces:  Max      .057726584 RMS      .015262917
 Search for a local minimum.
 Step number   1 out of a maximum of  36
 All quantities printed in internal units (Hartrees-Bohrs-Radians)
 Second derivative matrix not updated -- first step.
     Eigenvalues ---     .02505    .02639    .02674    .02834    .16000
     Eigenvalues ---     .16000    .22605    .24688    .37515    .48737
     Eigenvalues ---     .50885    .56605    .58506    .66912    .78894
     Eigenvalues --- 1000.000001000.000001000.000001000.000001000.00000
     Eigenvalues --- 1000.000001000.000001000.000001000.000001000.00000
     Eigenvalues --- 1000.00000
 RFO step:  Lambda=-8.30352272D-03.
 Linear search not attempted -- first point.
 Iteration  1 RMS(Cart)=   .02097495 RMS(Int)=   .00005225
 Iteration  2 RMS(Cart)=   .00004233 RMS(Int)=   .00003060
 Iteration  3 RMS(Cart)=   .00000000 RMS(Int)=   .00003060
 Variable       Old X    -DE/DX   Delta X   Delta X   Delta X     New X
                                 (Linear)    (Quad)   (Total)
    R1        2.36623    .05773    .00000    .07165    .07169   2.43792
    R2        2.53474    .01943    .00000    .03626    .03630   2.57104
    R3        2.50608    .01879    .00000    .03024    .03022   2.53630
    R4        1.87862    .01127    .00000    .02273    .02273   1.90135
    R5        2.51367    .02055    .00000    .03062    .03058   2.54425
    R6        2.43647    .03660    .00000    .05004    .05003   2.48650
    R7        2.01777    .00446    .00000    .01162    .01162   2.02940
    A1        1.94380   -.00394    .00000   -.00110   -.00101   1.94279
    A2        1.86179   -.00313    .00000   -.00582   -.00581   1.85599
    A3        2.10759   -.00209    .00000   -.00422   -.00418   2.10341
    A4        1.88535    .00369    .00000    .00548    .00542   1.89077
    A5        2.29025   -.00160    .00000   -.00127   -.00123   2.28901
    A6        1.84604   -.00159    .00000   -.00668   -.00665   1.83938
    A7        1.88780    .00496    .00000    .00811    .00806   1.89585
    A8        2.18241   -.00283    .00000   -.00612   -.00609   2.17632
    A9        2.21298   -.00213    .00000   -.00200   -.00197   2.21102
    D1         .00000    .00000    .00000    .00000    .00000    .00000
    D2         .00000    .00000    .00000    .00000    .00000    .00000
    D3        3.14159    .00000    .00000    .00000    .00000   3.14159
    D4         .00000    .00000    .00000    .00000    .00000    .00000
    D5         .00000    .00000    .00000    .00000    .00000    .00000
    D6        3.14159    .00000    .00000    .00000    .00000   3.14159
    D7        3.14159    .00000    .00000    .00000    .00000   3.14159
    D8         .00000    .00000    .00000    .00000    .00000    .00000
    D9         .00000    .00000    .00000    .00000    .00000    .00000
   D10        3.14159    .00000    .00000    .00000    .00000   3.14159
         Item               Value     Threshold  Converged?
 Maximum Force             .057727      .000450     NO 
 RMS     Force             .015263      .000300     NO 
 Maximum Displacement      .050946      .001800     NO 
 RMS     Displacement      .020966      .001200     NO 
 Predicted change in Energy=-4.199249D-03
 GradGradGradGradGradGradGradGradGradGradGradGradGradGradGradGradGradGrad

                          Input orientation:                          
 ---------------------------------------------------------------------
 Center     Atomic     Atomic              Coordinates (Angstroms)
 Number     Number      Type              X           Y           Z
 ---------------------------------------------------------------------
    1          7             0       -1.147640    -.268376     .000000
    2          7             0        -.680826     .934296     .000000
    3          7             0         .656474     .820275     .000000
    4          1             0        1.239169    1.640522     .000000
    5          7             0        -.144981   -1.188013     .000000
    6          6             0         .969855    -.489106     .000000
    7          1             0        1.970857    -.878052     .000000
 ---------------------------------------------------------------------
                    Distance matrix (angstroms):
                    1          2          3          4          5
     1  N     .000000
     2  N    1.290090    .000000
     3  N    2.107127   1.342152    .000000
     4  H    3.056263   2.045761   1.006150    .000000
     5  N    1.360535   2.188909   2.162302   3.149044    .000000
     6  C    2.128968   2.179638   1.346361   2.146589   1.315800
     7  H    3.177535   3.211858   2.147538   2.622705   2.138421
                    6          7
     6  C     .000000
     7  H    1.073910    .000000
 Stoichiometry    CH2N4
 Framework group  CS[SG(CH2N4)]
 Deg. of freedom    11
 Full point group                 CS      NOp   2
 Largest Abelian subgroup         CS      NOp   2
 Largest concise Abelian subgroup C1      NOp   1
                         Standard orientation:                         
 ---------------------------------------------------------------------
 Center     Atomic     Atomic              Coordinates (Angstroms)
 Number     Number      Type              X           Y           Z
 ---------------------------------------------------------------------
    1          7             0        -.723382    -.923307     .000000
    2          7             0       -1.113473     .306393     .000000
    3          7             0         .000000    1.055759     .000000
    4          1             0        -.060097    2.060113     .000000
    5          7             0         .634297   -1.011417     .000000
    6          6             0        1.064893     .231933     .000000
    7          1             0        2.088648     .556292     .000000
 ---------------------------------------------------------------------
 Rotational constants (GHZ):     10.5673554     10.3621473      5.2318727
 Standard basis: CC-pVTZ (5D, 7F)
 There are   120 symmetry adapted basis functions of A'  symmetry.
 There are    58 symmetry adapted basis functions of A"  symmetry.
 Integral buffers will be    131072 words long.
 Raffenetti 1 integral format.
 Two-electron integral symmetry is turned on.
   178 basis functions,   299 primitive gaussians,   205 cartesian basis functions
    18 alpha electrons       18 beta electrons
       nuclear repulsion energy       166.9499731288 Hartrees.
 NAtoms=    7 NActive=    7 NUniq=    7 SFac= 1.00D+00 NAtFMM=   60 Big=F
 One-electron integrals computed using PRISM.
 NBasis=   178 RedAO= T  NBF=   120    58
 NBsUse=   178 1.00D-06 NBFU=   120    58
 Initial guess read from the read-write file:
 Initial guess orbital symmetries:
       Occupied  (A') (A') (A') (A') (A') (A') (A') (A') (A') (A')
                 (A') (A") (A') (A') (A') (A') (A") (A")
       Virtual   (A') (A") (A') (A") (A') (A') (A') (A') (A") (A')
                 (A') (A') (A') (A') (A') (A") (A') (A") (A') (A')
                 (A") (A") (A') (A") (A') (A') (A') (A") (A') (A')
                 (A") (A') (A') (A") (A') (A') (A') (A") (A') (A')
                 (A") (A") (A') (A') (A") (A') (A') (A") (A') (A')
                 (A') (A') (A") (A') (A") (A') (A") (A') (A') (A')
                 (A") (A') (A') (A') (A') (A') (A") (A") (A') (A")
                 (A") (A') (A") (A') (A') (A") (A') (A") (A') (A')
                 (A") (A') (A') (A") (A') (A") (A') (A') (A") (A")
                 (A') (A") (A') (A") (A') (A') (A") (A") (A') (A')
                 (A') (A") (A') (A") (A') (A') (A') (A') (A') (A')
                 (A") (A') (A') (A') (A") (A') (A") (A') (A") (A')
                 (A") (A') (A") (A") (A') (A") (A') (A") (A') (A")
                 (A') (A') (A") (A") (A") (A') (A') (A') (A') (A")
                 (A') (A') (A") (A') (A") (A') (A') (A') (A") (A')
                 (A') (A') (A') (A') (A') (A') (A') (A') (A') (A')
 Harris functional with IExCor=  205 diagonalized for initial guess.
 ExpMin= 1.03D-01 ExpMax= 1.14D+04 ExpMxC= 3.89D+02 IAcc=1 IRadAn=         1 AccDes= 1.00D-06
 HarFok:  IExCor= 205 AccDes= 1.00D-06 IRadAn=         1 IDoV=1
 ScaDFX=  1.000000  1.000000  1.000000  1.000000
 Requested convergence on RMS density matrix=1.00D-08 within 128 cycles.
 Requested convergence on MAX density matrix=1.00D-06.
 Requested convergence on             energy=1.00D-06.
 No special actions if energy rises.
 Integral accuracy reduced to 1.0D-05 until final iterations.
 Initial convergence to 1.0D-05 achieved.  Increase integral accuracy.
 SCF Done:  E(RHF) =  -256.843327382     A.U. after   13 cycles
             Convg  =     .6119D-08             -V/T =  2.0022
             S**2   =    .0000
 ExpMin= 1.03D-01 ExpMax= 1.14D+04 ExpMxC= 3.89D+02 IAcc=1 IRadAn=         1 AccDes= 1.00D-06
 HarFok:  IExCor= 205 AccDes= 1.00D-06 IRadAn=         1 IDoV=1
 ScaDFX=  1.000000  1.000000  1.000000  1.000000
 Range of M.O.s used for correlation:     6   178
 NBasis=   178 NAE=    18 NBE=    18 NFC=     5 NFV=     0
 NROrb=    173 NOA=    13 NOB=    13 NVA=   160 NVB=   160

 **** Warning!!: The largest alpha MO coefficient is   .10707878D+02

 Disk-based method using ON**2 memory for 13 occupieds at a time.
 Estimated scratch disk usage=   214930688 words.
 Actual    scratch disk usage=   199456512 words.
 JobTyp=1 Pass  1:  I=   6 to  18 NPSUse=  1 ParTrn=F ParDer=F DoDerP=T.
 Spin components of T(2) and E(2):
     alpha-alpha T2 =        .4176397494D-01 E2=      -.1284071022D+00
     alpha-beta  T2 =        .2123889257D+00 E2=      -.7047091598D+00
     beta-beta   T2 =        .4176397494D-01 E2=      -.1284071022D+00
 ANorm=     .1138383448D+01
 E2 =     -.9615233642D+00 EUMP2 =     -.25780485074641D+03
          Differentiating once with respect to electric field.
                with respect to dipole field.
          Differentiating once with respect to nuclear coordinates.
          There are   1 degrees of freedom in the 1st order CPHF.
 Petite list used in FoFDir.
 MinBra= 0 MaxBra= 3 Meth= 1.
 IRaf=       0 NMat=   1 IRICut=       1 DoRegI=T DoRafI=F ISym2E= 1 JSym2E=1.
     1 vectors were produced by pass  0.
 AX will form   1 AO Fock derivatives at one time.
     1 vectors were produced by pass  1.
     1 vectors were produced by pass  2.
     1 vectors were produced by pass  3.
     1 vectors were produced by pass  4.
     1 vectors were produced by pass  5.
     1 vectors were produced by pass  6.
     1 vectors were produced by pass  7.
     1 vectors were produced by pass  8.
     1 vectors were produced by pass  9.
     1 vectors were produced by pass 10.
     1 vectors were produced by pass 11.
     1 vectors were produced by pass 12.
     1 vectors were produced by pass 13.
     1 vectors were produced by pass 14.
     1 vectors were produced by pass 15.
 Inv2:  IOpt= 1 Iter= 1 AM= 4.42D-16 Conv= 1.00D-12.
 Inverted reduced A of dimension   16 with in-core refinement.
 End of Minotr Frequency-dependent properties file   721 does not exist.
 ***** Axes restored to original set *****
 -------------------------------------------------------------------
 Center     Atomic                   Forces (Hartrees/Bohr)
 Number     Number              X              Y              Z
 -------------------------------------------------------------------
    1          7           -.006476347    -.014746072     .000000000
    2          7            .004657401     .018215630     .000000000
    3          7           -.001775115    -.005518091     .000000000
    4          1            .000190135     .000332565     .000000000
    5          7           -.001846711    -.001392546     .000000000
    6          6            .005242587     .003068368     .000000000
    7          1            .000008051     .000040146     .000000000
 -------------------------------------------------------------------
 Cartesian Forces:  Max      .018215630 RMS      .005727495

 GradGradGradGradGradGradGradGradGradGradGradGradGradGradGradGradGradGrad
 Berny optimization.
 Internal  Forces:  Max      .015266627 RMS      .003342324
 Search for a local minimum.
 Step number   2 out of a maximum of  36
 All quantities printed in internal units (Hartrees-Bohrs-Radians)
 Update second derivatives using D2CorX and points  1  2
 Trust test= 1.12D+00 RLast= 1.08D-01 DXMaxT set to 3.24D-01
     Eigenvalues ---     .02506    .02640    .02676    .02835    .16000
     Eigenvalues ---     .16000    .22486    .24623    .37562    .48652
     Eigenvalues ---     .50062    .56133    .60941    .64511    .69194
     Eigenvalues --- 1000.000001000.000001000.000001000.000001000.00000
     Eigenvalues --- 1000.000001000.000001000.000001000.000001000.00000
     Eigenvalues --- 1000.00000
 RFO step:  Lambda=-3.17701154D-04.
 Quartic linear search produced a step of   .22327.
 Iteration  1 RMS(Cart)=   .00612126 RMS(Int)=   .00003270
 Iteration  2 RMS(Cart)=   .00002935 RMS(Int)=   .00001199
 Iteration  3 RMS(Cart)=   .00000000 RMS(Int)=   .00001199
 Variable       Old X    -DE/DX   Delta X   Delta X   Delta X     New X
                                 (Linear)    (Quad)   (Total)
    R1        2.43792    .01527    .01601    .01201    .02802   2.46594
    R2        2.57104    .00093    .00811   -.00239    .00571   2.57675
    R3        2.53630    .00061    .00675   -.00378    .00298   2.53928
    R4        1.90135    .00038    .00508   -.00259    .00248   1.90383
    R5        2.54425   -.00095    .00683   -.00890   -.00207   2.54218
    R6        2.48650    .00375    .01117   -.00268    .00847   2.49497
    R7        2.02940   -.00001    .00260   -.00174    .00086   2.03025
    A1        1.94279   -.00196   -.00023   -.00107   -.00129   1.94149
    A2        1.85599   -.00348   -.00130   -.01187   -.01313   1.84285
    A3        2.10341   -.00201   -.00093   -.00773   -.00866   2.09474
    A4        1.89077    .00395    .00121    .01519    .01641   1.90718
    A5        2.28901   -.00194   -.00028   -.00747   -.00775   2.28126
    A6        1.83938    .00124   -.00149    .00586    .00434   1.84373
    A7        1.89585    .00025    .00180   -.00811   -.00633   1.88952
    A8        2.17632   -.00016   -.00136    .00394    .00259   2.17891
    A9        2.21102   -.00008   -.00044    .00417    .00374   2.21475
    D1         .00000    .00000    .00000    .00000    .00000    .00000
    D2         .00000    .00000    .00000    .00000    .00000    .00000
    D3        3.14159    .00000    .00000    .00000    .00000   3.14159
    D4         .00000    .00000    .00000    .00000    .00000    .00000
    D5         .00000    .00000    .00000    .00000    .00000    .00000
    D6        3.14159    .00000    .00000    .00000    .00000   3.14159
    D7        3.14159    .00000    .00000    .00000    .00000   3.14159
    D8         .00000    .00000    .00000    .00000    .00000    .00000
    D9         .00000    .00000    .00000    .00000    .00000    .00000
   D10        3.14159    .00000    .00000    .00000    .00000   3.14159
         Item               Value     Threshold  Converged?
 Maximum Force             .015267      .000450     NO 
 RMS     Force             .003342      .000300     NO 
 Maximum Displacement      .021919      .001800     NO 
 RMS     Displacement      .006117      .001200     NO 
 Predicted change in Energy=-2.865943D-04
 GradGradGradGradGradGradGradGradGradGradGradGradGradGradGradGradGradGrad

                          Input orientation:                          
 ---------------------------------------------------------------------
 Center     Atomic     Atomic              Coordinates (Angstroms)
 Number     Number      Type              X           Y           Z
 ---------------------------------------------------------------------
    1          7             0       -1.153133    -.271518     .000000
    2          7             0        -.683320     .945895     .000000
    3          7             0         .654188     .816766     .000000
    4          1             0        1.239717    1.636608     .000000
    5          7             0        -.145270   -1.189941     .000000
    6          6             0         .974141    -.489894     .000000
    7          1             0        1.976585    -.876371     .000000
 ---------------------------------------------------------------------
                    Distance matrix (angstroms):
                    1          2          3          4          5
     1  N     .000000
     2  N    1.304921    .000000
     3  N    2.109686   1.343727    .000000
     4  H    3.060502   2.043319   1.007464    .000000
     5  N    1.363558   2.202565   2.160095   3.147629    .000000
     6  C    2.138454   2.192867   1.345263   2.143022   1.320283
     7  H    3.187630   3.224244   2.148359   2.618785   2.144900
                    6          7
     6  C     .000000
     7  H    1.074364    .000000
 Stoichiometry    CH2N4
 Framework group  CS[SG(CH2N4)]
 Deg. of freedom    11
 Full point group                 CS      NOp   2
 Largest Abelian subgroup         CS      NOp   2
 Largest concise Abelian subgroup C1      NOp   1
                         Standard orientation:                         
 ---------------------------------------------------------------------
 Center     Atomic     Atomic              Coordinates (Angstroms)
 Number     Number      Type              X           Y           Z
 ---------------------------------------------------------------------
    1          7             0        -.723149    -.929858     .000000
    2          7             0       -1.122001     .312614     .000000
    3          7             0         .000000    1.052017     .000000
    4          1             0        -.059139    2.057744     .000000
    5          7             0         .637949   -1.011724     .000000
    6          6             0        1.069529     .236028     .000000
    7          1             0        2.092370     .564745     .000000
 ---------------------------------------------------------------------
 Rotational constants (GHZ):     10.5128061     10.2867216      5.1992675
 Standard basis: CC-pVTZ (5D, 7F)
 There are   120 symmetry adapted basis functions of A'  symmetry.
 There are    58 symmetry adapted basis functions of A"  symmetry.
 Integral buffers will be    131072 words long.
 Raffenetti 1 integral format.
 Two-electron integral symmetry is turned on.
   178 basis functions,   299 primitive gaussians,   205 cartesian basis functions
    18 alpha electrons       18 beta electrons
       nuclear repulsion energy       166.4125671213 Hartrees.
 NAtoms=    7 NActive=    7 NUniq=    7 SFac= 1.00D+00 NAtFMM=   60 Big=F
 One-electron integrals computed using PRISM.
 NBasis=   178 RedAO= T  NBF=   120    58
 NBsUse=   178 1.00D-06 NBFU=   120    58
 Initial guess read from the read-write file:
 Initial guess orbital symmetries:
       Occupied  (A') (A') (A') (A') (A') (A') (A') (A') (A') (A')
                 (A') (A") (A') (A') (A') (A') (A") (A")
       Virtual   (A') (A") (A') (A") (A') (A') (A') (A') (A") (A')
                 (A') (A') (A') (A') (A') (A") (A') (A") (A') (A')
                 (A") (A') (A") (A') (A") (A') (A') (A") (A') (A')
                 (A") (A') (A") (A') (A') (A') (A') (A") (A') (A')
                 (A") (A") (A') (A') (A") (A') (A') (A") (A') (A')
                 (A') (A') (A") (A') (A") (A') (A") (A') (A') (A')
                 (A') (A") (A') (A') (A') (A') (A") (A") (A') (A")
                 (A') (A") (A") (A') (A') (A") (A') (A") (A') (A')
                 (A") (A') (A') (A") (A') (A") (A') (A') (A") (A")
                 (A') (A") (A') (A") (A') (A') (A") (A") (A') (A')
                 (A") (A') (A') (A") (A') (A') (A') (A') (A') (A')
                 (A") (A') (A') (A') (A') (A") (A") (A') (A") (A')
                 (A") (A') (A") (A") (A') (A") (A") (A') (A') (A")
                 (A') (A') (A") (A") (A") (A') (A') (A') (A') (A")
                 (A') (A') (A") (A') (A") (A') (A") (A') (A') (A')
                 (A') (A') (A') (A') (A') (A') (A') (A') (A') (A')
 Harris functional with IExCor=  205 diagonalized for initial guess.
 ExpMin= 1.03D-01 ExpMax= 1.14D+04 ExpMxC= 3.89D+02 IAcc=1 IRadAn=         1 AccDes= 1.00D-06
 HarFok:  IExCor= 205 AccDes= 1.00D-06 IRadAn=         1 IDoV=1
 ScaDFX=  1.000000  1.000000  1.000000  1.000000
 Requested convergence on RMS density matrix=1.00D-08 within 128 cycles.
 Requested convergence on MAX density matrix=1.00D-06.
 Requested convergence on             energy=1.00D-06.
 No special actions if energy rises.
 Integral accuracy reduced to 1.0D-05 until final iterations.
 Initial convergence to 1.0D-05 achieved.  Increase integral accuracy.
 SCF Done:  E(RHF) =  -256.840989011     A.U. after   11 cycles
             Convg  =     .9859D-08             -V/T =  2.0024
             S**2   =    .0000
 ExpMin= 1.03D-01 ExpMax= 1.14D+04 ExpMxC= 3.89D+02 IAcc=1 IRadAn=         1 AccDes= 1.00D-06
 HarFok:  IExCor= 205 AccDes= 1.00D-06 IRadAn=         1 IDoV=1
 ScaDFX=  1.000000  1.000000  1.000000  1.000000
 Range of M.O.s used for correlation:     6   178
 NBasis=   178 NAE=    18 NBE=    18 NFC=     5 NFV=     0
 NROrb=    173 NOA=    13 NOB=    13 NVA=   160 NVB=   160

 **** Warning!!: The largest alpha MO coefficient is   .10581839D+02

 Disk-based method using ON**2 memory for 13 occupieds at a time.
 Estimated scratch disk usage=   214930688 words.
 Actual    scratch disk usage=   199456512 words.
 JobTyp=1 Pass  1:  I=   6 to  18 NPSUse=  1 ParTrn=F ParDer=F DoDerP=T.
 Spin components of T(2) and E(2):
     alpha-alpha T2 =        .4217217738D-01 E2=      -.1288050410D+00
     alpha-beta  T2 =        .2143015154D+00 E2=      -.7065912942D+00
     beta-beta   T2 =        .4217217738D-01 E2=      -.1288050410D+00
 ANorm=     .1139581445D+01
 E2 =     -.9642013761D+00 EUMP2 =     -.25780519038763D+03
          Differentiating once with respect to electric field.
                with respect to dipole field.
          Differentiating once with respect to nuclear coordinates.
          There are   1 degrees of freedom in the 1st order CPHF.
 Petite list used in FoFDir.
 MinBra= 0 MaxBra= 3 Meth= 1.
 IRaf=       0 NMat=   1 IRICut=       1 DoRegI=T DoRafI=F ISym2E= 1 JSym2E=1.
     1 vectors were produced by pass  0.
 AX will form   1 AO Fock derivatives at one time.
     1 vectors were produced by pass  1.
     1 vectors were produced by pass  2.
     1 vectors were produced by pass  3.
     1 vectors were produced by pass  4.
     1 vectors were produced by pass  5.
     1 vectors were produced by pass  6.
     1 vectors were produced by pass  7.
     1 vectors were produced by pass  8.
     1 vectors were produced by pass  9.
     1 vectors were produced by pass 10.
     1 vectors were produced by pass 11.
     1 vectors were produced by pass 12.
     1 vectors were produced by pass 13.
     1 vectors were produced by pass 14.
     1 vectors were produced by pass 15.
 Inv2:  IOpt= 1 Iter= 1 AM= 6.98D-16 Conv= 1.00D-12.
 Inverted reduced A of dimension   16 with in-core refinement.
 End of Minotr Frequency-dependent properties file   721 does not exist.
 ***** Axes restored to original set *****
 -------------------------------------------------------------------
 Center     Atomic                   Forces (Hartrees/Bohr)
 Number     Number              X              Y              Z
 -------------------------------------------------------------------
    1          7           -.000312390    -.007441436     .000000000
    2          7            .005683123     .002990078     .000000000
    3          7           -.001118308     .000057526     .000000000
    4          1           -.000102418    -.000448861     .000000000
    5          7           -.002395880     .002370726     .000000000
    6          6           -.001364874     .002314792     .000000000
    7          1           -.000389253     .000157176     .000000000
 -------------------------------------------------------------------
 Cartesian Forces:  Max      .007441436 RMS      .002359730

 GradGradGradGradGradGradGradGradGradGradGradGradGradGradGradGradGradGrad
 Berny optimization.
 Internal  Forces:  Max      .004920632 RMS      .001538517
 Search for a local minimum.
 Step number   3 out of a maximum of  36
 All quantities printed in internal units (Hartrees-Bohrs-Radians)
 Update second derivatives using D2CorX and points  1  2  3
 Trust test= 1.19D+00 RLast= 3.96D-02 DXMaxT set to 3.24D-01
     Eigenvalues ---     .02506    .02637    .02675    .02835    .15992
     Eigenvalues ---     .16006    .24050    .27471    .35650    .37596
     Eigenvalues ---     .49140    .52591    .58287    .65822    .74043
     Eigenvalues --- 1000.000001000.000001000.000001000.000001000.00000
     Eigenvalues --- 1000.000001000.000001000.000001000.000001000.00000
     Eigenvalues --- 1000.00000
 RFO step:  Lambda=-1.28521042D-04.
 Quartic linear search produced a step of   .13156.
 Iteration  1 RMS(Cart)=   .00335331 RMS(Int)=   .00000384
 Iteration  2 RMS(Cart)=   .00000304 RMS(Int)=   .00000186
 Iteration  3 RMS(Cart)=   .00000000 RMS(Int)=   .00000186
 Variable       Old X    -DE/DX   Delta X   Delta X   Delta X     New X
                                 (Linear)    (Quad)   (Total)
    R1        2.46594    .00492    .00369    .01027    .01396   2.47990
    R2        2.57675   -.00396    .00075   -.00639   -.00564   2.57112
    R3        2.53928   -.00305    .00039   -.00476   -.00437   2.53491
    R4        1.90383   -.00042    .00033   -.00032    .00000   1.90383
    R5        2.54218   -.00198   -.00027   -.00372   -.00399   2.53818
    R6        2.49497    .00043    .00111    .00191    .00303   2.49800
    R7        2.03025   -.00042    .00011   -.00093   -.00082   2.02943
    A1        1.94149   -.00167   -.00017   -.00536   -.00552   1.93597
    A2        1.84285    .00088   -.00173    .00472    .00299   1.84584
    A3        2.09474    .00061   -.00114    .00335    .00221   2.09695
    A4        1.90718   -.00089    .00216   -.00449   -.00233   1.90485
    A5        2.28126    .00027   -.00102    .00113    .00012   2.28138
    A6        1.84373    .00026    .00057    .00053    .00111   1.84483
    A7        1.88952    .00141   -.00083    .00459    .00376   1.89328
    A8        2.17891   -.00071    .00034   -.00244   -.00210   2.17681
    A9        2.21475   -.00070    .00049   -.00215   -.00166   2.21310
    D1         .00000    .00000    .00000    .00000    .00000    .00000
    D2         .00000    .00000    .00000    .00000    .00000    .00000
    D3        3.14159    .00000    .00000    .00000    .00000   3.14159
    D4         .00000    .00000    .00000    .00000    .00000    .00000
    D5         .00000    .00000    .00000    .00000    .00000    .00000
    D6        3.14159    .00000    .00000    .00000    .00000   3.14159
    D7        3.14159    .00000    .00000    .00000    .00000   3.14159
    D8         .00000    .00000    .00000    .00000    .00000    .00000
    D9         .00000    .00000    .00000    .00000    .00000    .00000
   D10        3.14159    .00000    .00000    .00000    .00000   3.14159
         Item               Value     Threshold  Converged?
 Maximum Force             .004921      .000450     NO 
 RMS     Force             .001539      .000300     NO 
 Maximum Displacement      .010390      .001800     NO 
 RMS     Displacement      .003354      .001200     NO 
 Predicted change in Energy=-6.846444D-05
 GradGradGradGradGradGradGradGradGradGradGradGradGradGradGradGradGradGrad

                          Input orientation:                          
 ---------------------------------------------------------------------
 Center     Atomic     Atomic              Coordinates (Angstroms)
 Number     Number      Type              X           Y           Z
 ---------------------------------------------------------------------
    1          7             0       -1.155379    -.277016     .000000
    2          7             0        -.679741     .946062     .000000
    3          7             0         .655517     .817694     .000000
    4          1             0        1.242530    1.636476     .000000
    5          7             0        -.147032   -1.190472     .000000
    6          6             0         .972452    -.487527     .000000
    7          1             0        1.974559    -.873673     .000000
 ---------------------------------------------------------------------
                    Distance matrix (angstroms):
                    1          2          3          4          5
     1  N     .000000
     2  N    1.312307    .000000
     3  N    2.116066   1.341414    .000000
     4  H    3.067803   2.042497   1.007466    .000000
     5  N    1.360576   2.201944   2.162595   3.150002    .000000
     6  C    2.138219   2.187446   1.343149   2.141105   1.321883
     7  H    3.186300   3.218189   2.144900   2.614711   2.145113
                    6          7
     6  C     .000000
     7  H    1.073931    .000000
 Stoichiometry    CH2N4
 Framework group  CS[SG(CH2N4)]
 Deg. of freedom    11
 Full point group                 CS      NOp   2
 Largest Abelian subgroup         CS      NOp   2
 Largest concise Abelian subgroup C1      NOp   1
                         Standard orientation:                         
 ---------------------------------------------------------------------
 Center     Atomic     Atomic              Coordinates (Angstroms)
 Number     Number      Type              X           Y           Z
 ---------------------------------------------------------------------
    1          7             0        -.721504    -.935252     .000000
    2          7             0       -1.119626     .315208     .000000
    3          7             0         .000000    1.054011     .000000
    4          1             0        -.057516    2.059834     .000000
    5          7             0         .636866   -1.012681     .000000
    6          6             0        1.066437     .237456     .000000
    7          1             0        2.088743     .566420     .000000
 ---------------------------------------------------------------------
 Rotational constants (GHZ):     10.5015766     10.2877912      5.1967923
 Standard basis: CC-pVTZ (5D, 7F)
 There are   120 symmetry adapted basis functions of A'  symmetry.
 There are    58 symmetry adapted basis functions of A"  symmetry.
 Integral buffers will be    131072 words long.
 Raffenetti 1 integral format.
 Two-electron integral symmetry is turned on.
   178 basis functions,   299 primitive gaussians,   205 cartesian basis functions
    18 alpha electrons       18 beta electrons
       nuclear repulsion energy       166.3649751438 Hartrees.
 NAtoms=    7 NActive=    7 NUniq=    7 SFac= 1.00D+00 NAtFMM=   60 Big=F
 One-electron integrals computed using PRISM.
 NBasis=   178 RedAO= T  NBF=   120    58
 NBsUse=   178 1.00D-06 NBFU=   120    58
 Initial guess read from the read-write file:
 Initial guess orbital symmetries:
       Occupied  (A') (A') (A') (A') (A') (A') (A') (A') (A') (A')
                 (A') (A') (A") (A') (A') (A') (A") (A")
       Virtual   (A') (A") (A') (A") (A') (A') (A') (A') (A") (A')
                 (A') (A') (A') (A') (A') (A") (A') (A") (A') (A')
                 (A") (A') (A") (A') (A") (A') (A') (A") (A') (A')
                 (A") (A') (A") (A') (A') (A') (A') (A") (A') (A')
                 (A") (A") (A') (A') (A") (A') (A') (A") (A') (A')
                 (A') (A') (A") (A') (A") (A') (A") (A') (A') (A')
                 (A') (A") (A') (A') (A') (A') (A") (A") (A') (A")
                 (A') (A") (A") (A') (A') (A") (A') (A") (A') (A')
                 (A") (A') (A') (A") (A') (A") (A') (A') (A") (A")
                 (A') (A") (A') (A") (A') (A') (A") (A") (A') (A')
                 (A") (A') (A') (A") (A') (A') (A') (A') (A') (A')
                 (A") (A') (A') (A') (A') (A") (A") (A') (A") (A')
                 (A") (A') (A") (A") (A') (A") (A") (A') (A') (A")
                 (A') (A') (A") (A") (A") (A') (A') (A') (A') (A")
                 (A') (A') (A") (A') (A") (A') (A") (A') (A') (A')
                 (A') (A') (A') (A') (A') (A') (A') (A') (A') (A')
 Requested convergence on RMS density matrix=1.00D-08 within 128 cycles.
 Requested convergence on MAX density matrix=1.00D-06.
 Requested convergence on             energy=1.00D-06.
 No special actions if energy rises.
 SCF Done:  E(RHF) =  -256.840291056     A.U. after   11 cycles
             Convg  =     .5897D-08             -V/T =  2.0025
             S**2   =    .0000
 ExpMin= 1.03D-01 ExpMax= 1.14D+04 ExpMxC= 3.89D+02 IAcc=1 IRadAn=         1 AccDes= 1.00D-06
 HarFok:  IExCor= 205 AccDes= 1.00D-06 IRadAn=         1 IDoV=1
 ScaDFX=  1.000000  1.000000  1.000000  1.000000
 Range of M.O.s used for correlation:     6   178
 NBasis=   178 NAE=    18 NBE=    18 NFC=     5 NFV=     0
 NROrb=    173 NOA=    13 NOB=    13 NVA=   160 NVB=   160

 **** Warning!!: The largest alpha MO coefficient is   .10500369D+02

 Disk-based method using ON**2 memory for 13 occupieds at a time.
 Estimated scratch disk usage=   214930688 words.
 Actual    scratch disk usage=   199456512 words.
 JobTyp=1 Pass  1:  I=   6 to  18 NPSUse=  1 ParTrn=F ParDer=F DoDerP=T.
 Spin components of T(2) and E(2):
     alpha-alpha T2 =        .4228490870D-01 E2=      -.1289495661D+00
     alpha-beta  T2 =        .2147475416D+00 E2=      -.7070657662D+00
     beta-beta   T2 =        .4228490870D-01 E2=      -.1289495661D+00
 ANorm=     .1139876028D+01
 E2 =     -.9649648984D+00 EUMP2 =     -.25780525595469D+03
          Differentiating once with respect to electric field.
                with respect to dipole field.
          Differentiating once with respect to nuclear coordinates.
          There are   1 degrees of freedom in the 1st order CPHF.
 Petite list used in FoFDir.
 MinBra= 0 MaxBra= 3 Meth= 1.
 IRaf=       0 NMat=   1 IRICut=       1 DoRegI=T DoRafI=F ISym2E= 1 JSym2E=1.
     1 vectors were produced by pass  0.
 AX will form   1 AO Fock derivatives at one time.
     1 vectors were produced by pass  1.
     1 vectors were produced by pass  2.
     1 vectors were produced by pass  3.
     1 vectors were produced by pass  4.
     1 vectors were produced by pass  5.
     1 vectors were produced by pass  6.
     1 vectors were produced by pass  7.
     1 vectors were produced by pass  8.
     1 vectors were produced by pass  9.
     1 vectors were produced by pass 10.
     1 vectors were produced by pass 11.
     1 vectors were produced by pass 12.
     1 vectors were produced by pass 13.
     1 vectors were produced by pass 14.
     1 vectors were produced by pass 15.
 Inv2:  IOpt= 1 Iter= 1 AM= 4.72D-16 Conv= 1.00D-12.
 Inverted reduced A of dimension   16 with in-core refinement.
 End of Minotr Frequency-dependent properties file   721 does not exist.
 ***** Axes restored to original set *****
 -------------------------------------------------------------------
 Center     Atomic                   Forces (Hartrees/Bohr)
 Number     Number              X              Y              Z
 -------------------------------------------------------------------
    1          7            .002995265    -.001401913     .000000000
    2          7            .000862606     .001185173     .000000000
    3          7           -.002688832    -.000987486     .000000000
    4          1           -.000275244    -.000386354     .000000000
    5          7           -.000613648     .002538809     .000000000
    6          6           -.000183776    -.000798758     .000000000
    7          1           -.000096371    -.000149471     .000000000
 -------------------------------------------------------------------
 Cartesian Forces:  Max      .002995265 RMS      .001175974

 GradGradGradGradGradGradGradGradGradGradGradGradGradGradGradGradGradGrad
 Berny optimization.
 Internal  Forces:  Max      .002263813 RMS      .000828913
 Search for a local minimum.
 Step number   4 out of a maximum of  36
 All quantities printed in internal units (Hartrees-Bohrs-Radians)
 Update second derivatives using D2CorX and points  1  2  3  4
 Trust test= 9.58D-01 RLast= 1.85D-02 DXMaxT set to 3.24D-01
     Eigenvalues ---     .02506    .02637    .02677    .02835    .15935
     Eigenvalues ---     .16025    .21678    .24605    .37546    .44590
     Eigenvalues ---     .48996    .52770    .58284    .63710    .73938
     Eigenvalues --- 1000.000001000.000001000.000001000.000001000.00000
     Eigenvalues --- 1000.000001000.000001000.000001000.000001000.00000
     Eigenvalues --- 1000.00000
 RFO step:  Lambda=-3.77524030D-05.
 Quartic linear search produced a step of  -.04005.
 Iteration  1 RMS(Cart)=   .00170578 RMS(Int)=   .00000237
 Iteration  2 RMS(Cart)=   .00000180 RMS(Int)=   .00000125
 Iteration  3 RMS(Cart)=   .00000000 RMS(Int)=   .00000125
 Variable       Old X    -DE/DX   Delta X   Delta X   Delta X     New X
                                 (Linear)    (Quad)   (Total)
    R1        2.47990   -.00023   -.00056    .00416    .00360   2.48350
    R2        2.57112   -.00226    .00023   -.00519   -.00497   2.56615
    R3        2.53491   -.00182    .00018   -.00379   -.00361   2.53129
    R4        1.90383   -.00047    .00000   -.00070   -.00070   1.90314
    R5        2.53818   -.00010    .00016   -.00092   -.00076   2.53743
    R6        2.49800   -.00181   -.00012   -.00119   -.00131   2.49668
    R7        2.02943   -.00004    .00003   -.00020   -.00017   2.02927
    A1        1.93597    .00109    .00022    .00230    .00252   1.93849
    A2        1.84584   -.00151   -.00012   -.00457   -.00469   1.84115
    A3        2.09695   -.00051   -.00009   -.00161   -.00170   2.09526
    A4        1.90485    .00102    .00009    .00381    .00390   1.90875
    A5        2.28138   -.00051    .00000   -.00220   -.00221   2.27918
    A6        1.84483    .00011   -.00004    .00022    .00017   1.84501
    A7        1.89328   -.00071   -.00015   -.00176   -.00191   1.89137
    A8        2.17681    .00053    .00008    .00183    .00192   2.17873
    A9        2.21310    .00018    .00007   -.00008   -.00001   2.21309
    D1         .00000    .00000    .00000    .00000    .00000    .00000
    D2         .00000    .00000    .00000    .00000    .00000    .00000
    D3        3.14159    .00000    .00000    .00000    .00000   3.14159
    D4         .00000    .00000    .00000    .00000    .00000    .00000
    D5         .00000    .00000    .00000    .00000    .00000    .00000
    D6        3.14159    .00000    .00000    .00000    .00000   3.14159
    D7        3.14159    .00000    .00000    .00000    .00000   3.14159
    D8         .00000    .00000    .00000    .00000    .00000    .00000
    D9         .00000    .00000    .00000    .00000    .00000    .00000
   D10        3.14159    .00000    .00000    .00000    .00000   3.14159
         Item               Value     Threshold  Converged?
 Maximum Force             .002264      .000450     NO 
 RMS     Force             .000829      .000300     NO 
 Maximum Displacement      .004762      .001800     NO 
 RMS     Displacement      .001706      .001200     NO 
 Predicted change in Energy=-1.899938D-05
 GradGradGradGradGradGradGradGradGradGradGradGradGradGradGradGradGradGrad

                          Input orientation:                          
 ---------------------------------------------------------------------
 Center     Atomic     Atomic              Coordinates (Angstroms)
 Number     Number      Type              X           Y           Z
 ---------------------------------------------------------------------
    1          7             0       -1.152859    -.277574     .000000
    2          7             0        -.679282     .948343     .000000
    3          7             0         .653755     .816898     .000000
    4          1             0        1.241164    1.634941     .000000
    5          7             0        -.146713   -1.189544     .000000
    6          6             0         .972498    -.487471     .000000
    7          1             0        1.974344    -.874047     .000000
 ---------------------------------------------------------------------
                    Distance matrix (angstroms):
                    1          2          3          4          5
     1  N     .000000
     2  N    1.314211    .000000
     3  N    2.112279   1.339502    .000000
     4  H    3.064156   2.039491   1.007096    .000000
     5  N    1.357947   2.203224   2.160222   3.147049    .000000
     6  C    2.135696   2.188593   1.342749   2.139348   1.321189
     7  H    3.183579   3.219136   2.145519   2.613919   2.144393
                    6          7
     6  C     .000000
     7  H    1.073842    .000000
 Stoichiometry    CH2N4
 Framework group  CS[SG(CH2N4)]
 Deg. of freedom    11
 Full point group                 CS      NOp   2
 Largest Abelian subgroup         CS      NOp   2
 Largest concise Abelian subgroup C1      NOp   1
                         Standard orientation:                         
 ---------------------------------------------------------------------
 Center     Atomic     Atomic              Coordinates (Angstroms)
 Number     Number      Type              X           Y           Z
 ---------------------------------------------------------------------
    1          7             0        -.719976    -.933915     .000000
    2          7             0       -1.120443     .317794     .000000
    3          7             0         .000000    1.051874     .000000
    4          1             0        -.055906    2.057417     .000000
    5          7             0         .635683   -1.012700     .000000
    6          6             0        1.066630     .236229     .000000
    7          1             0        2.089276     .563843     .000000
 ---------------------------------------------------------------------
 Rotational constants (GHZ):     10.5293271     10.2850168      5.2028691
 Standard basis: CC-pVTZ (5D, 7F)
 There are   120 symmetry adapted basis functions of A'  symmetry.
 There are    58 symmetry adapted basis functions of A"  symmetry.
 Integral buffers will be    131072 words long.
 Raffenetti 1 integral format.
 Two-electron integral symmetry is turned on.
   178 basis functions,   299 primitive gaussians,   205 cartesian basis functions
    18 alpha electrons       18 beta electrons
       nuclear repulsion energy       166.4587085682 Hartrees.
 NAtoms=    7 NActive=    7 NUniq=    7 SFac= 1.00D+00 NAtFMM=   60 Big=F
 One-electron integrals computed using PRISM.
 NBasis=   178 RedAO= T  NBF=   120    58
 NBsUse=   178 1.00D-06 NBFU=   120    58
 Initial guess read from the read-write file:
 Initial guess orbital symmetries:
       Occupied  (A') (A') (A') (A') (A') (A') (A') (A') (A') (A')
                 (A') (A') (A") (A') (A') (A') (A") (A")
       Virtual   (A') (A") (A') (A") (A') (A') (A') (A') (A") (A')
                 (A') (A') (A') (A') (A') (A") (A') (A") (A') (A')
                 (A') (A") (A") (A') (A") (A') (A') (A") (A') (A')
                 (A") (A') (A") (A') (A') (A') (A') (A") (A') (A')
                 (A") (A") (A') (A') (A") (A') (A') (A") (A') (A')
                 (A') (A') (A") (A') (A") (A') (A") (A') (A') (A')
                 (A') (A") (A') (A') (A') (A') (A") (A") (A') (A")
                 (A') (A") (A") (A') (A') (A") (A') (A") (A') (A')
                 (A") (A') (A') (A") (A') (A") (A') (A') (A") (A")
                 (A') (A") (A') (A") (A') (A') (A") (A") (A') (A')
                 (A") (A') (A') (A") (A') (A') (A') (A') (A') (A')
                 (A") (A') (A') (A') (A') (A") (A") (A') (A") (A')
                 (A") (A') (A") (A") (A') (A") (A") (A') (A') (A")
                 (A') (A') (A") (A") (A") (A') (A') (A') (A') (A')
                 (A") (A') (A") (A') (A") (A') (A") (A') (A') (A')
                 (A') (A') (A') (A') (A') (A') (A') (A') (A') (A')
 Requested convergence on RMS density matrix=1.00D-08 within 128 cycles.
 Requested convergence on MAX density matrix=1.00D-06.
 Requested convergence on             energy=1.00D-06.
 No special actions if energy rises.
 SCF Done:  E(RHF) =  -256.840342976     A.U. after   10 cycles
             Convg  =     .3317D-08             -V/T =  2.0024
             S**2   =    .0000
 ExpMin= 1.03D-01 ExpMax= 1.14D+04 ExpMxC= 3.89D+02 IAcc=1 IRadAn=         1 AccDes= 1.00D-06
 HarFok:  IExCor= 205 AccDes= 1.00D-06 IRadAn=         1 IDoV=1
 ScaDFX=  1.000000  1.000000  1.000000  1.000000
 Range of M.O.s used for correlation:     6   178
 NBasis=   178 NAE=    18 NBE=    18 NFC=     5 NFV=     0
 NROrb=    173 NOA=    13 NOB=    13 NVA=   160 NVB=   160

 **** Warning!!: The largest alpha MO coefficient is   .10523477D+02

 Disk-based method using ON**2 memory for 13 occupieds at a time.
 Estimated scratch disk usage=   214930688 words.
 Actual    scratch disk usage=   199456512 words.
 JobTyp=1 Pass  1:  I=   6 to  18 NPSUse=  1 ParTrn=F ParDer=F DoDerP=T.
 Spin components of T(2) and E(2):
     alpha-alpha T2 =        .4227897343D-01 E2=      -.1289723860D+00
     alpha-beta  T2 =        .2146380411D+00 E2=      -.7069882553D+00
     beta-beta   T2 =        .4227897343D-01 E2=      -.1289723860D+00
 ANorm=     .1139822788D+01
 E2 =     -.9649330273D+00 EUMP2 =     -.25780527600309D+03
          Differentiating once with respect to electric field.
                with respect to dipole field.
          Differentiating once with respect to nuclear coordinates.
          There are   1 degrees of freedom in the 1st order CPHF.
 Petite list used in FoFDir.
 MinBra= 0 MaxBra= 3 Meth= 1.
 IRaf=       0 NMat=   1 IRICut=       1 DoRegI=T DoRafI=F ISym2E= 1 JSym2E=1.
     1 vectors were produced by pass  0.
 AX will form   1 AO Fock derivatives at one time.
     1 vectors were produced by pass  1.
     1 vectors were produced by pass  2.
     1 vectors were produced by pass  3.
     1 vectors were produced by pass  4.
     1 vectors were produced by pass  5.
     1 vectors were produced by pass  6.
     1 vectors were produced by pass  7.
     1 vectors were produced by pass  8.
     1 vectors were produced by pass  9.
     1 vectors were produced by pass 10.
     1 vectors were produced by pass 11.
     1 vectors were produced by pass 12.
     1 vectors were produced by pass 13.
     1 vectors were produced by pass 14.
     1 vectors were produced by pass 15.
 Inv2:  IOpt= 1 Iter= 1 AM= 4.15D-16 Conv= 1.00D-12.
 Inverted reduced A of dimension   16 with in-core refinement.
 End of Minotr Frequency-dependent properties file   721 does not exist.
 ***** Axes restored to original set *****
 -------------------------------------------------------------------
 Center     Atomic                   Forces (Hartrees/Bohr)
 Number     Number              X              Y              Z
 -------------------------------------------------------------------
    1          7            .000399712    -.000313876     .000000000
    2          7            .000441620    -.001169118     .000000000
    3          7           -.000636571     .000364374     .000000000
    4          1            .000064324    -.000121309     .000000000
    5          7           -.000629289     .001787438     .000000000
    6          6            .000348220    -.000559843     .000000000
    7          1            .000011985     .000012333     .000000000
 -------------------------------------------------------------------
 Cartesian Forces:  Max      .001787438 RMS      .000552178

 GradGradGradGradGradGradGradGradGradGradGradGradGradGradGradGradGradGrad
 Berny optimization.
 Internal  Forces:  Max      .001106112 RMS      .000367801
 Search for a local minimum.
 Step number   5 out of a maximum of  36
 All quantities printed in internal units (Hartrees-Bohrs-Radians)
 Update second derivatives using D2CorX and points  1  2  3  4  5

 Trust test= 1.06D+00 RLast= 1.06D-02 DXMaxT set to 3.24D-01
     Eigenvalues ---     .02506    .02637    .02677    .02835    .14691
     Eigenvalues ---     .16053    .17127    .37504    .38171    .44018
     Eigenvalues ---     .48432    .51291    .56238    .59877    .72189
     Eigenvalues --- 1000.000001000.000001000.000001000.000001000.00000
     Eigenvalues --- 1000.000001000.000001000.000001000.000001000.00000
     Eigenvalues --- 1000.00000
 RFO step:  Lambda=-1.00150170D-05.
 Quartic linear search produced a step of   .05689.
 Iteration  1 RMS(Cart)=   .00097517 RMS(Int)=   .00000104
 Iteration  2 RMS(Cart)=   .00000097 RMS(Int)=   .00000042
 Variable       Old X    -DE/DX   Delta X   Delta X   Delta X     New X
                                 (Linear)    (Quad)   (Total)
    R1        2.48350   -.00069    .00020   -.00014    .00006   2.48356
    R2        2.56615   -.00111   -.00028   -.00305   -.00333   2.56282
    R3        2.53129   -.00038   -.00021   -.00128   -.00149   2.52981
    R4        1.90314   -.00006   -.00004   -.00025   -.00029   1.90284
    R5        2.53743   -.00009   -.00004   -.00018   -.00022   2.53720
    R6        2.49668   -.00026   -.00007   -.00053   -.00061   2.49608
    R7        2.02927    .00001   -.00001   -.00002   -.00003   2.02924
    A1        1.93849   -.00046    .00014   -.00206   -.00192   1.93657
    A2        1.84115    .00048   -.00027    .00101    .00074   1.84189
    A3        2.09526    .00022   -.00010    .00063    .00053   2.09579
    A4        1.90875   -.00020    .00022    .00034    .00056   1.90932
    A5        2.27918   -.00002   -.00013   -.00097   -.00110   2.27808
    A6        1.84501    .00076    .00001    .00309    .00310   1.84811
    A7        1.89137   -.00057   -.00011   -.00237   -.00248   1.88889
    A8        2.17873    .00027    .00011    .00125    .00136   2.18009
    A9        2.21309    .00030    .00000    .00112    .00112   2.21421
    D1         .00000    .00000    .00000    .00000    .00000    .00000
    D2         .00000    .00000    .00000    .00000    .00000    .00000
    D3        3.14159    .00000    .00000    .00000    .00000   3.14159
    D4         .00000    .00000    .00000    .00000    .00000    .00000
    D5         .00000    .00000    .00000    .00000    .00000    .00000
    D6        3.14159    .00000    .00000    .00000    .00000   3.14159
    D7        3.14159    .00000    .00000    .00000    .00000   3.14159
    D8         .00000    .00000    .00000    .00000    .00000    .00000
    D9         .00000    .00000    .00000    .00000    .00000    .00000
   D10        3.14159    .00000    .00000    .00000    .00000   3.14159
         Item               Value     Threshold  Converged?
 Maximum Force             .001106      .000450     NO 
 RMS     Force             .000368      .000300     NO 
 Maximum Displacement      .004089      .001800     NO 
 RMS     Displacement      .000975      .001200     YES
 Predicted change in Energy=-5.067945D-06
 GradGradGradGradGradGradGradGradGradGradGradGradGradGradGradGradGradGrad

                          Input orientation:                          
 ---------------------------------------------------------------------
 Center     Atomic     Atomic              Coordinates (Angstroms)
 Number     Number      Type              X           Y           Z
 ---------------------------------------------------------------------
    1          7             0       -1.153145    -.278045     .000000
    2          7             0        -.678970     .947678     .000000
    3          7             0         .653318     .816657     .000000
    4          1             0        1.240858    1.634414     .000000
    5          7             0        -.146992   -1.187380     .000000
    6          6             0         .973108    -.487334     .000000
    7          1             0        1.974731    -.874443     .000000
 ---------------------------------------------------------------------
                    Distance matrix (angstroms):
                    1          2          3          4          5
     1  N     .000000
     2  N    1.314244    .000000
     3  N    2.112269   1.338715    .000000
     4  H    3.064107   2.038957   1.006941    .000000
     5  N    1.356184   2.200335   2.157930   3.144622    .000000
     6  C    2.136529   2.188292   1.342631   2.138575   1.320867
     7  H    3.184227   3.219046   2.146148   2.613988   2.144677
                    6          7
     6  C     .000000
     7  H    1.073826    .000000
 Stoichiometry    CH2N4
 Framework group  CS[SG(CH2N4)]
 Deg. of freedom    11
 Full point group                 CS      NOp   2
 Largest Abelian subgroup         CS      NOp   2
 Largest concise Abelian subgroup C1      NOp   1
                         Standard orientation:                         
 ---------------------------------------------------------------------
 Center     Atomic     Atomic              Coordinates (Angstroms)
 Number     Number      Type              X           Y           Z
 ---------------------------------------------------------------------
    1          7             0        -.719849    -.934510     .000000
    2          7             0       -1.119643     .317449     .000000
    3          7             0         .000000    1.051314     .000000
    4          1             0        -.055556    2.056721     .000000
    5          7             0         .634157   -1.011331     .000000
    6          6             0        1.067153     .236549     .000000
    7          1             0        2.089982     .563538     .000000
 ---------------------------------------------------------------------
 Rotational constants (GHZ):     10.5267433     10.3048137      5.2072982
 Standard basis: CC-pVTZ (5D, 7F)
 There are   120 symmetry adapted basis functions of A'  symmetry.
 There are    58 symmetry adapted basis functions of A"  symmetry.
 Integral buffers will be    131072 words long.
 Raffenetti 1 integral format.
 Two-electron integral symmetry is turned on.
   178 basis functions,   299 primitive gaussians,   205 cartesian basis functions
    18 alpha electrons       18 beta electrons
       nuclear repulsion energy       166.5271445803 Hartrees.
 NAtoms=    7 NActive=    7 NUniq=    7 SFac= 1.00D+00 NAtFMM=   60 Big=F
 One-electron integrals computed using PRISM.
 NBasis=   178 RedAO= T  NBF=   120    58
 NBsUse=   178 1.00D-06 NBFU=   120    58
 Initial guess read from the read-write file:
 Initial guess orbital symmetries:
       Occupied  (A') (A') (A') (A') (A') (A') (A') (A') (A') (A')
                 (A') (A') (A") (A') (A') (A') (A") (A")
       Virtual   (A') (A") (A') (A") (A') (A') (A') (A') (A") (A')
                 (A') (A') (A') (A') (A') (A") (A') (A") (A') (A')
                 (A') (A") (A") (A') (A") (A') (A') (A") (A') (A')
                 (A") (A') (A") (A') (A') (A') (A') (A") (A') (A')
                 (A") (A") (A') (A') (A") (A') (A') (A") (A') (A')
                 (A') (A') (A") (A') (A") (A') (A") (A') (A') (A')
                 (A') (A") (A') (A') (A') (A') (A") (A") (A') (A")
                 (A') (A") (A") (A') (A') (A") (A') (A") (A') (A')
                 (A") (A') (A') (A") (A') (A") (A') (A') (A") (A")
                 (A') (A") (A') (A") (A') (A') (A") (A") (A') (A')
                 (A") (A') (A') (A") (A') (A') (A') (A') (A') (A')
                 (A") (A') (A') (A') (A') (A") (A") (A') (A") (A')
                 (A") (A') (A") (A") (A') (A") (A") (A') (A') (A")
                 (A') (A') (A") (A") (A") (A') (A') (A') (A') (A')
                 (A") (A') (A") (A') (A") (A') (A") (A') (A') (A')
                 (A') (A') (A') (A') (A') (A') (A') (A') (A') (A')
 Requested convergence on RMS density matrix=1.00D-08 within 128 cycles.
 Requested convergence on MAX density matrix=1.00D-06.
 Requested convergence on             energy=1.00D-06.
 No special actions if energy rises.
 SCF Done:  E(RHF) =  -256.840517690     A.U. after   10 cycles
             Convg  =     .5142D-08             -V/T =  2.0024
             S**2   =    .0000
 ExpMin= 1.03D-01 ExpMax= 1.14D+04 ExpMxC= 3.89D+02 IAcc=1 IRadAn=         1 AccDes= 1.00D-06
 HarFok:  IExCor= 205 AccDes= 1.00D-06 IRadAn=         1 IDoV=1
 ScaDFX=  1.000000  1.000000  1.000000  1.000000
[...]
    2          7           -.000023368    -.000114931    -.000012517
    3          7           -.000034520     .000089124     .000006463
    4          1            .000004855     .000028102     .000001685
    5          7           -.000084995    -.000108407     .000010132
    6          6            .000144888     .000041070     .000053598
    7          1            .000004113     .000015533    -.000042809
 -------------------------------------------------------------------
 Cartesian Forces:  Max      .000144888 RMS      .000059149
 NDeriv=  21 NFrqRd=  0 LFDDif=       0
 NDeriv=  21 NFrqRd=  0 LFDDif=       0
 Re-enter D2Numr: IAtom=  7 IXYZ=3 IStep= 1.
 Skip step-back as it is equivalent to step-up.
 Maximum difference in off-diagonal FC elements:
 I= 17 J= 13 Difference=    8.7501509024D-05
 Max difference between analytic and numerical forces:
 I= 17 Difference=    2.3079812490D-05
 Full mass-weighted force constant matrix:
 Low frequencies ---   -9.0644   -4.5101    -.0767    2.4868    3.1228    6.5267
 Low frequencies ---  624.7887  701.1877  742.6196
 Diagonal vibrational polarizability:
        1.1667444        .8886926       6.4997427
 Harmonic frequencies (cm**-1), IR intensities (KM/Mole), Raman scattering
 activities (A**4/AMU), depolarization ratios for plane and unpolarized
 incident light, reduced masses (AMU), force constants (mDyne/A),
 and normal coordinates:
                     1                      2                      3
                    A"                     A"                     A"
 Frequencies --   624.7887               701.1877               742.6196
 Red. masses --     2.1445                 1.9120                 5.0443
 Frc consts  --      .4932                  .5539                 1.6390
 IR Inten    --    61.8932                11.7365                15.0239
 Atom AN      X      Y      Z        X      Y      Z        X      Y      Z
   1   7      .00    .00    .02      .00    .00    .07      .00    .00    .37
   2   7      .00    .00   -.12      .00    .00    .06      .00    .00   -.33
   3   7      .00    .00    .25      .00    .00   -.06      .00    .00    .09
   4   1      .00    .00   -.91      .00    .00   -.84      .00    .00    .83
   5   7      .00    .00    .04      .00    .00   -.18      .00    .00   -.23
   6   6      .00    .00   -.11      .00    .00    .17      .00    .00    .04
   7   1      .00    .00   -.30      .00    .00    .48      .00    .00    .01
                     4                      5                      6
                    A"                     A'                     A'
 Frequencies --   847.2726               963.0906              1006.1817
 Red. masses --     1.3474                 4.4701                 5.9913
 Frc consts  --      .5699                 2.4429                 3.5737
 IR Inten    --    22.8701                 2.6882                 3.6979
 Atom AN      X      Y      Z        X      Y      Z        X      Y      Z
   1   7      .00    .00    .02      .03    .15    .00      .14   -.10    .00
   2   7      .00    .00    .00     -.13    .18    .00      .18   -.07    .00
   3   7      .00    .00    .03     -.10   -.03    .00      .00    .43    .00
   4   1      .00    .00    .06      .48    .00    .00     -.07    .45    .00
   5   7      .00    .00    .03      .32   -.24    .00     -.03   -.19    .00
   6   6      .00    .00   -.17     -.14   -.10    .00     -.32   -.07    .00
   7   1      .00    .00    .98     -.36    .60    .00     -.18   -.60    .00
                     7                      8                      9
                    A'                     A'                     A'
 Frequencies --  1081.2257              1109.8200              1145.6222
 Red. masses --     4.2468                 3.5770                 2.5539
 Frc consts  --     2.9251                 2.5958                 1.9749
 IR Inten    --    29.9459                12.5504                12.5419
 Atom AN      X      Y      Z        X      Y      Z        X      Y      Z
   1   7      .37   -.06    .00      .13    .03    .00      .12    .26    .00
   2   7     -.21    .10    .00      .29    .13    .00     -.03   -.07    .00
   3   7      .03   -.07    .00     -.12   -.16    .00     -.12   -.03    .00
   4   1      .84   -.03    .00     -.47   -.19    .00     -.60   -.06    .00
   5   7     -.19    .06    .00     -.16   -.05    .00      .01   -.01    .00
   6   6     -.06   -.01    .00     -.09    .02    .00      .06   -.11    .00
   7   1     -.01   -.22    .00     -.31    .67    .00      .23   -.68    .00
                    10                     11                     12
                    A'                     A'                     A'
 Frequencies --  1187.4846              1262.6537              1472.2778
 Red. masses --     3.8180                 3.0182                 2.4397
 Frc consts  --     3.1721                 2.8350                 3.1158
 IR Inten    --     2.0285                 1.5414                21.6046
 Atom AN      X      Y      Z        X      Y      Z        X      Y      Z
   1   7     -.02    .25    .00     -.06   -.05    .00      .04   -.02    .00
   2   7      .06   -.31    .00      .13    .08    .00     -.10    .05    .00
   3   7      .13   -.05    .00     -.07   -.13    .00      .24   -.04    .00
   4   1      .70   -.04    .00      .41   -.13    .00     -.89   -.12    .00
   5   7     -.06    .06    .00      .14    .21    .00      .05    .08    .00
   6   6     -.18    .02    .00     -.20   -.06    .00     -.16   -.08    .00
   7   1     -.33    .43    .00      .01   -.81    .00     -.27    .12    .00
                    13                     14                     15
                    A'                     A'                     A'
 Frequencies --  1489.1720              3328.7990              3671.0686
 Red. masses --     4.6567                 1.1010                 1.0846
 Frc consts  --     6.0845                 7.1878                 8.6120
 IR Inten    --     7.5440                 2.8527               113.6747
 Atom AN      X      Y      Z        X      Y      Z        X      Y      Z
   1   7      .02   -.05    .00      .00    .00    .00      .00    .00    .00
   2   7      .02   -.03    .00      .00    .00    .00      .00    .00    .00
   3   7     -.11    .15    .00      .00    .00    .00      .01   -.08    .00
   4   1      .12    .19    .00      .01    .02    .00     -.06   1.00    .00
   5   7     -.01    .24    .00      .00    .00    .00      .00    .00    .00
   6   6      .12   -.45    .00      .09    .03    .00      .00    .00    .00
   7   1     -.26    .75    .00     -.95   -.30    .00      .02    .00    .00

 -------------------
 - Thermochemistry -
 -------------------
 Temperature   298.150 Kelvin.  Pressure   1.00000 Atm.
 Atom  1 has atomic number  7 and mass  14.00307
 Atom  2 has atomic number  7 and mass  14.00307
 Atom  3 has atomic number  7 and mass  14.00307
 Atom  4 has atomic number  1 and mass   1.00783
 Atom  5 has atomic number  7 and mass  14.00307
 Atom  6 has atomic number  6 and mass  12.00000
 Atom  7 has atomic number  1 and mass   1.00783
 Molecular mass:    70.02795 amu.
 Principal axes and moments of inertia in atomic units:
                           1         2         3
     EIGENVALUES --   171.35907 175.19594 346.55502
           X            -.65257    .75773    .00000
           Y             .75773    .65257    .00000
           Z             .00000    .00000   1.00000
 This molecule is an asymmetric top.
 Rotational symmetry number  1.
 Rotational temperatures (Kelvin)       .50545      .49438      .24993
 Rotational constants (GHZ):          10.53193    10.30127     5.20766
 Zero-point vibrational energy     123414.3 (Joules/Mol)
                                   29.49673 (Kcal/Mol)
 Vibrational temperatures:    898.93  1008.85  1068.46  1219.03  1385.67
          (Kelvin)           1447.67  1555.64  1596.78  1648.29  1708.52
                             1816.67  2118.28  2142.58  4789.39  5281.84
 
 Zero-point correction=                            .047006 (Hartree/Particle)
 Thermal correction to Energy=                     .050451
 Thermal correction to Enthalpy=                   .051396
 Thermal correction to Gibbs Free Energy=          .020922
 Sum of electronic and zero-point Energies=           -257.758275
 Sum of electronic and thermal Energies=              -257.754830
 Sum of electronic and thermal Enthalpies=            -257.753885
 Sum of electronic and thermal Free Energies=         -257.784359
 
                     E (Thermal)             CV                S
                      KCal/Mol        Cal/Mol-Kelvin    Cal/Mol-Kelvin
 Total                   31.659             11.236             64.138
 Electronic                .000               .000               .000
 Translational             .889              2.981             38.656
 Rotational                .889              2.981             23.857
 Vibrational             29.881              5.275              1.625
                       Q            Log10(Q)             Ln(Q)
 Total Bot        .238113D-09         -9.623217        -22.158276
 Total V=0        .995435D+12         11.998013         27.626445
 Vib (Bot)        .283121D-21        -21.548028        -49.616167
 Vib (V=0)        .118359D+01           .073202           .168555
 Electronic       .100000D+01           .000000           .000000
 Translational    .230336D+08          7.362362         16.952466
 Rotational       .365130D+05          4.562448         10.505425
 ***** Axes restored to original set *****
 -------------------------------------------------------------------
 Center     Atomic                   Forces (Hartrees/Bohr)
 Number     Number              X              Y              Z
 -------------------------------------------------------------------
    1          7            .000022496     .000045436     .000000000
    2          7           -.000090284    -.000074860     .000000000
    3          7            .000029031     .000091069     .000000000
    4          1            .000021413     .000018847     .000000000
    5          7           -.000134154    -.000031097     .000000000
    6          6            .000138286    -.000058813     .000000000
    7          1            .000013212     .000009419     .000000000
 -------------------------------------------------------------------
 Cartesian Forces:  Max      .000138286 RMS      .000056940

 GradGradGradGradGradGradGradGradGradGradGradGradGradGradGradGradGradGrad
 Berny optimization.
 Internal  Forces:  Max      .000124086 RMS      .000038518
 Search for a local minimum.
 Step number   1 out of a maximum of   2
 All quantities printed in internal units (Hartrees-Bohrs-Radians)
 Second derivative matrix not updated -- analytic derivatives used.
     Eigenvalues ---     .00943    .02507    .07268    .07950    .09928
     Eigenvalues ---     .10515    .19963    .28256    .34141    .36694
     Eigenvalues ---     .39062    .47352    .48769    .54441    .61154
     Eigenvalues --- 1000.000001000.000001000.000001000.000001000.00000
     Eigenvalues --- 1000.000001000.000001000.000001000.000001000.00000
     Eigenvalues --- 1000.00000
 Angle between quadratic step and forces=  19.75 degrees.
 Linear search not attempted -- first point.
 Iteration  1 RMS(Cart)=   .00008319 RMS(Int)=   .00000001
 Iteration  2 RMS(Cart)=   .00000000 RMS(Int)=   .00000000
 Variable       Old X    -DE/DX   Delta X   Delta X   Delta X     New X
                                 (Linear)    (Quad)   (Total)
    R1        2.48271   -.00005    .00000   -.00019   -.00019   2.48251
    R2        2.56245   -.00001    .00000   -.00007   -.00007   2.56238
    R3        2.52975    .00007    .00000    .00018    .00018   2.52993
    R4        1.90294    .00003    .00000    .00006    .00006   1.90299
    R5        2.53788    .00009    .00000    .00020    .00020   2.53808
    R6        2.49614    .00012    .00000    .00025    .00025   2.49638
    R7        2.02916    .00001    .00000    .00002    .00002   2.02918
    A1        1.93751    .00002    .00000    .00009    .00009   1.93760
    A2        1.84190    .00004    .00000    .00006    .00006   1.84196
    A3        2.09607    .00002    .00000    .00007    .00007   2.09614
    A4        1.90871   -.00003    .00000   -.00007   -.00007   1.90864
    A5        2.27840    .00001    .00000    .00000    .00000   2.27841
    A6        1.84730    .00001    .00000    .00002    .00002   1.84732
    A7        1.88935   -.00004    .00000   -.00011   -.00011   1.88925
    A8        2.17981    .00001    .00000   -.00006   -.00006   2.17974
    A9        2.21402    .00004    .00000    .00017    .00017   2.21419
    D1         .00000    .00000    .00000    .00000    .00000    .00000
    D2         .00000    .00000    .00000    .00000    .00000    .00000
    D3        3.14159    .00000    .00000    .00000    .00000   3.14159
    D4         .00000    .00000    .00000    .00000    .00000    .00000
    D5         .00000    .00000    .00000    .00000    .00000    .00000
    D6        3.14159    .00000    .00000    .00000    .00000   3.14159
    D7        3.14159    .00000    .00000    .00000    .00000   3.14159
    D8         .00000    .00000    .00000    .00000    .00000    .00000
    D9         .00000    .00000    .00000    .00000    .00000    .00000
   D10        3.14159    .00000    .00000    .00000    .00000   3.14159
         Item               Value     Threshold  Converged?
 Maximum Force             .000124      .000450     YES
 RMS     Force             .000039      .000300     YES
 Maximum Displacement      .000230      .001800     YES
 RMS     Displacement      .000083      .001200     YES
 Predicted change in Energy=-4.594930D-08
 Optimization completed.
    -- Stationary point found.
                           ----------------------------
                           !   Optimized Parameters   !
                           ! (Angstroms and Degrees)  !
 --------------------------                            --------------------------
 ! Name  Definition              Value          Derivative Info.                !
 --------------------------------------------------------------------------------
 ! R1    R(1,2)                  1.3138         -DE/DX =   -0.0001              !
 ! R2    R(1,5)                  1.356          -DE/DX =    0.0                 !
 ! R3    R(2,3)                  1.3387         -DE/DX =    0.0001              !
 ! R4    R(3,4)                  1.007          -DE/DX =    0.0                 !
 ! R5    R(3,6)                  1.343          -DE/DX =    0.0001              !
 ! R6    R(5,6)                  1.3209         -DE/DX =    0.0001              !
 ! R7    R(6,7)                  1.0738         -DE/DX =    0.0                 !
 ! A1    A(2,1,5)              111.011          -DE/DX =    0.0                 !
 ! A2    A(1,2,3)              105.5333         -DE/DX =    0.0                 !
 ! A3    A(2,3,4)              120.0959         -DE/DX =    0.0                 !
 ! A4    A(2,3,6)              109.3613         -DE/DX =    0.0                 !
 ! A5    A(4,3,6)              130.5429         -DE/DX =    0.0                 !
 ! A6    A(1,5,6)              105.8424         -DE/DX =    0.0                 !
 ! A7    A(3,6,5)              108.252          -DE/DX =    0.0                 !
 ! A8    A(3,6,7)              124.8937         -DE/DX =    0.0                 !
 ! A9    A(5,6,7)              126.8542         -DE/DX =    0.0                 !
 ! D1    D(5,1,2,3)              0.0            -DE/DX =    0.0                 !
 ! D2    D(2,1,5,6)              0.0            -DE/DX =    0.0                 !
 ! D3    D(1,2,3,4)            180.0            -DE/DX =    0.0                 !
 ! D4    D(1,2,3,6)              0.0            -DE/DX =    0.0                 !
 ! D5    D(2,3,6,5)              0.0            -DE/DX =    0.0                 !
 ! D6    D(2,3,6,7)            180.0            -DE/DX =    0.0                 !
 ! D7    D(4,3,6,5)            180.0            -DE/DX =    0.0                 !
 ! D8    D(4,3,6,7)              0.0            -DE/DX =    0.0                 !
 ! D9    D(1,5,6,3)              0.0            -DE/DX =    0.0                 !
 ! D10   D(1,5,6,7)            180.0            -DE/DX =    0.0                 !
 --------------------------------------------------------------------------------
 GradGradGradGradGradGradGradGradGradGradGradGradGradGradGradGradGradGrad

 1\1\GINC-HAL6\Freq\RMP2-FC\CC-pVTZ\C1H2N4\RDJ3\14-Jul-2006\0\\#N GEOM=
 ALLCHECK GUESS=READ SCRF=CHECK GENCHK RMP2(FC)/CC-PVTZ FREQ\\1H tetraz
 ole c CH-NH-N=N-N= casno=288948 method=3 basis=6\\0,1\N,-1.1463328696,
 -0.2759069925,0.\N,-0.6727228822,0.9495498655,0.\N,0.6595790478,0.8189
 855031,0.\H,1.2470986553,1.6368189408,0.\N,-0.1408765913,-1.1857252634
 ,0.\C,0.9791118505,-0.4854378934,0.\H,1.9807033092,-0.87251337,0.\\Ver
 sion=IBM64-RS6000-G03RevB.05\State=1-A'\HF=-256.8405729\MP2=-257.80528
 1\RMSD=1.646e-09\RMSF=5.694e-05\Dipole=1.9473705,0.8586583,0.\DipoleDe
 riv=-0.0479864,-0.0658683,0.,-0.1987871,0.0621388,0.,0.,0.,-0.1646011,
 0.2555233,0.1145313,0.,0.1996445,-0.3069511,0.,0.,0.,-0.102479,-0.3560
 967,-0.1805477,0.,-0.2226262,-0.2687773,0.,0.,0.,-0.0853436,0.2290444,
 0.0647919,0.,0.0433348,0.2857847,0.,0.,0.,0.321056,-0.2731889,0.066795
 1,0.,0.0801898,-0.3453601,0.,0.,0.,-0.193812,0.1262136,0.0022303,0.,0.
 0955544,0.4607267,0.,0.,0.,0.0439783,0.0655279,-0.0014888,0.,0.0027188
 ,0.1125672,0.,0.,0.,0.1807188\PG=CS [SG(C1H2N4)]\NImag=0\\0.53114029,0
 .04927625,0.41371715,0.,0.,0.12356768,-0.12935369,-0.10477636,0.,0.469
 17321,-0.01001453,-0.23650461,0.,-0.05346927,0.50522336,0.,0.,-0.09593
 403,0.,0.,0.11501701,-0.09775780,-0.09146085,0.,-0.26114404,0.01884959
 ,0.,0.68903583,-0.03966137,-0.05571572,0.,0.07075840,-0.12043228,0.,0.
 18288025,0.93522529,0.,0.,0.02542733,0.,0.,-0.07020095,0.,0.,0.0995753
 1,-0.01024456,-0.00034148,0.,-0.00743171,-0.03236724,0.,-0.19630469,-0
 .18393461,0.,0.20019592,0.00754904,0.00232239,0.,0.00531696,0.01048504
 ,0.,-0.19186250,-0.33930416,0.,0.19934997,0.33480156,0.,0.,0.00877301,
 0.,0.,-0.01222581,0.,0.,-0.00980351,0.,0.,0.01562082,-0.17564804,0.087
 79580,0.,-0.00212503,0.06958869,0.,-0.01490297,-0.09034175,0.,-0.00002
 650,-0.00018379,0.,0.48810633,0.01709066,-0.13425982,0.,-0.00095139,-0
 .11324652,0.,-0.00946269,-0.07426699,0.,0.00892166,-0.00554501,0.,0.09
 467695,0.50979329,0.,0.,-0.09034938,0.,0.,0.03538161,0.,0.,0.02147788,
 0.,0.,0.00712083,0.,0.,0.10999606,-0.11518870,0.05954145,0.,-0.0689279
 4,0.01173773,0.,-0.12464660,0.06485523,0.,0.01426727,-0.02058946,0.,-0
 .28256041,-0.12188590,0.,0.90982049,-0.01745169,0.01217056,0.,0.082761
 85,-0.03941860,0.,0.05986163,-0.34113403,0.,0.00858640,-0.00264542,0.,
 -0.14411511,-0.19681559,0.,-0.10047686,0.66624851,0.,0.,0.01972352,0.,
 0.,0.02132499,0.,0.,-0.06304272,0.,0.,-0.00858789,0.,0.,-0.07825509,0.
 ,0.,0.13720305,-0.00297825,-0.00006700,0.,-0.00014312,-0.00427944,0.,0
 .00571748,-0.00455673,0.,-0.00047370,0.00040651,0.,-0.01280502,0.01161
 978,0.,-0.33277921,0.11082116,0.,0.34344242,-0.00681278,-0.00169802,0.
 ,0.00036522,-0.00613992,0.,0.03118528,-0.00433228,0.,-0.00021531,-0.00
 011240,0.,-0.01735922,0.01434654,0.,0.10678915,-0.09846109,0.,-0.11394
 823,0.09640669,0.,0.,0.00875841,0.,0.,0.00663068,0.,0.,-0.00341781,0.,
 0.,-0.00089176,0.,0.,-0.00536344,0.,0.,-0.02836246,0.,0.,0.02265328\\-
 0.00002250,-0.00004544,0.,0.00009028,0.00007486,0.,-0.00002903,-0.0000
 9107,0.,-0.00002141,-0.00001885,0.,0.00013415,0.00003110,0.,-0.0001382
 9,0.00005881,0.,-0.00001321,-0.00000942,0.\\\@


 Sometimes the fool who rushes in gets the job done.
                                    -- Al Bernstein
 Job cpu time:  0 days 17 hours 21 minutes 52.8 seconds.
 File lengths (MBytes):  RWF=   1553 Int=      0 D2E=      0 Chk=     16 Scr=      1
 Normal termination of Gaussian 03 at Fri Jul 14 16:35:36 2006.
