 Entering Link 1 = C:\G03W\l1.exe PID=      3328.
  
 Copyright (c) 1988,1990,1992,1993,1995,1998,2003, Gaussian, Inc.
                  All Rights Reserved.
  
 This is the Gaussian(R) 03 program.  It is based on the
 the Gaussian(R) 98 system (copyright 1998, Gaussian, Inc.),
 the Gaussian(R) 94 system (copyright 1995, Gaussian, Inc.),
 the Gaussian 92(TM) system (copyright 1992, Gaussian, Inc.),
 the Gaussian 90(TM) system (copyright 1990, Gaussian, Inc.),
 the Gaussian 88(TM) system (copyright 1988, Gaussian, Inc.),
 the Gaussian 86(TM) system (copyright 1986, Carnegie Mellon
 University), and the Gaussian 82(TM) system (copyright 1983,
 Carnegie Mellon University). Gaussian is a federally registered
 trademark of Gaussian, Inc.
  
 This software contains proprietary and confidential information,
 including trade secrets, belonging to Gaussian, Inc.
  
 This software is provided under written license and may be
 used, copied, transmitted, or stored only in accord with that
 written license.
  
 The following legend is applicable only to US Government
 contracts under DFARS:
  
                    RESTRICTED RIGHTS LEGEND
  
 Use, duplication or disclosure by the US Government is subject
 to restrictions as set forth in subparagraph (c)(1)(ii) of the
 Rights in Technical Data and Computer Software clause at DFARS
 252.227-7013.
  
 Gaussian, Inc.
 Carnegie Office Park, Building 6, Pittsburgh, PA 15106 USA
  
 The following legend is applicable only to US Government
 contracts under FAR:
  
                    RESTRICTED RIGHTS LEGEND
  
 Use, reproduction and disclosure by the US Government is subject
 to restrictions as set forth in subparagraph (c) of the
 Commercial Computer Software - Restricted Rights clause at FAR
 52.227-19.
  
 Gaussian, Inc.
 Carnegie Office Park, Building 6, Pittsburgh, PA 15106 USA
  
  
 ---------------------------------------------------------------
 Warning -- This program may not be used in any manner that
 competes with the business of Gaussian, Inc. or will provide
 assistance to any competitor of Gaussian, Inc.  The licensee
 of this program is prohibited from giving any competitor of
 Gaussian, Inc. access to this program.  By using this program,
 the user acknowledges that Gaussian, Inc. is engaged in the
 business of creating and licensing software in the field of
 computational chemistry and represents and warrants to the
 licensee that it is not a competitor of Gaussian, Inc. and that
 it will not use this program in any manner prohibited above.
 ---------------------------------------------------------------
  

 Cite this work as:
 Gaussian 03, Revision B.05,
 M. J. Frisch, G. W. Trucks, H. B. Schlegel, G. E. Scuseria, 
 M. A. Robb, J. R. Cheeseman, J. A. Montgomery, Jr., T. Vreven, 
 K. N. Kudin, J. C. Burant, J. M. Millam, S. S. Iyengar, J. Tomasi, 
 V. Barone, B. Mennucci, M. Cossi, G. Scalmani, N. Rega, 
 G. A. Petersson, H. Nakatsuji, M. Hada, M. Ehara, K. Toyota, 
 R. Fukuda, J. Hasegawa, M. Ishida, T. Nakajima, Y. Honda, O. Kitao, 
 H. Nakai, M. Klene, X. Li, J. E. Knox, H. P. Hratchian, J. B. Cross, 
 C. Adamo, J. Jaramillo, R. Gomperts, R. E. Stratmann, O. Yazyev, 
 A. J. Austin, R. Cammi, C. Pomelli, J. W. Ochterski, P. Y. Ayala, 
 K. Morokuma, G. A. Voth, P. Salvador, J. J. Dannenberg, 
 V. G. Zakrzewski, S. Dapprich, A. D. Daniels, M. C. Strain, 
 O. Farkas, D. K. Malick, A. D. Rabuck, K. Raghavachari, 
 J. B. Foresman, J. V. Ortiz, Q. Cui, A. G. Baboul, S. Clifford, 
 J. Cioslowski, B. B. Stefanov, G. Liu, A. Liashenko, P. Piskorz, 
 I. Komaromi, R. L. Martin, D. J. Fox, T. Keith, M. A. Al-Laham, 
 C. Y. Peng, A. Nanayakkara, M. Challacombe, P. M. W. Gill, 
 B. Johnson, W. Chen, M. W. Wong, C. Gonzalez, and J. A. Pople, 
 Gaussian, Inc., Pittsburgh PA, 2003.
 
 **********************************************
 Gaussian 03:  x86-Win32-G03RevB.05  8-Nov-2003
                  22-Feb-2008 
 **********************************************
 %mem=24000000
 --------------------
 #LSDA/3-21G opt freq
 --------------------
 1/14=-1,18=20,26=3,38=1/1,3;
 2/9=110,17=6,18=5,40=1/2;
 3/5=5,11=2,16=1,25=1,30=1,74=205/1,2,3;
 4//1;
 5/5=2,38=5/2;
 6/7=2,8=2,9=2,10=2,28=1/1;
 7//1,2,3,16;
 1/14=-1,18=20/3(1);
 99//99;
 2/9=110/2;
 3/5=5,11=2,16=1,25=1,30=1,74=205/1,2,3;
 4/5=5,16=3/1;
 5/5=2,38=5/2;
 7//1,2,3,16;
 1/14=-1,18=20/3(-5);
 2/9=110/2;
 6/7=2,8=2,9=2,10=2,19=2,28=1/1;
 99/9=1/99;
 ---------------------------------------------------------
 1htz 1H-Tetrazole casno=288948 method=51 basis=2 config=1
 ---------------------------------------------------------
 Symbolic Z-matrix:
 Charge =  0 Multiplicity = 1
 N                    -0.71631  -0.90193   0. 
 N                    -1.09552   0.29142   0. 
 N                     0.        1.03878   0. 
 H                    -0.06148   2.03099   0. 
 N                     0.62215  -0.9895    0. 
 C                     1.05281   0.22578   0. 
 H                     2.07237   0.54298   0. 
 

 GradGradGradGradGradGradGradGradGradGradGradGradGradGradGradGradGradGrad
 Berny optimization.
 Initialization pass.
                           ----------------------------
                           !    Initial Parameters    !
                           ! (Angstroms and Degrees)  !
 --------------------------                            --------------------------
 ! Name  Definition              Value          Derivative Info.                !
 --------------------------------------------------------------------------------
 ! R1    R(1,2)                  1.2522         estimate D2E/DX2                !
 ! R2    R(1,5)                  1.3413         estimate D2E/DX2                !
 ! R3    R(2,3)                  1.3262         estimate D2E/DX2                !
 ! R4    R(3,4)                  0.9941         estimate D2E/DX2                !
 ! R5    R(3,6)                  1.3302         estimate D2E/DX2                !
 ! R6    R(5,6)                  1.2893         estimate D2E/DX2                !
 ! R7    R(6,7)                  1.0678         estimate D2E/DX2                !
 ! A1    A(2,1,5)              111.3714         estimate D2E/DX2                !
 ! A2    A(1,2,3)              106.673          estimate D2E/DX2                !
 ! A3    A(2,3,4)              120.7559         estimate D2E/DX2                !
 ! A4    A(2,3,6)              108.0227         estimate D2E/DX2                !
 ! A5    A(4,3,6)              131.2214         estimate D2E/DX2                !
 ! A6    A(1,5,6)              105.7701         estimate D2E/DX2                !
 ! A7    A(3,6,5)              108.1628         estimate D2E/DX2                !
 ! A8    A(3,6,7)              125.0426         estimate D2E/DX2                !
 ! A9    A(5,6,7)              126.7946         estimate D2E/DX2                !
 ! D1    D(5,1,2,3)              0.0            estimate D2E/DX2                !
 ! D2    D(2,1,5,6)              0.0            estimate D2E/DX2                !
 ! D3    D(1,2,3,4)            180.0            estimate D2E/DX2                !
 ! D4    D(1,2,3,6)              0.0            estimate D2E/DX2                !
 ! D5    D(2,3,6,5)              0.0            estimate D2E/DX2                !
 ! D6    D(2,3,6,7)            180.0            estimate D2E/DX2                !
 ! D7    D(4,3,6,5)            180.0            estimate D2E/DX2                !
 ! D8    D(4,3,6,7)              0.0            estimate D2E/DX2                !
 ! D9    D(1,5,6,3)              0.0            estimate D2E/DX2                !
 ! D10   D(1,5,6,7)            180.0            estimate D2E/DX2                !
 --------------------------------------------------------------------------------
 Trust Radius=3.00D-01 FncErr=1.00D-07 GrdErr=1.00D-06
 Number of steps in this run=  36 maximum allowed number of steps= 100.
 GradGradGradGradGradGradGradGradGradGradGradGradGradGradGradGradGradGrad

                          Input orientation:                          
 ---------------------------------------------------------------------
 Center     Atomic     Atomic              Coordinates (Angstroms)
 Number     Number      Type              X           Y           Z
 ---------------------------------------------------------------------
    1          7             0       -0.716312   -0.901934    0.000000
    2          7             0       -1.095520    0.291420    0.000000
    3          7             0        0.000000    1.038775    0.000000
    4          1             0       -0.061479    2.030994    0.000000
    5          7             0        0.622151   -0.989495    0.000000
    6          6             0        1.052813    0.225779    0.000000
    7          1             0        2.072370    0.542976    0.000000
 ---------------------------------------------------------------------
                    Distance matrix (angstroms):
                    1          2          3          4          5
     1  N    0.000000
     2  N    1.252155   0.000000
     3  N    2.068684   1.326161   0.000000
     4  H    3.005141   2.023699   0.994122   0.000000
     5  N    1.341324   2.142694   2.121544   3.096886   0.000000
     6  C    2.097985   2.149336   1.330180   2.121426   1.289326
     7  H    3.140782   3.177862   2.130853   2.601444   2.109882
                    6          7
     6  C    0.000000
     7  H    1.067760   0.000000
 Stoichiometry    CH2N4
 Framework group  CS[SG(CH2N4)]
 Deg. of freedom    11
 Full point group                 CS      NOp   2
 Largest Abelian subgroup         CS      NOp   2
 Largest concise Abelian subgroup C1      NOp   1
                         Standard orientation:                         
 ---------------------------------------------------------------------
 Center     Atomic     Atomic              Coordinates (Angstroms)
 Number     Number      Type              X           Y           Z
 ---------------------------------------------------------------------
    1          7             0       -0.716312   -0.901934    0.000000
    2          7             0       -1.095520    0.291420    0.000000
    3          7             0        0.000000    1.038775    0.000000
    4          1             0       -0.061479    2.030994    0.000000
    5          7             0        0.622151   -0.989495    0.000000
    6          6             0        1.052813    0.225779    0.000000
    7          1             0        2.072370    0.542976    0.000000
 ---------------------------------------------------------------------
 Rotational constants (GHZ):     10.9198649     10.7343934      5.4131674
 Standard basis: 3-21G (6D, 7F)
 There are    39 symmetry adapted basis functions of A'  symmetry.
 There are    10 symmetry adapted basis functions of A"  symmetry.
 Integral buffers will be    262144 words long.
 Raffenetti 2 integral format.
 Two-electron integral symmetry is turned on.
    49 basis functions,    81 primitive gaussians,    49 cartesian basis functions
    18 alpha electrons       18 beta electrons
       nuclear repulsion energy       169.8288229759 Hartrees.
 NAtoms=    7 NActive=    7 NUniq=    7 SFac= 1.00D+00 NAtFMM=   60 Big=F
 One-electron integrals computed using PRISM.
 NBasis=    49 RedAO= T  NBF=    39    10
 NBsUse=    49 1.00D-06 NBFU=    39    10
 Harris functional with IExCor=  205 diagonalized for initial guess.
 ExpMin= 1.83D-01 ExpMax= 2.43D+02 ExpMxC= 2.43D+02 IAcc=1 IRadAn=         1 AccDes= 1.00D-06
 HarFok:  IExCor= 205 AccDes= 1.00D-06 IRadAn=         1 IDoV=1
 ScaDFX=  1.000000  1.000000  1.000000  1.000000
 Initial guess orbital symmetries:
       Occupied  (A') (A') (A') (A') (A') (A') (A') (A') (A') (A')
                 (A') (A') (A") (A') (A") (A") (A') (A')
       Virtual   (A") (A") (A') (A') (A') (A') (A') (A') (A') (A')
                 (A") (A') (A') (A') (A') (A") (A') (A") (A') (A")
                 (A') (A") (A') (A') (A') (A') (A') (A') (A') (A')
                 (A')
 The electronic state of the initial guess is 1-A'.
 Requested convergence on RMS density matrix=1.00D-08 within 128 cycles.
 Requested convergence on MAX density matrix=1.00D-06.
 Requested convergence on             energy=1.00D-06.
 No special actions if energy rises.
 Keep R1 integrals in memory in canonical form, NReq=     1293513.
 Integral accuracy reduced to 1.0D-05 until final iterations.
 Initial convergence to 1.0D-05 achieved.  Increase integral accuracy.
 SCF Done:  E(RS-VWN) =  -255.413824018     A.U. after   15 cycles
             Convg  =    0.6415D-08             -V/T =  2.0012
             S**2   =   0.0000

 **********************************************************************

            Population analysis using the SCF density.

 **********************************************************************

 Orbital symmetries:
       Occupied  (A') (A') (A') (A') (A') (A') (A') (A') (A') (A')
                 (A') (A") (A') (A') (A") (A") (A') (A')
       Virtual   (A") (A") (A') (A') (A') (A') (A') (A') (A') (A')
                 (A") (A') (A') (A') (A") (A') (A") (A') (A') (A")
                 (A') (A") (A') (A') (A') (A') (A') (A') (A') (A')
                 (A')
 The electronic state is 1-A'.
 Alpha  occ. eigenvalues --  -13.92476 -13.87904 -13.85954 -13.83478  -9.83364
 Alpha  occ. eigenvalues --   -1.14696  -0.91943  -0.87570  -0.66092  -0.65505
 Alpha  occ. eigenvalues --   -0.58646  -0.49808  -0.48563  -0.33827  -0.33027
 Alpha  occ. eigenvalues --   -0.31438  -0.25757  -0.23383
 Alpha virt. eigenvalues --   -0.06722  -0.02986   0.03482   0.07699   0.14255
 Alpha virt. eigenvalues --    0.17090   0.26375   0.31379   0.38053   0.60353
 Alpha virt. eigenvalues --    0.60388   0.73471   0.75189   0.84195   0.91370
 Alpha virt. eigenvalues --    0.95430   0.97371   0.99281   1.02478   1.05410
 Alpha virt. eigenvalues --    1.09541   1.10667   1.16382   1.27239   1.29306
 Alpha virt. eigenvalues --    1.36429   1.57489   2.01741   2.29014   2.57963
 Alpha virt. eigenvalues --    2.64950
          Condensed to atoms (all electrons):
              1          2          3          4          5          6
     1  N    6.881760   0.213410  -0.135694   0.005132   0.241318  -0.119041
     2  N    0.213410   6.974424   0.119000  -0.019164  -0.126503  -0.139144
     3  N   -0.135694   0.119000   7.201990   0.309540  -0.089547   0.171931
     4  H    0.005132  -0.019164   0.309540   0.332716   0.003873  -0.013234
     5  N    0.241318  -0.126503  -0.089547   0.003873   6.968176   0.362039
     6  C   -0.119041  -0.139144   0.171931  -0.013234   0.362039   5.073941
     7  H    0.004837   0.001910  -0.044781   0.001468  -0.031185   0.354602
              7
     1  N    0.004837
     2  N    0.001910
     3  N   -0.044781
     4  H    0.001468
     5  N   -0.031185
     6  C    0.354602
     7  H    0.425459
 Mulliken atomic charges:
              1
     1  N   -0.091722
     2  N   -0.023932
     3  N   -0.532440
     4  H    0.379670
     5  N   -0.328171
     6  C    0.308906
     7  H    0.287690
 Sum of Mulliken charges=   0.00000
 Atomic charges with hydrogens summed into heavy atoms:
              1
     1  N   -0.091722
     2  N   -0.023932
     3  N   -0.152771
     4  H    0.000000
     5  N   -0.328171
     6  C    0.596596
     7  H    0.000000
 Sum of Mulliken charges=   0.00000
 Electronic spatial extent (au):  <R**2>=   244.4785
 Charge=     0.0000 electrons
 Dipole moment (field-independent basis, Debye):
    X=     2.5035    Y=     4.9284    Z=     0.0000  Tot=     5.5278
 Quadrupole moment (field-independent basis, Debye-Ang):
   XX=   -29.1608   YY=   -26.3722   ZZ=   -27.9854
   XY=     1.6638   XZ=     0.0000   YZ=     0.0000
 Traceless Quadrupole moment (field-independent basis, Debye-Ang):
   XX=    -1.3213   YY=     1.4673   ZZ=    -0.1459
   XY=     1.6638   XZ=     0.0000   YZ=     0.0000
 Octapole moment (field-independent basis, Debye-Ang**2):
  XXX=    11.3997  YYY=    22.2516  ZZZ=     0.0000  XYY=    -0.6744
  XXY=     4.4708  XXZ=     0.0000  XZZ=    -1.0794  YZZ=     0.2252
  YYZ=     0.0000  XYZ=     0.0000
 Hexadecapole moment (field-independent basis, Debye-Ang**3):
 XXXX=  -133.8034 YYYY=  -110.6634 ZZZZ=   -22.5355 XXXY=     6.0227
 XXXZ=     0.0000 YYYX=    -1.0648 YYYZ=     0.0000 ZZZX=     0.0000
 ZZZY=     0.0000 XXYY=   -50.3673 XXZZ=   -28.4135 YYZZ=   -26.3268
 XXYZ=     0.0000 YYXZ=     0.0000 ZZXY=    -0.3753
 N-N= 1.698288229759D+02 E-N=-9.380263027269D+02  KE= 2.551165279122D+02
 Symmetry A'   KE= 2.456134326163D+02
 Symmetry A"   KE= 9.503095295927D+00
 Calling FoFCou, ICntrl=  2527 FMM=F ISym2X=1 I1Cent= 0 ISCF1= 0.
 ***** Axes restored to original set *****
 -------------------------------------------------------------------
 Center     Atomic                   Forces (Hartrees/Bohr)
 Number     Number              X              Y              Z
 -------------------------------------------------------------------
    1          7          -0.036413452   -0.082854945    0.000000000
    2          7          -0.078880193    0.048275125    0.000000000
    3          7           0.026061534    0.033163561    0.000000000
    4          1          -0.001109315    0.024071129    0.000000000
    5          7           0.043389177   -0.050278209    0.000000000
    6          6           0.036244834    0.024814422    0.000000000
    7          1           0.010707416    0.002808917    0.000000000
 -------------------------------------------------------------------
 Cartesian Forces:  Max     0.082854945 RMS     0.034891417

 GradGradGradGradGradGradGradGradGradGradGradGradGradGradGradGradGradGrad
 Berny optimization.
 Internal  Forces:  Max     0.083842131 RMS     0.027887905
 Search for a local minimum.
 Step number   1 out of a maximum of  36
 All quantities printed in internal units (Hartrees-Bohrs-Radians)
 Second derivative matrix not updated -- first step.
     Eigenvalues ---    0.02505   0.02639   0.02674   0.02834   0.16000
     Eigenvalues ---    0.16000   0.22605   0.24688   0.37515   0.48737
     Eigenvalues ---    0.50885   0.56605   0.58506   0.66912   0.78894
     Eigenvalues --- 1000.000001000.000001000.000001000.000001000.00000
     Eigenvalues --- 1000.000001000.000001000.000001000.000001000.00000
     Eigenvalues --- 1000.00000
 RFO step:  Lambda=-2.92404884D-02.
 Linear search not attempted -- first point.
 Iteration  1 RMS(Cart)=  0.04237246 RMS(Int)=  0.00020117
 Iteration  2 RMS(Cart)=  0.00011995 RMS(Int)=  0.00014682
 Iteration  3 RMS(Cart)=  0.00000002 RMS(Int)=  0.00014682
 Variable       Old X    -DE/DX   Delta X   Delta X   Delta X     New X
                                 (Linear)    (Quad)   (Total)
    R1        2.36623   0.08384   0.00000   0.10208   0.10229   2.46852
    R2        2.53474   0.05928   0.00000   0.10202   0.10214   2.63688
    R3        2.50608   0.06428   0.00000   0.10206   0.10206   2.60814
    R4        1.87862   0.02409   0.00000   0.04664   0.04664   1.92525
    R5        2.51368   0.03958   0.00000   0.05854   0.05834   2.57202
    R6        2.43647   0.05490   0.00000   0.07192   0.07179   2.50826
    R7        2.01777   0.01106   0.00000   0.02735   0.02735   2.04512
    A1        1.94380  -0.01077   0.00000  -0.01900  -0.01862   1.92518
    A2        1.86179  -0.00519   0.00000  -0.00411  -0.00387   1.85793
    A3        2.10759  -0.00195   0.00000  -0.00160  -0.00149   2.10610
    A4        1.88535   0.00460   0.00000   0.00687   0.00666   1.89201
    A5        2.29024  -0.00265   0.00000  -0.00527  -0.00517   2.28508
    A6        1.84604   0.00475   0.00000   0.01064   0.01056   1.85659
    A7        1.88780   0.00661   0.00000   0.00561   0.00527   1.89307
    A8        2.18241  -0.00281   0.00000  -0.00021  -0.00004   2.18237
    A9        2.21298  -0.00380   0.00000  -0.00540  -0.00523   2.20775
    D1        0.00000   0.00000   0.00000   0.00000   0.00000   0.00000
    D2        0.00000   0.00000   0.00000   0.00000   0.00000   0.00000
    D3        3.14159   0.00000   0.00000   0.00000   0.00000   3.14159
    D4        0.00000   0.00000   0.00000   0.00000   0.00000   0.00000
    D5        0.00000   0.00000   0.00000   0.00000   0.00000   0.00000
    D6        3.14159   0.00000   0.00000   0.00000   0.00000   3.14159
    D7        3.14159   0.00000   0.00000   0.00000   0.00000   3.14159
    D8        0.00000   0.00000   0.00000   0.00000   0.00000   0.00000
    D9        0.00000   0.00000   0.00000   0.00000   0.00000   0.00000
   D10        3.14159   0.00000   0.00000   0.00000   0.00000   3.14159
         Item               Value     Threshold  Converged?
 Maximum Force            0.083842     0.000450     NO 
 RMS     Force            0.027888     0.000300     NO 
 Maximum Displacement     0.098355     0.001800     NO 
 RMS     Displacement     0.042375     0.001200     NO 
 Predicted change in Energy=-1.524602D-02
 GradGradGradGradGradGradGradGradGradGradGradGradGradGradGradGradGradGrad

                          Input orientation:                          
 ---------------------------------------------------------------------
 Center     Atomic     Atomic              Coordinates (Angstroms)
 Number     Number      Type              X           Y           Z
 ---------------------------------------------------------------------
    1          7             0       -0.752985   -0.953981    0.000000
    2          7             0       -1.145025    0.292087    0.000000
    3          7             0        0.000317    1.062191    0.000000
    4          1             0       -0.057365    2.079357    0.000000
    5          7             0        0.640676   -1.023116    0.000000
    6          6             0        1.077509    0.230254    0.000000
    7          1             0        2.110896    0.551722    0.000000
 ---------------------------------------------------------------------
                    Distance matrix (angstroms):
                    1          2          3          4          5
     1  N    0.000000
     2  N    1.306285   0.000000
     3  N    2.152305   1.380170   0.000000
     4  H    3.112078   2.092210   1.018800   0.000000
     5  N    1.395375   2.217765   2.181413   3.180031   0.000000
     6  C    2.180166   2.223394   1.361052   2.169590   1.327313
     7  H    3.235577   3.266256   2.171433   2.652362   2.154451
                    6          7
     6  C    0.000000
     7  H    1.082233   0.000000
 Stoichiometry    CH2N4
 Framework group  CS[SG(CH2N4)]
 Deg. of freedom    11
 Full point group                 CS      NOp   2
 Largest Abelian subgroup         CS      NOp   2
 Largest concise Abelian subgroup C1      NOp   1
                         Standard orientation:                         
 ---------------------------------------------------------------------
 Center     Atomic     Atomic              Coordinates (Angstroms)
 Number     Number      Type              X           Y           Z
 ---------------------------------------------------------------------
    1          7             0       -0.738026   -0.949950    0.000000
    2          7             0       -1.139483    0.293116    0.000000
    3          7             0        0.000000    1.071864    0.000000
    4          1             0       -0.065376    2.088565    0.000000
    5          7             0        0.656118   -1.008538    0.000000
    6          6             0        1.083456    0.248101    0.000000
    7          1             0        2.114380    0.577378    0.000000
 ---------------------------------------------------------------------
 Rotational constants (GHZ):     10.2043507     10.0293012      5.0580344
 Standard basis: 3-21G (6D, 7F)
 There are    39 symmetry adapted basis functions of A'  symmetry.
 There are    10 symmetry adapted basis functions of A"  symmetry.
 Integral buffers will be    262144 words long.
 Raffenetti 2 integral format.
 Two-electron integral symmetry is turned on.
    49 basis functions,    81 primitive gaussians,    49 cartesian basis functions
    18 alpha electrons       18 beta electrons
       nuclear repulsion energy       164.1729935345 Hartrees.
 NAtoms=    7 NActive=    7 NUniq=    7 SFac= 1.00D+00 NAtFMM=   60 Big=F
 One-electron integrals computed using PRISM.
 NBasis=    49 RedAO= T  NBF=    39    10
 NBsUse=    49 1.00D-06 NBFU=    39    10
 Initial guess read from the read-write file:
 Initial guess orbital symmetries:
       Occupied  (A') (A') (A') (A') (A') (A') (A') (A') (A') (A')
                 (A') (A") (A') (A') (A") (A") (A') (A')
       Virtual   (A") (A") (A') (A') (A') (A') (A') (A') (A') (A')
                 (A") (A') (A') (A') (A") (A') (A") (A') (A') (A")
                 (A') (A") (A') (A') (A') (A') (A') (A') (A') (A')
                 (A')
 Harris functional with IExCor=  205 diagonalized for initial guess.
 ExpMin= 1.83D-01 ExpMax= 2.43D+02 ExpMxC= 2.43D+02 IAcc=1 IRadAn=         1 AccDes= 1.00D-06
 HarFok:  IExCor= 205 AccDes= 1.00D-06 IRadAn=         1 IDoV=1
 ScaDFX=  1.000000  1.000000  1.000000  1.000000
 Requested convergence on RMS density matrix=1.00D-08 within 128 cycles.
 Requested convergence on MAX density matrix=1.00D-06.
 Requested convergence on             energy=1.00D-06.
 No special actions if energy rises.
 Keep R1 integrals in memory in canonical form, NReq=     1293522.
 Integral accuracy reduced to 1.0D-05 until final iterations.
 EnCoef did     5 forward-backward iterations
 Initial convergence to 1.0D-05 achieved.  Increase integral accuracy.
 SCF Done:  E(RS-VWN) =  -255.430558643     A.U. after   15 cycles
             Convg  =    0.2255D-08             -V/T =  2.0040
             S**2   =   0.0000
 Calling FoFCou, ICntrl=  2527 FMM=F ISym2X=1 I1Cent= 0 ISCF1= 0.
 ***** Axes restored to original set *****
 -------------------------------------------------------------------
 Center     Atomic                   Forces (Hartrees/Bohr)
 Number     Number              X              Y              Z
 -------------------------------------------------------------------
    1          7          -0.003706245   -0.014770769    0.000000000
    2          7          -0.024017844    0.016554095    0.000000000
    3          7           0.015056491    0.003172295    0.000000000
    4          1          -0.001090406    0.002599697    0.000000000
    5          7           0.020635087   -0.009766133    0.000000000
    6          6          -0.007654225    0.002602855    0.000000000
    7          1           0.000777141   -0.000392040    0.000000000
 -------------------------------------------------------------------
 Cartesian Forces:  Max     0.024017844 RMS     0.009548920

 GradGradGradGradGradGradGradGradGradGradGradGradGradGradGradGradGradGrad
 Berny optimization.
 Internal  Forces:  Max     0.021302844 RMS     0.006442430
 Search for a local minimum.
 Step number   2 out of a maximum of  36
 All quantities printed in internal units (Hartrees-Bohrs-Radians)
 Update second derivatives using D2CorX and points  1  2
 Trust test= 1.10D+00 RLast= 2.08D-01 DXMaxT set to 4.24D-01
     Eigenvalues ---    0.02504   0.02635   0.02677   0.02833   0.15993
     Eigenvalues ---    0.16004   0.22593   0.24403   0.37606   0.47426
     Eigenvalues ---    0.49373   0.54261   0.58519   0.68793   0.74067
     Eigenvalues --- 1000.000001000.000001000.000001000.000001000.00000
     Eigenvalues --- 1000.000001000.000001000.000001000.000001000.00000
     Eigenvalues --- 1000.00000
 RFO step:  Lambda=-1.66921764D-03.
 Quartic linear search produced a step of  0.27741.
 Iteration  1 RMS(Cart)=  0.01689100 RMS(Int)=  0.00024041
 Iteration  2 RMS(Cart)=  0.00025275 RMS(Int)=  0.00004545
 Iteration  3 RMS(Cart)=  0.00000003 RMS(Int)=  0.00004545
 Variable       Old X    -DE/DX   Delta X   Delta X   Delta X     New X
                                 (Linear)    (Quad)   (Total)
    R1        2.46852   0.02130   0.02838   0.01566   0.04410   2.51263
    R2        2.63688   0.01476   0.02833   0.01621   0.04458   2.68145
    R3        2.60814   0.01223   0.02831   0.00697   0.03529   2.64343
    R4        1.92525   0.00266   0.01294  -0.00147   0.01146   1.93672
    R5        2.57202   0.00144   0.01618  -0.01156   0.00456   2.57658
    R6        2.50826   0.00332   0.01991  -0.01015   0.00972   2.51798
    R7        2.04512   0.00063   0.00759  -0.00247   0.00511   2.05024
    A1        1.92518   0.00307  -0.00517   0.03331   0.02826   1.95344
    A2        1.85793  -0.00852  -0.00107  -0.03186  -0.03285   1.82508
    A3        2.10610  -0.00244  -0.00041  -0.01066  -0.01104   2.09505
    A4        1.89201   0.00305   0.00185   0.00653   0.00832   1.90033
    A5        2.28508  -0.00061  -0.00143   0.00413   0.00273   2.28780
    A6        1.85659  -0.00592   0.00293  -0.03755  -0.03466   1.82194
    A7        1.89307   0.00832   0.00146   0.02956   0.03092   1.92399
    A8        2.18237  -0.00355  -0.00001  -0.01021  -0.01017   2.17220
    A9        2.20775  -0.00477  -0.00145  -0.01936  -0.02076   2.18700
    D1        0.00000   0.00000   0.00000   0.00000   0.00000   0.00000
    D2        0.00000   0.00000   0.00000   0.00000   0.00000   0.00000
    D3        3.14159   0.00000   0.00000   0.00000   0.00000   3.14159
    D4        0.00000   0.00000   0.00000   0.00000   0.00000   0.00000
    D5        0.00000   0.00000   0.00000   0.00000   0.00000   0.00000
    D6        3.14159   0.00000   0.00000   0.00000   0.00000   3.14159
    D7        3.14159   0.00000   0.00000   0.00000   0.00000   3.14159
    D8        0.00000   0.00000   0.00000   0.00000   0.00000   0.00000
    D9        0.00000   0.00000   0.00000   0.00000   0.00000   0.00000
   D10        3.14159   0.00000   0.00000   0.00000   0.00000   3.14159
         Item               Value     Threshold  Converged?
 Maximum Force            0.021303     0.000450     NO 
 RMS     Force            0.006442     0.000300     NO 
 Maximum Displacement     0.050755     0.001800     NO 
 RMS     Displacement     0.016901     0.001200     NO 
 Predicted change in Energy=-1.370529D-03
 GradGradGradGradGradGradGradGradGradGradGradGradGradGradGradGradGradGrad

                          Input orientation:                          
 ---------------------------------------------------------------------
 Center     Atomic     Atomic              Coordinates (Angstroms)
 Number     Number      Type              X           Y           Z
 ---------------------------------------------------------------------
    1          7             0       -0.750464   -0.957224    0.000000
    2          7             0       -1.171883    0.303849    0.000000
    3          7             0        0.000651    1.066690    0.000000
    4          1             0       -0.053167    2.090142    0.000000
    5          7             0        0.665935   -1.042503    0.000000
    6          6             0        1.074031    0.225920    0.000000
    7          1             0        2.108922    0.551640    0.000000
 ---------------------------------------------------------------------
                    Distance matrix (angstroms):
                    1          2          3          4          5
     1  N    0.000000
     2  N    1.329624   0.000000
     3  N    2.158797   1.398843   0.000000
     4  H    3.126126   2.107693   1.024866   0.000000
     5  N    1.418964   2.278210   2.211629   3.214121   0.000000
     6  C    2.174537   2.247266   1.363466   2.178509   1.332456
     7  H    3.233072   3.290149   2.170272   2.653605   2.150233
                    6          7
     6  C    0.000000
     7  H    1.084939   0.000000
 Stoichiometry    CH2N4
 Framework group  CS[SG(CH2N4)]
 Deg. of freedom    11
 Full point group                 CS      NOp   2
 Largest Abelian subgroup         CS      NOp   2
 Largest concise Abelian subgroup C1      NOp   1
                         Standard orientation:                         
 ---------------------------------------------------------------------
 Center     Atomic     Atomic              Coordinates (Angstroms)
 Number     Number      Type              X           Y           Z
 ---------------------------------------------------------------------
    1          7             0       -0.734724   -0.951891    0.000000
    2          7             0       -1.166327    0.305734    0.000000
    3          7             0        0.000000    1.078032    0.000000
    4          1             0       -0.062092    2.101015    0.000000
    5          7             0        0.682318   -1.025713    0.000000
    6          6             0        1.080144    0.245968    0.000000
    7          1             0        2.112367    0.580046    0.000000
 ---------------------------------------------------------------------
 Rotational constants (GHZ):     10.1040031      9.7249327      4.9554223
 Standard basis: 3-21G (6D, 7F)
 There are    39 symmetry adapted basis functions of A'  symmetry.
 There are    10 symmetry adapted basis functions of A"  symmetry.
 Integral buffers will be    262144 words long.
 Raffenetti 2 integral format.
 Two-electron integral symmetry is turned on.
    49 basis functions,    81 primitive gaussians,    49 cartesian basis functions
    18 alpha electrons       18 beta electrons
       nuclear repulsion energy       162.5139829008 Hartrees.
 NAtoms=    7 NActive=    7 NUniq=    7 SFac= 1.00D+00 NAtFMM=   60 Big=F
 One-electron integrals computed using PRISM.
 NBasis=    49 RedAO= T  NBF=    39    10
 NBsUse=    49 1.00D-06 NBFU=    39    10
 Initial guess read from the read-write file:
 Initial guess orbital symmetries:
       Occupied  (A') (A') (A') (A') (A') (A') (A') (A') (A') (A')
                 (A') (A') (A") (A') (A") (A") (A') (A')
       Virtual   (A") (A") (A') (A') (A') (A') (A') (A') (A') (A')
                 (A") (A') (A') (A') (A") (A') (A") (A') (A') (A")
                 (A") (A') (A') (A') (A') (A') (A') (A') (A') (A')
                 (A')
 Harris functional with IExCor=  205 diagonalized for initial guess.
 ExpMin= 1.83D-01 ExpMax= 2.43D+02 ExpMxC= 2.43D+02 IAcc=1 IRadAn=         1 AccDes= 1.00D-06
 HarFok:  IExCor= 205 AccDes= 1.00D-06 IRadAn=         1 IDoV=1
 ScaDFX=  1.000000  1.000000  1.000000  1.000000
 Requested convergence on RMS density matrix=1.00D-08 within 128 cycles.
 Requested convergence on MAX density matrix=1.00D-06.
 Requested convergence on             energy=1.00D-06.
 No special actions if energy rises.
 Keep R1 integrals in memory in canonical form, NReq=     1293527.
 Integral accuracy reduced to 1.0D-05 until final iterations.
 Initial convergence to 1.0D-05 achieved.  Increase integral accuracy.
 SCF Done:  E(RS-VWN) =  -255.431751202     A.U. after   14 cycles
             Convg  =    0.9619D-08             -V/T =  2.0047
             S**2   =   0.0000
 Calling FoFCou, ICntrl=  2527 FMM=F ISym2X=1 I1Cent= 0 ISCF1= 0.
 ***** Axes restored to original set *****
 -------------------------------------------------------------------
 Center     Atomic                   Forces (Hartrees/Bohr)
 Number     Number              X              Y              Z
 -------------------------------------------------------------------
    1          7          -0.009176206   -0.009466924    0.000000000
    2          7           0.004354922   -0.003341149    0.000000000
    3          7           0.010028999    0.001507182    0.000000000
    4          1           0.000783488   -0.001792575    0.000000000
    5          7          -0.000898922    0.008360592    0.000000000
    6          6          -0.004409953    0.004537898    0.000000000
    7          1          -0.000682328    0.000194976    0.000000000
 -------------------------------------------------------------------
 Cartesian Forces:  Max     0.010028999 RMS     0.004482160

 GradGradGradGradGradGradGradGradGradGradGradGradGradGradGradGradGradGrad
 Berny optimization.
 Internal  Forces:  Max     0.011504317 RMS     0.003826992
 Search for a local minimum.
 Step number   3 out of a maximum of  36
 All quantities printed in internal units (Hartrees-Bohrs-Radians)
 Update second derivatives using D2CorX and points  1  2  3
 Trust test= 8.70D-01 RLast= 1.01D-01 DXMaxT set to 4.24D-01
     Eigenvalues ---    0.02506   0.02636   0.02678   0.02831   0.15994
     Eigenvalues ---    0.16030   0.21705   0.29068   0.37266   0.37753
     Eigenvalues ---    0.49169   0.53284   0.63440   0.68403   0.76870
     Eigenvalues --- 1000.000001000.000001000.000001000.000001000.00000
     Eigenvalues --- 1000.000001000.000001000.000001000.000001000.00000
     Eigenvalues --- 1000.00000
 RFO step:  Lambda=-7.36345220D-04.
 Quartic linear search produced a step of -0.18319.
 Iteration  1 RMS(Cart)=  0.00964598 RMS(Int)=  0.00008620
 Iteration  2 RMS(Cart)=  0.00006728 RMS(Int)=  0.00003250
 Iteration  3 RMS(Cart)=  0.00000000 RMS(Int)=  0.00003250
 Variable       Old X    -DE/DX   Delta X   Delta X   Delta X     New X
                                 (Linear)    (Quad)   (Total)
    R1        2.51263   0.00025  -0.00808   0.01788   0.00983   2.52246
    R2        2.68145   0.00206  -0.00817   0.02047   0.01235   2.69380
    R3        2.64343   0.00515  -0.00646   0.02059   0.01410   2.65753
    R4        1.93672  -0.00183  -0.00210   0.00099  -0.00111   1.93560
    R5        2.57658  -0.01045  -0.00084  -0.01407  -0.01496   2.56162
    R6        2.51798  -0.00029  -0.00178   0.00274   0.00095   2.51892
    R7        2.05024  -0.00059  -0.00094   0.00039  -0.00055   2.04969
    A1        1.95344  -0.01150  -0.00518  -0.02415  -0.02923   1.92421
    A2        1.82508   0.00644   0.00602   0.01147   0.01750   1.84258
    A3        2.09505   0.00149   0.00202   0.00320   0.00526   2.10031
    A4        1.90033  -0.00166  -0.00152  -0.00479  -0.00638   1.89395
    A5        2.28780   0.00017  -0.00050   0.00159   0.00113   2.28893
    A6        1.82194   0.00754   0.00635   0.01139   0.01777   1.83971
    A7        1.92399  -0.00081  -0.00566   0.00607   0.00035   1.92434
    A8        2.17220   0.00000   0.00186  -0.00321  -0.00132   2.17088
    A9        2.18700   0.00081   0.00380  -0.00286   0.00097   2.18797
    D1        0.00000   0.00000   0.00000   0.00000   0.00000   0.00000
    D2        0.00000   0.00000   0.00000   0.00000   0.00000   0.00000
    D3        3.14159   0.00000   0.00000   0.00000   0.00000   3.14159
    D4        0.00000   0.00000   0.00000   0.00000   0.00000   0.00000
    D5        0.00000   0.00000   0.00000   0.00000   0.00000   0.00000
    D6        3.14159   0.00000   0.00000   0.00000   0.00000   3.14159
    D7        3.14159   0.00000   0.00000   0.00000   0.00000   3.14159
    D8        0.00000   0.00000   0.00000   0.00000   0.00000   0.00000
    D9        0.00000   0.00000   0.00000   0.00000   0.00000   0.00000
   D10        3.14159   0.00000   0.00000   0.00000   0.00000   3.14159
         Item               Value     Threshold  Converged?
 Maximum Force            0.011504     0.000450     NO 
 RMS     Force            0.003827     0.000300     NO 
 Maximum Displacement     0.030764     0.001800     NO 
 RMS     Displacement     0.009658     0.001200     NO 
 Predicted change in Energy=-4.298282D-04
 GradGradGradGradGradGradGradGradGradGradGradGradGradGradGradGradGradGrad

                          Input orientation:                          
 ---------------------------------------------------------------------
 Center     Atomic     Atomic              Coordinates (Angstroms)
 Number     Number      Type              X           Y           Z
 ---------------------------------------------------------------------
    1          7             0       -0.762066   -0.973504    0.000000
    2          7             0       -1.168220    0.298033    0.000000
    3          7             0        0.007363    1.069850    0.000000
    4          1             0       -0.045310    2.092772    0.000000
    5          7             0        0.662037   -1.036538    0.000000
    6          6             0        1.072656    0.231597    0.000000
    7          1             0        2.107563    0.556304    0.000000
 ---------------------------------------------------------------------
                    Distance matrix (angstroms):
                    1          2          3          4          5
     1  N    0.000000
     2  N    1.334828   0.000000
     3  N    2.183418   1.406306   0.000000
     4  H    3.148934   2.117078   1.024278   0.000000
     5  N    1.425497   2.265153   2.205781   3.208258   0.000000
     6  C    2.195102   2.241861   1.355551   2.171134   1.332957
     7  H    3.251935   3.285948   2.162075   2.644918   2.150974
                    6          7
     6  C    0.000000
     7  H    1.084650   0.000000
 Stoichiometry    CH2N4
 Framework group  CS[SG(CH2N4)]
 Deg. of freedom    11
 Full point group                 CS      NOp   2
 Largest Abelian subgroup         CS      NOp   2
 Largest concise Abelian subgroup C1      NOp   1
                         Standard orientation:                         
 ---------------------------------------------------------------------
 Center     Atomic     Atomic              Coordinates (Angstroms)
 Number     Number      Type              X           Y           Z
 ---------------------------------------------------------------------
    1          7             0       -0.738247   -0.972170    0.000000
    2          7             0       -1.163702    0.293038    0.000000
    3          7             0        0.000000    1.082655    0.000000
    4          1             0       -0.068231    2.104657    0.000000
    5          7             0        0.686650   -1.013528    0.000000
    6          6             0        1.077926    0.260708    0.000000
    7          1             0        2.107771    0.601126    0.000000
 ---------------------------------------------------------------------
 Rotational constants (GHZ):      9.9535738      9.8006151      4.9382512
 Standard basis: 3-21G (6D, 7F)
 There are    39 symmetry adapted basis functions of A'  symmetry.
 There are    10 symmetry adapted basis functions of A"  symmetry.
 Integral buffers will be    262144 words long.
 Raffenetti 2 integral format.
 Two-electron integral symmetry is turned on.
    49 basis functions,    81 primitive gaussians,    49 cartesian basis functions
    18 alpha electrons       18 beta electrons
       nuclear repulsion energy       162.2289575845 Hartrees.
 NAtoms=    7 NActive=    7 NUniq=    7 SFac= 1.00D+00 NAtFMM=   60 Big=F
 One-electron integrals computed using PRISM.
 NBasis=    49 RedAO= T  NBF=    39    10
 NBsUse=    49 1.00D-06 NBFU=    39    10
 Initial guess read from the read-write file:
 Initial guess orbital symmetries:
       Occupied  (A') (A') (A') (A') (A') (A') (A') (A') (A') (A')
                 (A') (A') (A") (A') (A") (A") (A') (A')
       Virtual   (A") (A") (A') (A') (A') (A') (A') (A') (A') (A')
                 (A") (A') (A') (A') (A") (A') (A") (A') (A') (A")
                 (A') (A") (A') (A') (A') (A') (A') (A') (A') (A')
                 (A')
 Harris functional with IExCor=  205 diagonalized for initial guess.
 ExpMin= 1.83D-01 ExpMax= 2.43D+02 ExpMxC= 2.43D+02 IAcc=1 IRadAn=         1 AccDes= 1.00D-06
 HarFok:  IExCor= 205 AccDes= 1.00D-06 IRadAn=         1 IDoV=1
 ScaDFX=  1.000000  1.000000  1.000000  1.000000
 Requested convergence on RMS density matrix=1.00D-08 within 128 cycles.
 Requested convergence on MAX density matrix=1.00D-06.
 Requested convergence on             energy=1.00D-06.
 No special actions if energy rises.
 Keep R1 integrals in memory in canonical form, NReq=     1293527.
 Integral accuracy reduced to 1.0D-05 until final iterations.
 Initial convergence to 1.0D-05 achieved.  Increase integral accuracy.
 SCF Done:  E(RS-VWN) =  -255.432033661     A.U. after   13 cycles
             Convg  =    0.5155D-08             -V/T =  2.0048
             S**2   =   0.0000
 Calling FoFCou, ICntrl=  2527 FMM=F ISym2X=1 I1Cent= 0 ISCF1= 0.
 ***** Axes restored to original set *****
 -------------------------------------------------------------------
 Center     Atomic                   Forces (Hartrees/Bohr)
 Number     Number              X              Y              Z
 -------------------------------------------------------------------
    1          7           0.002993565    0.006352587    0.000000000
    2          7          -0.001410414   -0.000607242    0.000000000
    3          7           0.001315093   -0.003525216    0.000000000
    4          1          -0.000488444   -0.001503570    0.000000000
    5          7           0.001986564    0.001610991    0.000000000
    6          6          -0.004171604   -0.001767274    0.000000000
    7          1          -0.000224759   -0.000560277    0.000000000
 -------------------------------------------------------------------
 Cartesian Forces:  Max     0.006352587 RMS     0.002135443

 GradGradGradGradGradGradGradGradGradGradGradGradGradGradGradGradGradGrad
 Berny optimization.
 Internal  Forces:  Max     0.004716543 RMS     0.001834452
 Search for a local minimum.
 Step number   4 out of a maximum of  36
 All quantities printed in internal units (Hartrees-Bohrs-Radians)
 Update second derivatives using D2CorX and points  1  2  3  4
 Trust test= 6.57D-01 RLast= 4.72D-02 DXMaxT set to 4.24D-01
     Eigenvalues ---    0.02505   0.02633   0.02681   0.02833   0.15937
     Eigenvalues ---    0.16012   0.22879   0.28732   0.37633   0.47697
     Eigenvalues ---    0.49149   0.53924   0.59996   0.74579   0.76992
     Eigenvalues --- 1000.000001000.000001000.000001000.000001000.00000
     Eigenvalues --- 1000.000001000.000001000.000001000.000001000.00000
     Eigenvalues --- 1000.00000
 RFO step:  Lambda=-6.47198951D-05.
 Quartic linear search produced a step of -0.25528.
 Iteration  1 RMS(Cart)=  0.00339175 RMS(Int)=  0.00000956
 Iteration  2 RMS(Cart)=  0.00000526 RMS(Int)=  0.00000726
 Iteration  3 RMS(Cart)=  0.00000000 RMS(Int)=  0.00000726
 Variable       Old X    -DE/DX   Delta X   Delta X   Delta X     New X
                                 (Linear)    (Quad)   (Total)
    R1        2.52246  -0.00326  -0.00251  -0.00229  -0.00481   2.51765
    R2        2.69380  -0.00103  -0.00315   0.00007  -0.00309   2.69071
    R3        2.65753  -0.00225  -0.00360  -0.00009  -0.00368   2.65385
    R4        1.93560  -0.00148   0.00028  -0.00296  -0.00268   1.93292
    R5        2.56162  -0.00200   0.00382  -0.00714  -0.00331   2.55831
    R6        2.51892  -0.00472  -0.00024  -0.00476  -0.00499   2.51393
    R7        2.04969  -0.00038   0.00014  -0.00102  -0.00088   2.04881
    A1        1.92421   0.00379   0.00746  -0.00044   0.00700   1.93120
    A2        1.84258  -0.00376  -0.00447  -0.00248  -0.00695   1.83563
    A3        2.10031  -0.00142  -0.00134  -0.00247  -0.00382   2.09649
    A4        1.89395   0.00174   0.00163   0.00248   0.00413   1.89807
    A5        2.28893  -0.00032  -0.00029  -0.00001  -0.00031   2.28862
    A6        1.83971  -0.00263  -0.00454   0.00043  -0.00411   1.83559
    A7        1.92434   0.00087  -0.00009   0.00001  -0.00006   1.92428
    A8        2.17088   0.00004   0.00034   0.00139   0.00172   2.17260
    A9        2.18797  -0.00091  -0.00025  -0.00141  -0.00166   2.18631
    D1        0.00000   0.00000   0.00000   0.00000   0.00000   0.00000
    D2        0.00000   0.00000   0.00000   0.00000   0.00000   0.00000
    D3        3.14159   0.00000   0.00000   0.00000   0.00000   3.14159
    D4        0.00000   0.00000   0.00000   0.00000   0.00000   0.00000
    D5        0.00000   0.00000   0.00000   0.00000   0.00000   0.00000
    D6        3.14159   0.00000   0.00000   0.00000   0.00000   3.14159
    D7        3.14159   0.00000   0.00000   0.00000   0.00000   3.14159
    D8        0.00000   0.00000   0.00000   0.00000   0.00000   0.00000
    D9        0.00000   0.00000   0.00000   0.00000   0.00000   0.00000
   D10        3.14159   0.00000   0.00000   0.00000   0.00000   3.14159
         Item               Value     Threshold  Converged?
 Maximum Force            0.004717     0.000450     NO 
 RMS     Force            0.001834     0.000300     NO 
 Maximum Displacement     0.010889     0.001800     NO 
 RMS     Displacement     0.003392     0.001200     NO 
 Predicted change in Energy=-6.940629D-05
 GradGradGradGradGradGradGradGradGradGradGradGradGradGradGradGradGradGrad

                          Input orientation:                          
 ---------------------------------------------------------------------
 Center     Atomic     Atomic              Coordinates (Angstroms)
 Number     Number      Type              X           Y           Z
 ---------------------------------------------------------------------
    1          7             0       -0.758875   -0.967741    0.000000
    2          7             0       -1.169286    0.299755    0.000000
    3          7             0        0.006961    1.066997    0.000000
    4          1             0       -0.046492    2.088459    0.000000
    5          7             0        0.663398   -1.035016    0.000000
    6          6             0        1.071834    0.231047    0.000000
    7          1             0        2.106483    0.555015    0.000000
 ---------------------------------------------------------------------
                    Distance matrix (angstroms):
                    1          2          3          4          5
     1  N    0.000000
     2  N    1.332285   0.000000
     3  N    2.174090   1.404356   0.000000
     4  H    3.138129   2.111902   1.022860   0.000000
     5  N    1.423864   2.267232   2.202129   3.203130   0.000000
     6  C    2.188285   2.242173   1.353798   2.168095   1.330314
     7  H    3.244852   3.285699   2.161046   2.643247   2.147252
                    6          7
     6  C    0.000000
     7  H    1.084183   0.000000
 Stoichiometry    CH2N4
 Framework group  CS[SG(CH2N4)]
 Deg. of freedom    11
 Full point group                 CS      NOp   2
 Largest Abelian subgroup         CS      NOp   2
 Largest concise Abelian subgroup C1      NOp   1
                         Standard orientation:                         
 ---------------------------------------------------------------------
 Center     Atomic     Atomic              Coordinates (Angstroms)
 Number     Number      Type              X           Y           Z
 ---------------------------------------------------------------------
    1          7             0       -0.736197   -0.966808    0.000000
    2          7             0       -1.164976    0.294592    0.000000
    3          7             0        0.000000    1.078841    0.000000
    4          1             0       -0.068286    2.099419    0.000000
    5          7             0        0.686904   -1.013414    0.000000
    6          6             0        1.076905    0.258448    0.000000
    7          1             0        2.106738    0.597413    0.000000
 ---------------------------------------------------------------------
 Rotational constants (GHZ):     10.0178877      9.7991289      4.9536504
 Standard basis: 3-21G (6D, 7F)
 There are    39 symmetry adapted basis functions of A'  symmetry.
 There are    10 symmetry adapted basis functions of A"  symmetry.
 Integral buffers will be    262144 words long.
 Raffenetti 2 integral format.
 Two-electron integral symmetry is turned on.
    49 basis functions,    81 primitive gaussians,    49 cartesian basis functions
    18 alpha electrons       18 beta electrons
       nuclear repulsion energy       162.4819953721 Hartrees.
 NAtoms=    7 NActive=    7 NUniq=    7 SFac= 1.00D+00 NAtFMM=   60 Big=F
 One-electron integrals computed using PRISM.
 NBasis=    49 RedAO= T  NBF=    39    10
 NBsUse=    49 1.00D-06 NBFU=    39    10
 Initial guess read from the read-write file:
 Initial guess orbital symmetries:
       Occupied  (A') (A') (A') (A') (A') (A') (A') (A') (A') (A')
                 (A') (A') (A") (A') (A") (A") (A') (A')
       Virtual   (A") (A") (A') (A') (A') (A') (A') (A') (A') (A')
                 (A") (A') (A') (A') (A") (A') (A") (A') (A') (A")
                 (A") (A') (A') (A') (A') (A') (A') (A') (A') (A')
                 (A')
 Requested convergence on RMS density matrix=1.00D-08 within 128 cycles.
 Requested convergence on MAX density matrix=1.00D-06.
 Requested convergence on             energy=1.00D-06.
 No special actions if energy rises.
 Keep R1 integrals in memory in canonical form, NReq=     1293527.
 SCF Done:  E(RS-VWN) =  -255.432111514     A.U. after   10 cycles
             Convg  =    0.7346D-08             -V/T =  2.0047
             S**2   =   0.0000
 Calling FoFCou, ICntrl=  2527 FMM=F ISym2X=1 I1Cent= 0 ISCF1= 0.
 ***** Axes restored to original set *****
 -------------------------------------------------------------------
 Center     Atomic                   Forces (Hartrees/Bohr)
 Number     Number              X              Y              Z
 -------------------------------------------------------------------
    1          7          -0.000117235    0.001186052    0.000000000
    2          7           0.000314848   -0.001105791    0.000000000
    3          7           0.001433350    0.000045944    0.000000000
    4          1          -0.000142461   -0.000289246    0.000000000
    5          7           0.000667826    0.000407414    0.000000000
    6          6          -0.002153023   -0.000081341    0.000000000
    7          1          -0.000003304   -0.000163031    0.000000000
 -------------------------------------------------------------------
 Cartesian Forces:  Max     0.002153023 RMS     0.000696372

 GradGradGradGradGradGradGradGradGradGradGradGradGradGradGradGradGradGrad
 Berny optimization.
 Internal  Forces:  Max     0.001266078 RMS     0.000414001
 Search for a local minimum.
 Step number   5 out of a maximum of  36
 All quantities printed in internal units (Hartrees-Bohrs-Radians)
 Update second derivatives using D2CorX and points  1  2  3  4  5

 Trust test= 1.12D+00 RLast= 1.55D-02 DXMaxT set to 4.24D-01
     Eigenvalues ---    0.02506   0.02633   0.02680   0.02832   0.15608
     Eigenvalues ---    0.16008   0.23661   0.29681   0.37611   0.45485
     Eigenvalues ---    0.47995   0.52353   0.54960   0.70214   0.77147
     Eigenvalues --- 1000.000001000.000001000.000001000.000001000.00000
     Eigenvalues --- 1000.000001000.000001000.000001000.000001000.00000
     Eigenvalues --- 1000.00000
 RFO step:  Lambda=-1.00620160D-05.
 Quartic linear search produced a step of  0.12921.
 Iteration  1 RMS(Cart)=  0.00109215 RMS(Int)=  0.00000105
 Iteration  2 RMS(Cart)=  0.00000110 RMS(Int)=  0.00000029
 Iteration  3 RMS(Cart)=  0.00000000 RMS(Int)=  0.00000029
 Variable       Old X    -DE/DX   Delta X   Delta X   Delta X     New X
                                 (Linear)    (Quad)   (Total)
    R1        2.51765  -0.00103  -0.00062  -0.00095  -0.00158   2.51608
    R2        2.69071  -0.00015  -0.00040   0.00020  -0.00020   2.69052
    R3        2.65385   0.00003  -0.00048   0.00067   0.00020   2.65405
    R4        1.93292  -0.00028  -0.00035  -0.00050  -0.00084   1.93208
    R5        2.55831  -0.00127  -0.00043  -0.00262  -0.00304   2.55526
    R6        2.51393  -0.00082  -0.00065  -0.00105  -0.00169   2.51224
    R7        2.04881  -0.00005  -0.00011  -0.00006  -0.00017   2.04864
    A1        1.93120   0.00011   0.00090  -0.00045   0.00046   1.93166
    A2        1.83563  -0.00001  -0.00090   0.00115   0.00025   1.83588
    A3        2.09649   0.00000  -0.00049   0.00013  -0.00036   2.09613
    A4        1.89807  -0.00031   0.00053  -0.00215  -0.00161   1.89646
    A5        2.28862   0.00031  -0.00004   0.00202   0.00198   2.29060
    A6        1.83559  -0.00042  -0.00053  -0.00138  -0.00191   1.83368
    A7        1.92428   0.00062  -0.00001   0.00283   0.00282   1.92710
    A8        2.17260  -0.00015   0.00022  -0.00037  -0.00015   2.17245
    A9        2.18631  -0.00047  -0.00021  -0.00246  -0.00267   2.18363
    D1        0.00000   0.00000   0.00000   0.00000   0.00000   0.00000
    D2        0.00000   0.00000   0.00000   0.00000   0.00000   0.00000
    D3        3.14159   0.00000   0.00000   0.00000   0.00000   3.14159
    D4        0.00000   0.00000   0.00000   0.00000   0.00000   0.00000
    D5        0.00000   0.00000   0.00000   0.00000   0.00000   0.00000
    D6        3.14159   0.00000   0.00000   0.00000   0.00000   3.14159
    D7        3.14159   0.00000   0.00000   0.00000   0.00000   3.14159
    D8        0.00000   0.00000   0.00000   0.00000   0.00000   0.00000
    D9        0.00000   0.00000   0.00000   0.00000   0.00000   0.00000
   D10        3.14159   0.00000   0.00000   0.00000   0.00000   3.14159
         Item               Value     Threshold  Converged?
 Maximum Force            0.001266     0.000450     NO 
 RMS     Force            0.000414     0.000300     NO 
 Maximum Displacement     0.003048     0.001800     NO 
 RMS     Displacement     0.001092     0.001200     YES
 Predicted change in Energy=-6.080098D-06
 GradGradGradGradGradGradGradGradGradGradGradGradGradGradGradGradGradGrad

                          Input orientation:                          
 ---------------------------------------------------------------------
 Center     Atomic     Atomic              Coordinates (Angstroms)
 Number     Number      Type              X           Y           Z
 ---------------------------------------------------------------------
    1          7             0       -0.758014   -0.967088    0.000000
    2          7             0       -1.168400    0.299539    0.000000
    3          7             0        0.007602    1.067347    0.000000
    4          1             0       -0.046638    2.088321    0.000000
    5          7             0        0.664137   -1.034745    0.000000
    6          6             0        1.070221    0.231135    0.000000
    7          1             0        2.105116    0.554006    0.000000
 ---------------------------------------------------------------------
                    Distance matrix (angstroms):
                    1          2          3          4          5
     1  N    0.000000
     2  N    1.331451   0.000000
     3  N    2.173728   1.404461   0.000000
     4  H    3.137129   2.111419   1.022414   0.000000
     5  N    1.423760   2.266828   2.202233   3.202927   0.000000
     6  C    2.185905   2.239666   1.352187   2.167145   1.329419
     7  H    3.242104   3.283392   2.159417   2.642758   2.144889
                    6          7
     6  C    0.000000
     7  H    1.084091   0.000000
 Stoichiometry    CH2N4
 Framework group  CS[SG(CH2N4)]
 Deg. of freedom    11
 Full point group                 CS      NOp   2
 Largest Abelian subgroup         CS      NOp   2
 Largest concise Abelian subgroup C1      NOp   1
                         Standard orientation:                         
 ---------------------------------------------------------------------
 Center     Atomic     Atomic              Coordinates (Angstroms)
 Number     Number      Type              X           Y           Z
 ---------------------------------------------------------------------
    1          7             0       -0.735333   -0.966568    0.000000
    2          7             0       -1.164476    0.293828    0.000000
    3          7             0        0.000000    1.079007    0.000000
    4          1             0       -0.069389    2.099064    0.000000
    5          7             0        0.687666   -1.013108    0.000000
    6          6             0        1.074915    0.258661    0.000000
    7          1             0        2.104903    0.596858    0.000000
 ---------------------------------------------------------------------
 Rotational constants (GHZ):     10.0229175      9.8124987      4.9582960
 Standard basis: 3-21G (6D, 7F)
 There are    39 symmetry adapted basis functions of A'  symmetry.
 There are    10 symmetry adapted basis functions of A"  symmetry.
 Integral buffers will be    262144 words long.
 Raffenetti 2 integral format.
 Two-electron integral symmetry is turned on.
    49 basis functions,    81 primitive gaussians,    49 cartesian basis functions
    18 alpha electrons       18 beta electrons
       nuclear repulsion energy       162.5588615173 Hartrees.
 NAtoms=    7 NActive=    7 NUniq=    7 SFac= 1.00D+00 NAtFMM=   60 Big=F
 One-electron integrals computed using PRISM.
 NBasis=    49 RedAO= T  NBF=    39    10
 NBsUse=    49 1.00D-06 NBFU=    39    10
 Initial guess read from the read-write file:
 Initial guess orbital symmetries:
       Occupied  (A') (A') (A') (A') (A') (A') (A') (A') (A') (A')
                 (A') (A') (A") (A') (A") (A") (A') (A')
       Virtual   (A") (A") (A') (A') (A') (A') (A') (A') (A') (A')
                 (A") (A') (A') (A') (A") (A') (A") (A') (A') (A")
                 (A") (A') (A') (A') (A') (A') (A') (A') (A') (A')
                 (A')
 Requested convergence on RMS density matrix=1.00D-08 within 128 cycles.
 Requested convergence on MAX density matrix=1.00D-06.
 Requested convergence on             energy=1.00D-06.
 No special actions if energy rises.
 Keep R1 integrals in memory in canonical form, NReq=     1293527.
 SCF Done:  E(RS-VWN) =  -255.432117642     A.U. after   10 cycles
             Convg  =    0.1412D-08             -V/T =  2.0046
             S**2   =   0.0000
 Calling FoFCou, ICntrl=  2527 FMM=F ISym2X=1 I1Cent= 0 ISCF1= 0.
 ***** Axes restored to original set *****
 -------------------------------------------------------------------
 Center     Atomic                   Forces (Hartrees/Bohr)
 Number     Number              X              Y              Z
 -------------------------------------------------------------------
    1          7          -0.000598672    0.000584646    0.000000000
    2          7          -0.000352723   -0.000931269    0.000000000
    3          7           0.000591802    0.000026294    0.000000000
    4          1          -0.000046364    0.000029835    0.000000000
    5          7           0.000195533    0.000079508    0.000000000
    6          6           0.000141492    0.000255159    0.000000000
    7          1           0.000068934   -0.000044173    0.000000000
 -------------------------------------------------------------------
 Cartesian Forces:  Max     0.000931269 RMS     0.000322360

 GradGradGradGradGradGradGradGradGradGradGradGradGradGradGradGradGradGrad
 Berny optimization.
 Internal  Forces:  Max     0.000673954 RMS     0.000211606
 Search for a local minimum.
 Step number   6 out of a maximum of  36
 All quantities printed in internal units (Hartrees-Bohrs-Radians)
 Update second derivatives using D2CorX and points  1  2  3  4  5
                                                        6
 Trust test= 1.01D+00 RLast= 6.41D-03 DXMaxT set to 4.24D-01
     Eigenvalues ---    0.02506   0.02633   0.02681   0.02831   0.14168
     Eigenvalues ---    0.16009   0.24375   0.32751   0.37653   0.41796
     Eigenvalues ---    0.48094   0.51998   0.54566   0.68472   0.83897
     Eigenvalues --- 1000.000001000.000001000.000001000.000001000.00000
     Eigenvalues --- 1000.000001000.000001000.000001000.000001000.00000
     Eigenvalues --- 1000.00000
 RFO step:  Lambda=-2.13974186D-06.
 Quartic linear search produced a step of  0.00894.
 Iteration  1 RMS(Cart)=  0.00040345 RMS(Int)=  0.00000010
 Iteration  2 RMS(Cart)=  0.00000009 RMS(Int)=  0.00000002
 Variable       Old X    -DE/DX   Delta X   Delta X   Delta X     New X
                                 (Linear)    (Quad)   (Total)
    R1        2.51608  -0.00067  -0.00001  -0.00097  -0.00099   2.51509
    R2        2.69052   0.00038   0.00000   0.00081   0.00081   2.69133
    R3        2.65405   0.00063   0.00000   0.00124   0.00124   2.65529
    R4        1.93208   0.00003  -0.00001  -0.00009  -0.00010   1.93199
    R5        2.55526  -0.00013  -0.00003  -0.00081  -0.00084   2.55442
    R6        2.51224   0.00003  -0.00002  -0.00028  -0.00030   2.51194
    R7        2.04864   0.00005   0.00000   0.00010   0.00010   2.04874
    A1        1.93166  -0.00002   0.00000   0.00002   0.00002   1.93168
    A2        1.83588   0.00000   0.00000  -0.00035  -0.00034   1.83553
    A3        2.09613  -0.00009   0.00000  -0.00072  -0.00072   2.09540
    A4        1.89646   0.00008  -0.00001   0.00035   0.00034   1.89680
    A5        2.29060   0.00000   0.00002   0.00037   0.00039   2.29098
    A6        1.83368   0.00018  -0.00002   0.00019   0.00017   1.83385
    A7        1.92710  -0.00024   0.00003  -0.00021  -0.00018   1.92691
    A8        2.17245   0.00018   0.00000   0.00078   0.00078   2.17324
    A9        2.18363   0.00006  -0.00002  -0.00057  -0.00060   2.18304
    D1        0.00000   0.00000   0.00000   0.00000   0.00000   0.00000
    D2        0.00000   0.00000   0.00000   0.00000   0.00000   0.00000
    D3        3.14159   0.00000   0.00000   0.00000   0.00000   3.14159
    D4        0.00000   0.00000   0.00000   0.00000   0.00000   0.00000
    D5        0.00000   0.00000   0.00000   0.00000   0.00000   0.00000
    D6        3.14159   0.00000   0.00000   0.00000   0.00000   3.14159
    D7        3.14159   0.00000   0.00000   0.00000   0.00000   3.14159
    D8        0.00000   0.00000   0.00000   0.00000   0.00000   0.00000
    D9        0.00000   0.00000   0.00000   0.00000   0.00000   0.00000
   D10        3.14159   0.00000   0.00000   0.00000   0.00000   3.14159
         Item               Value     Threshold  Converged?
 Maximum Force            0.000674     0.000450     NO 
 RMS     Force            0.000212     0.000300     YES
 Maximum Displacement     0.000861     0.001800     YES
 RMS     Displacement     0.000403     0.001200     YES
 Predicted change in Energy=-1.070405D-06
 GradGradGradGradGradGradGradGradGradGradGradGradGradGradGradGradGradGrad

                          Input orientation:                          
 ---------------------------------------------------------------------
 Center     Atomic     Atomic              Coordinates (Angstroms)
 Number     Number      Type              X           Y           Z
 ---------------------------------------------------------------------
    1          7             0       -0.758323   -0.966828    0.000000
    2          7             0       -1.168765    0.299232    0.000000
    3          7             0        0.007921    1.067196    0.000000
    4          1             0       -0.046880    2.088089    0.000000
    5          7             0        0.664268   -1.034289    0.000000
    6          6             0        1.070329    0.231433    0.000000
    7          1             0        2.105474    0.553682    0.000000
 ---------------------------------------------------------------------
                    Distance matrix (angstroms):
                    1          2          3          4          5
     1  N    0.000000
     2  N    1.330928   0.000000
     3  N    2.173564   1.405118   0.000000
     4  H    3.136665   2.111549   1.022363   0.000000
     5  N    1.424189   2.266779   2.201597   3.202340   0.000000
     6  C    2.186275   2.240120   1.351743   2.166870   1.329263
     7  H    3.242419   3.284111   2.159496   2.643299   2.144465
                    6          7
     6  C    0.000000
     7  H    1.084144   0.000000
 Stoichiometry    CH2N4
 Framework group  CS[SG(CH2N4)]
 Deg. of freedom    11
 Full point group                 CS      NOp   2
 Largest Abelian subgroup         CS      NOp   2
 Largest concise Abelian subgroup C1      NOp   1
                         Standard orientation:                         
 ---------------------------------------------------------------------
 Center     Atomic     Atomic              Coordinates (Angstroms)
 Number     Number      Type              X           Y           Z
 ---------------------------------------------------------------------
    1          7             0       -0.735313   -0.966631    0.000000
    2          7             0       -1.164906    0.293059    0.000000
    3          7             0        0.000000    1.078777    0.000000
    4          1             0       -0.070274    2.098722    0.000000
    5          7             0        0.688137   -1.012514    0.000000
    6          6             0        1.074959    0.259220    0.000000
    7          1             0        2.105098    0.597128    0.000000
 ---------------------------------------------------------------------
 Rotational constants (GHZ):     10.0264837      9.8093136      4.9583549
 Standard basis: 3-21G (6D, 7F)
 There are    39 symmetry adapted basis functions of A'  symmetry.
 There are    10 symmetry adapted basis functions of A"  symmetry.
 Integral buffers will be    262144 words long.
 Raffenetti 2 integral format.
 Two-electron integral symmetry is turned on.
    49 basis functions,    81 primitive gaussians,    49 cartesian basis functions
    18 alpha electrons       18 beta electrons
       nuclear repulsion energy       162.5609412022 Hartrees.
 NAtoms=    7 NActive=    7 NUniq=    7 SFac= 1.00D+00 NAtFMM=   60 Big=F
 One-electron integrals computed using PRISM.
 NBasis=    49 RedAO= T  NBF=    39    10
 NBsUse=    49 1.00D-06 NBFU=    39    10
 Initial guess read from the read-write file:
 Initial guess orbital symmetries:
       Occupied  (A') (A') (A') (A') (A') (A') (A') (A') (A') (A')
                 (A') (A') (A") (A') (A") (A") (A') (A')
       Virtual   (A") (A") (A') (A') (A') (A') (A') (A') (A') (A')
                 (A") (A') (A') (A') (A") (A') (A") (A') (A') (A")
                 (A") (A') (A') (A') (A') (A') (A') (A') (A') (A')
                 (A')
 Requested convergence on RMS density matrix=1.00D-08 within 128 cycles.
 Requested convergence on MAX density matrix=1.00D-06.
 Requested convergence on             energy=1.00D-06.
 No special actions if energy rises.
 Keep R1 integrals in memory in canonical form, NReq=     1293527.
 SCF Done:  E(RS-VWN) =  -255.432119047     A.U. after    9 cycles
             Convg  =    0.5513D-08             -V/T =  2.0046
             S**2   =   0.0000
 Calling FoFCou, ICntrl=  2527 FMM=F ISym2X=1 I1Cent= 0 ISCF1= 0.
 ***** Axes restored to original set *****
 -------------------------------------------------------------------
 Center     Atomic                   Forces (Hartrees/Bohr)
 Number     Number              X              Y              Z
 -------------------------------------------------------------------
    1          7          -0.000331607    0.000402420    0.000000000
    2          7          -0.000071475   -0.000678951    0.000000000
    3          7           0.000151313    0.000388040    0.000000000
    4          1          -0.000013320    0.000078088    0.000000000
    5          7           0.000084326   -0.000283940    0.000000000
    6          6           0.000166566    0.000100719    0.000000000
    7          1           0.000014197   -0.000006375    0.000000000
 -------------------------------------------------------------------
 Cartesian Forces:  Max     0.000678951 RMS     0.000222924

 GradGradGradGradGradGradGradGradGradGradGradGradGradGradGradGradGradGrad
 Berny optimization.
 Internal  Forces:  Max     0.000395747 RMS     0.000136489
 Search for a local minimum.
 Step number   7 out of a maximum of  36
 All quantities printed in internal units (Hartrees-Bohrs-Radians)
 Update second derivatives using D2CorX and points  1  2  3  4  5
                                                        6  7
 Trust test= 1.31D+00 RLast= 2.43D-03 DXMaxT set to 4.24D-01
     Eigenvalues ---    0.02506   0.02633   0.02681   0.02831   0.11600
     Eigenvalues ---    0.16009   0.22097   0.36983   0.37743   0.40062
     Eigenvalues ---    0.49239   0.50583   0.54565   0.66553   0.81498
     Eigenvalues --- 1000.000001000.000001000.000001000.000001000.00000
     Eigenvalues --- 1000.000001000.000001000.000001000.000001000.00000
     Eigenvalues --- 1000.00000
 RFO step:  Lambda=-1.00638916D-06.
 Quartic linear search produced a step of  0.45194.
 Iteration  1 RMS(Cart)=  0.00035314 RMS(Int)=  0.00000010
 Iteration  2 RMS(Cart)=  0.00000010 RMS(Int)=  0.00000002
 Variable       Old X    -DE/DX   Delta X   Delta X   Delta X     New X
                                 (Linear)    (Quad)   (Total)
    R1        2.51509  -0.00040  -0.00045  -0.00087  -0.00132   2.51377
    R2        2.69133   0.00018   0.00037   0.00038   0.00075   2.69208
    R3        2.65529   0.00036   0.00056   0.00083   0.00140   2.65668
    R4        1.93199   0.00008  -0.00004   0.00008   0.00004   1.93202
    R5        2.55442   0.00017  -0.00038   0.00010  -0.00028   2.55415
    R6        2.51194   0.00026  -0.00013   0.00028   0.00015   2.51209
    R7        2.04874   0.00001   0.00005   0.00000   0.00005   2.04878
    A1        1.93168   0.00006   0.00001   0.00025   0.00025   1.93193
    A2        1.83553   0.00015  -0.00016   0.00033   0.00017   1.83571
    A3        2.09540   0.00007  -0.00033   0.00007  -0.00025   2.09515
    A4        1.89680  -0.00015   0.00015  -0.00062  -0.00047   1.89633
    A5        2.29098   0.00008   0.00017   0.00055   0.00072   2.29170
    A6        1.83385  -0.00002   0.00008  -0.00038  -0.00031   1.83354
    A7        1.92691  -0.00004  -0.00008   0.00043   0.00035   1.92726
    A8        2.17324   0.00003   0.00035   0.00003   0.00039   2.17362
    A9        2.18304   0.00001  -0.00027  -0.00047  -0.00074   2.18230
    D1        0.00000   0.00000   0.00000   0.00000   0.00000   0.00000
    D2        0.00000   0.00000   0.00000   0.00000   0.00000   0.00000
    D3        3.14159   0.00000   0.00000   0.00000   0.00000   3.14159
    D4        0.00000   0.00000   0.00000   0.00000   0.00000   0.00000
    D5        0.00000   0.00000   0.00000   0.00000   0.00000   0.00000
    D6        3.14159   0.00000   0.00000   0.00000   0.00000   3.14159
    D7        3.14159   0.00000   0.00000   0.00000   0.00000   3.14159
    D8        0.00000   0.00000   0.00000   0.00000   0.00000   0.00000
    D9        0.00000   0.00000   0.00000   0.00000   0.00000   0.00000
   D10        3.14159   0.00000   0.00000   0.00000   0.00000   3.14159
         Item               Value     Threshold  Converged?
 Maximum Force            0.000396     0.000450     YES
 RMS     Force            0.000136     0.000300     YES
 Maximum Displacement     0.000928     0.001800     YES
 RMS     Displacement     0.000353     0.001200     YES
 Predicted change in Energy=-6.550835D-07
 Optimization completed.
    -- Stationary point found.
                           ----------------------------
                           !   Optimized Parameters   !
                           ! (Angstroms and Degrees)  !
 --------------------------                            --------------------------
 ! Name  Definition              Value          Derivative Info.                !
 --------------------------------------------------------------------------------
 ! R1    R(1,2)                  1.3309         -DE/DX =   -0.0004              !
 ! R2    R(1,5)                  1.4242         -DE/DX =    0.0002              !
 ! R3    R(2,3)                  1.4051         -DE/DX =    0.0004              !
 ! R4    R(3,4)                  1.0224         -DE/DX =    0.0001              !
 ! R5    R(3,6)                  1.3517         -DE/DX =    0.0002              !
 ! R6    R(5,6)                  1.3293         -DE/DX =    0.0003              !
 ! R7    R(6,7)                  1.0841         -DE/DX =    0.0                 !
 ! A1    A(2,1,5)              110.6771         -DE/DX =    0.0001              !
 ! A2    A(1,2,3)              105.1684         -DE/DX =    0.0002              !
 ! A3    A(2,3,4)              120.0579         -DE/DX =    0.0001              !
 ! A4    A(2,3,6)              108.6785         -DE/DX =   -0.0001              !
 ! A5    A(4,3,6)              131.2636         -DE/DX =    0.0001              !
 ! A6    A(1,5,6)              105.0719         -DE/DX =    0.0                 !
 ! A7    A(3,6,5)              110.404          -DE/DX =    0.0                 !
 ! A8    A(3,6,7)              124.5172         -DE/DX =    0.0                 !
 ! A9    A(5,6,7)              125.0787         -DE/DX =    0.0                 !
 ! D1    D(5,1,2,3)              0.0            -DE/DX =    0.0                 !
 ! D2    D(2,1,5,6)              0.0            -DE/DX =    0.0                 !
 ! D3    D(1,2,3,4)            180.0            -DE/DX =    0.0                 !
 ! D4    D(1,2,3,6)              0.0            -DE/DX =    0.0                 !
 ! D5    D(2,3,6,5)              0.0            -DE/DX =    0.0                 !
 ! D6    D(2,3,6,7)            180.0            -DE/DX =    0.0                 !
 ! D7    D(4,3,6,5)            180.0            -DE/DX =    0.0                 !
 ! D8    D(4,3,6,7)              0.0            -DE/DX =    0.0                 !
 ! D9    D(1,5,6,3)              0.0            -DE/DX =    0.0                 !
 ! D10   D(1,5,6,7)            180.0            -DE/DX =    0.0                 !
 --------------------------------------------------------------------------------
 GradGradGradGradGradGradGradGradGradGradGradGradGradGradGradGradGradGrad

                          Input orientation:                          
 ---------------------------------------------------------------------
 Center     Atomic     Atomic              Coordinates (Angstroms)
 Number     Number      Type              X           Y           Z
 ---------------------------------------------------------------------
    1          7             0       -0.758323   -0.966828    0.000000
    2          7             0       -1.168765    0.299232    0.000000
    3          7             0        0.007921    1.067196    0.000000
    4          1             0       -0.046880    2.088089    0.000000
    5          7             0        0.664268   -1.034289    0.000000
    6          6             0        1.070329    0.231433    0.000000
    7          1             0        2.105474    0.553682    0.000000
 ---------------------------------------------------------------------
                    Distance matrix (angstroms):
                    1          2          3          4          5
     1  N    0.000000
     2  N    1.330928   0.000000
     3  N    2.173564   1.405118   0.000000
     4  H    3.136665   2.111549   1.022363   0.000000
     5  N    1.424189   2.266779   2.201597   3.202340   0.000000
     6  C    2.186275   2.240120   1.351743   2.166870   1.329263
     7  H    3.242419   3.284111   2.159496   2.643299   2.144465
                    6          7
     6  C    0.000000
     7  H    1.084144   0.000000
 Stoichiometry    CH2N4
 Framework group  CS[SG(CH2N4)]
 Deg. of freedom    11
 Full point group                 CS      NOp   2
 Largest Abelian subgroup         CS      NOp   2
 Largest concise Abelian subgroup C1      NOp   1
                         Standard orientation:                         
 ---------------------------------------------------------------------
 Center     Atomic     Atomic              Coordinates (Angstroms)
 Number     Number      Type              X           Y           Z
 ---------------------------------------------------------------------
    1          7             0       -0.735313   -0.966631    0.000000
    2          7             0       -1.164906    0.293059    0.000000
    3          7             0        0.000000    1.078777    0.000000
    4          1             0       -0.070274    2.098722    0.000000
    5          7             0        0.688137   -1.012514    0.000000
    6          6             0        1.074959    0.259220    0.000000
    7          1             0        2.105098    0.597128    0.000000
 ---------------------------------------------------------------------
 Rotational constants (GHZ):     10.0264837      9.8093136      4.9583549

 **********************************************************************

[...]
 Symmetry A'   KE= 2.448408023147D+02
 Symmetry A"   KE= 9.410636785859D+00
  Exact polarizability:  35.434   1.339  34.975   0.000   0.000  11.560
 Approx polarizability:  83.052  -0.997  92.433   0.000   0.000  18.535
 Calling FoFCou, ICntrl= 10527 FMM=F ISym2X=1 I1Cent= 0 ISCF1= 0.
 Full mass-weighted force constant matrix:
 Low frequencies ---  -23.3755  -21.1046  -10.2229    0.0011    0.0013    0.0015
 Low frequencies ---  648.4150  679.2427  688.9526
 Diagonal vibrational polarizability:
        1.5172557       1.1607163       9.9052808
 Harmonic frequencies (cm**-1), IR intensities (KM/Mole), Raman scattering
 activities (A**4/AMU), depolarization ratios for plane and unpolarized
 incident light, reduced masses (AMU), force constants (mDyne/A),
 and normal coordinates:
                     1                      2                      3
                    A"                     A"                     A"
 Frequencies --   648.4149               679.2427               688.9525
 Red. masses --     3.6668                 1.2735                 5.5884
 Frc consts  --     0.9083                 0.3462                 1.5628
 IR Inten    --    50.5550                80.0176                23.9851
 Atom AN      X      Y      Z        X      Y      Z        X      Y      Z
   1   7     0.00   0.00  -0.07     0.00   0.00   0.02     0.00   0.00   0.40
   2   7     0.00   0.00   0.23     0.00   0.00   0.03     0.00   0.00  -0.28
   3   7     0.00   0.00  -0.33     0.00   0.00   0.02     0.00   0.00   0.00
   4   1     0.00   0.00   0.51     0.00   0.00  -0.96     0.00   0.00   0.71
   5   7     0.00   0.00  -0.08     0.00   0.00  -0.10     0.00   0.00  -0.31
   6   6     0.00   0.00   0.18     0.00   0.00   0.09     0.00   0.00   0.14
   7   1     0.00   0.00   0.73     0.00   0.00   0.23     0.00   0.00   0.37
                     4                      5                      6
                    A'                     A'                     A"
 Frequencies --   790.8749               851.7221               876.6150
 Red. masses --     8.7674                 7.0461                 1.4360
 Frc consts  --     3.2310                 3.0116                 0.6502
 IR Inten    --     8.9301                13.5530                18.3384
 Atom AN      X      Y      Z        X      Y      Z        X      Y      Z
   1   7     0.45  -0.15   0.00     0.09  -0.13   0.00     0.00   0.00   0.01
   2   7    -0.05  -0.09   0.00     0.32   0.37   0.00     0.00   0.00  -0.01
   3   7     0.15   0.07   0.00    -0.29  -0.30   0.00     0.00   0.00   0.05
   4   1     0.08   0.06   0.00    -0.50  -0.33   0.00     0.00   0.00  -0.02
   5   7    -0.56   0.13   0.00    -0.13   0.07   0.00     0.00   0.00   0.03
   6   6    -0.01   0.08   0.00     0.05  -0.02   0.00     0.00   0.00  -0.19
   7   1     0.20  -0.59   0.00    -0.10   0.42   0.00     0.00   0.00   0.98
                     7                      8                      9
                    A'                     A'                     A'
 Frequencies --   965.3851               996.3668              1058.4484
 Red. masses --     3.7754                 6.8043                 8.0778
 Frc consts  --     2.0731                 3.9799                 5.3319
 IR Inten    --    12.1846                 6.5614                 1.7768
 Atom AN      X      Y      Z        X      Y      Z        X      Y      Z
   1   7     0.26   0.04   0.00     0.05  -0.07   0.00     0.19   0.61   0.00
   2   7    -0.20   0.19   0.00     0.37  -0.02   0.00     0.09  -0.25   0.00
   3   7    -0.05  -0.01   0.00    -0.10   0.39   0.00    -0.14  -0.16   0.00
   4   1     0.74   0.05   0.00    -0.43   0.38   0.00    -0.63  -0.21   0.00
   5   7     0.09  -0.19   0.00     0.01  -0.23   0.00    -0.09  -0.11   0.00
   6   6    -0.16  -0.07   0.00    -0.32  -0.07   0.00     0.00  -0.09   0.00
   7   1    -0.31   0.37   0.00    -0.25  -0.38   0.00    -0.07   0.08   0.00
                    10                     11                     12
                    A'                     A'                     A'
 Frequencies --  1128.7627              1190.4118              1339.5996
 Red. masses --     1.7184                 2.1722                 3.4871
 Frc consts  --     1.2900                 1.8136                 3.6869
 IR Inten    --    13.4006                 7.9148                 4.3428
 Atom AN      X      Y      Z        X      Y      Z        X      Y      Z
   1   7    -0.05   0.00   0.00     0.00   0.04   0.00     0.00  -0.01   0.00
   2   7     0.10  -0.08   0.00     0.07  -0.03   0.00     0.02  -0.08   0.00
   3   7     0.11  -0.05   0.00    -0.04  -0.09   0.00    -0.18   0.17   0.00
   4   1     0.41  -0.04   0.00     0.67  -0.05   0.00     0.60   0.26   0.00
   5   7    -0.07   0.01   0.00     0.07   0.19   0.00    -0.06   0.12   0.00
   6   6    -0.11   0.08   0.00    -0.18  -0.07   0.00     0.20  -0.30   0.00
   7   1    -0.35   0.80   0.00    -0.01  -0.68   0.00    -0.07   0.60   0.00
                    13                     14                     15
                    A'                     A'                     A'
 Frequencies --  1391.8097              3248.5308              3505.8290
 Red. masses --     2.5267                 1.1006                 1.0847
 Frc consts  --     2.8838                 6.8428                 7.8547
 IR Inten    --    35.5291                 6.0784                96.3877
 Atom AN      X      Y      Z        X      Y      Z        X      Y      Z
   1   7     0.04  -0.01   0.00     0.00   0.00   0.00     0.00   0.00   0.00
   2   7    -0.06   0.04   0.00     0.00   0.00   0.00     0.00   0.00   0.00
   3   7     0.16   0.00   0.00     0.00   0.00   0.00     0.01  -0.08   0.00
   4   1    -0.82  -0.07   0.00     0.00   0.04   0.00    -0.07   0.99   0.00
   5   7     0.05   0.15   0.00     0.00   0.00   0.00     0.00   0.00   0.00
   6   6    -0.12  -0.23   0.00     0.09   0.03   0.00    -0.01   0.00   0.00
   7   1    -0.33   0.30   0.00    -0.95  -0.31   0.00     0.03   0.01   0.00

 -------------------
 - Thermochemistry -
 -------------------
 Temperature   298.150 Kelvin.  Pressure   1.00000 Atm.
 Atom  1 has atomic number  7 and mass  14.00307
 Atom  2 has atomic number  7 and mass  14.00307
 Atom  3 has atomic number  7 and mass  14.00307
 Atom  4 has atomic number  1 and mass   1.00783
 Atom  5 has atomic number  7 and mass  14.00307
 Atom  6 has atomic number  6 and mass  12.00000
 Atom  7 has atomic number  1 and mass   1.00783
 Molecular mass:    70.02795 amu.
 Principal axes and moments of inertia in atomic units:
                           1         2         3
     EIGENVALUES --   179.99742 183.98242 363.97984
           X            0.98337   0.18162   0.00000
           Y           -0.18162   0.98337   0.00000
           Z            0.00000   0.00000   1.00000
 This molecule is an asymmetric top.
 Rotational symmetry number  1.
 Rotational temperatures (Kelvin)      0.48119     0.47077     0.23796
 Rotational constants (GHZ):          10.02648     9.80931     4.95835
 Zero-point vibrational energy     115804.3 (Joules/Mol)
                                   27.67789 (Kcal/Mol)
 Vibrational temperatures:    932.92   977.28   991.25  1137.89  1225.44
          (Kelvin)           1261.25  1388.97  1433.55  1522.87  1624.04
                             1712.74  1927.38  2002.50  4673.91  5044.10
 
 Zero-point correction=                           0.044108 (Hartree/Particle)
 Thermal correction to Energy=                    0.047684
 Thermal correction to Enthalpy=                  0.048628
 Thermal correction to Gibbs Free Energy=         0.017917
 Sum of electronic and zero-point Energies=           -255.388012
 Sum of electronic and thermal Energies=              -255.384435
 Sum of electronic and thermal Enthalpies=            -255.383491
 Sum of electronic and thermal Free Energies=         -255.414202
 
                     E (Thermal)             CV                S
                      KCal/Mol        Cal/Mol-Kelvin    Cal/Mol-Kelvin
 Total                   29.922             12.202             64.638
 Electronic               0.000              0.000              0.000
 Translational            0.889              2.981             38.656
 Rotational               0.889              2.981             24.003
 Vibrational             28.145              6.241              1.978
                       Q            Log10(Q)             Ln(Q)
 Total Bot       0.573872D-08         -8.241185        -18.976029
 Total V=0       0.111385D+13         12.046826         27.738843
 Vib (Bot)       0.633938D-20        -20.197953        -46.507506
 Vib (V=0)       0.123043D+01          0.090058          0.207366
 Electronic      0.100000D+01          0.000000          0.000000
 Translational   0.230336D+08          7.362362         16.952466
 Rotational      0.393012D+05          4.594406         10.579012
 ***** Axes restored to original set *****
 -------------------------------------------------------------------
 Center     Atomic                   Forces (Hartrees/Bohr)
 Number     Number              X              Y              Z
 -------------------------------------------------------------------
    1          7          -0.000331625    0.000402442    0.000000000
    2          7          -0.000071493   -0.000678987    0.000000000
    3          7           0.000151325    0.000388042    0.000000000
    4          1          -0.000013319    0.000078100    0.000000000
    5          7           0.000084330   -0.000283936    0.000000000
    6          6           0.000166580    0.000100712    0.000000000
    7          1           0.000014201   -0.000006372    0.000000000
 -------------------------------------------------------------------
 Cartesian Forces:  Max     0.000678987 RMS     0.000222934

 GradGradGradGradGradGradGradGradGradGradGradGradGradGradGradGradGradGrad
 Berny optimization.
 Internal  Forces:  Max     0.000395770 RMS     0.000136495
 Search for a local minimum.
 Step number   1 out of a maximum of   2
 All quantities printed in internal units (Hartrees-Bohrs-Radians)
 Second derivative matrix not updated -- analytic derivatives used.
     Eigenvalues ---    0.01047   0.02674   0.07096   0.07425   0.09051
     Eigenvalues ---    0.09748   0.12608   0.15862   0.29249   0.31723
     Eigenvalues ---    0.37048   0.42301   0.44360   0.51368   0.59667
     Eigenvalues --- 1000.000001000.000001000.000001000.000001000.00000
     Eigenvalues --- 1000.000001000.000001000.000001000.000001000.00000
     Eigenvalues --- 1000.00000
 Angle between quadratic step and forces=  27.42 degrees.
 Linear search not attempted -- first point.
 Iteration  1 RMS(Cart)=  0.00053342 RMS(Int)=  0.00000024
 Iteration  2 RMS(Cart)=  0.00000021 RMS(Int)=  0.00000009
 Variable       Old X    -DE/DX   Delta X   Delta X   Delta X     New X
                                 (Linear)    (Quad)   (Total)
    R1        2.51509  -0.00040   0.00000  -0.00240  -0.00240   2.51269
    R2        2.69133   0.00018   0.00000   0.00140   0.00140   2.69273
    R3        2.65529   0.00036   0.00000   0.00217   0.00217   2.65746
    R4        1.93199   0.00008   0.00000   0.00015   0.00015   1.93214
    R5        2.55442   0.00017   0.00000   0.00021   0.00021   2.55463
    R6        2.51194   0.00026   0.00000   0.00047   0.00047   2.51241
    R7        2.04874   0.00001   0.00000   0.00004   0.00004   2.04878
    A1        1.93168   0.00006   0.00000   0.00059   0.00059   1.93227
    A2        1.83553   0.00015   0.00000   0.00048   0.00048   1.83601
    A3        2.09540   0.00007   0.00000   0.00017   0.00017   2.09557
    A4        1.89680  -0.00015   0.00000  -0.00096  -0.00096   1.89584
    A5        2.29098   0.00008   0.00000   0.00079   0.00079   2.29177
    A6        1.83385  -0.00002   0.00000  -0.00067  -0.00067   1.83318
    A7        1.92691  -0.00004   0.00000   0.00056   0.00056   1.92748
    A8        2.17324   0.00003   0.00000   0.00000   0.00000   2.17324
    A9        2.18304   0.00001   0.00000  -0.00057  -0.00057   2.18247
    D1        0.00000   0.00000   0.00000   0.00000   0.00000   0.00000
    D2        0.00000   0.00000   0.00000   0.00000   0.00000   0.00000
    D3        3.14159   0.00000   0.00000   0.00000   0.00000   3.14159
    D4        0.00000   0.00000   0.00000   0.00000   0.00000   0.00000
    D5        0.00000   0.00000   0.00000   0.00000   0.00000   0.00000
    D6        3.14159   0.00000   0.00000   0.00000   0.00000   3.14159
    D7        3.14159   0.00000   0.00000   0.00000   0.00000   3.14159
    D8        0.00000   0.00000   0.00000   0.00000   0.00000   0.00000
    D9        0.00000   0.00000   0.00000   0.00000   0.00000   0.00000
   D10        3.14159   0.00000   0.00000   0.00000   0.00000   3.14159
         Item               Value     Threshold  Converged?
 Maximum Force            0.000396     0.000450     YES
 RMS     Force            0.000136     0.000300     YES
 Maximum Displacement     0.001679     0.001800     YES
 RMS     Displacement     0.000533     0.001200     YES
 Predicted change in Energy=-1.234315D-06
 Optimization completed.
    -- Stationary point found.
                           ----------------------------
                           !   Optimized Parameters   !
                           ! (Angstroms and Degrees)  !
 --------------------------                            --------------------------
 ! Name  Definition              Value          Derivative Info.                !
 --------------------------------------------------------------------------------
 ! R1    R(1,2)                  1.3309         -DE/DX =   -0.0004              !
 ! R2    R(1,5)                  1.4242         -DE/DX =    0.0002              !
 ! R3    R(2,3)                  1.4051         -DE/DX =    0.0004              !
 ! R4    R(3,4)                  1.0224         -DE/DX =    0.0001              !
 ! R5    R(3,6)                  1.3517         -DE/DX =    0.0002              !
 ! R6    R(5,6)                  1.3293         -DE/DX =    0.0003              !
 ! R7    R(6,7)                  1.0841         -DE/DX =    0.0                 !
 ! A1    A(2,1,5)              110.6771         -DE/DX =    0.0001              !
 ! A2    A(1,2,3)              105.1684         -DE/DX =    0.0002              !
 ! A3    A(2,3,4)              120.0579         -DE/DX =    0.0001              !
 ! A4    A(2,3,6)              108.6785         -DE/DX =   -0.0001              !
 ! A5    A(4,3,6)              131.2636         -DE/DX =    0.0001              !
 ! A6    A(1,5,6)              105.0719         -DE/DX =    0.0                 !
 ! A7    A(3,6,5)              110.404          -DE/DX =    0.0                 !
 ! A8    A(3,6,7)              124.5172         -DE/DX =    0.0                 !
 ! A9    A(5,6,7)              125.0787         -DE/DX =    0.0                 !
 ! D1    D(5,1,2,3)              0.0            -DE/DX =    0.0                 !
 ! D2    D(2,1,5,6)              0.0            -DE/DX =    0.0                 !
 ! D3    D(1,2,3,4)            180.0            -DE/DX =    0.0                 !
 ! D4    D(1,2,3,6)              0.0            -DE/DX =    0.0                 !
 ! D5    D(2,3,6,5)              0.0            -DE/DX =    0.0                 !
 ! D6    D(2,3,6,7)            180.0            -DE/DX =    0.0                 !
 ! D7    D(4,3,6,5)            180.0            -DE/DX =    0.0                 !
 ! D8    D(4,3,6,7)              0.0            -DE/DX =    0.0                 !
 ! D9    D(1,5,6,3)              0.0            -DE/DX =    0.0                 !
 ! D10   D(1,5,6,7)            180.0            -DE/DX =    0.0                 !
 --------------------------------------------------------------------------------
 GradGradGradGradGradGradGradGradGradGradGradGradGradGradGradGradGradGrad

 1|1|UNPC-UNK|Freq|RSVWN|3-21G|C1H2N4|PCUSER|22-Feb-2008|0||#N GEOM=ALL
 CHECK GUESS=READ SCRF=CHECK GENCHK RSVWN/3-21G FREQ||1htz 1H-Tetrazole
  casno=288948 method=51 basis=2 config=1||0,1|N,-0.7498859381,-0.95537
 07399,0.|N,-1.1603279589,0.3106889279,0.|N,0.0163575044,1.078652722,0.
 |H,-0.0384428908,2.099546454,0.|N,0.6727046681,-1.0228323023,0.|C,1.07
 87657433,0.2428906275,0.|H,2.1139105023,0.5651395267,0.||Version=x86-W
 in32-G03RevB.05|State=1-A'|HF=-255.432119|RMSD=2.836e-009|RMSF=2.229e-
 004|Dipole=0.9878838,1.9269641,0.|DipoleDeriv=0.1502271,0.0849598,0.,-
 0.0198437,-0.1010949,0.,0.,0.,-0.1610591,-0.0852131,0.2802176,0.,0.268
 1939,0.124009,0.,0.,0.,-0.0703589,-0.1557265,-0.1302333,0.,-0.1288749,
 -0.5219594,0.,0.,0.,-0.2234515,0.2258744,-0.0210266,0.,-0.0111021,0.28
 68998,0.,0.,0.,0.3964488,-0.3746175,-0.0481319,0.,-0.1178703,-0.192183
 1,0.,0.,0.,-0.1723017,0.1280674,-0.151202,0.,0.0472409,0.2795132,0.,0.
 ,0.,0.0313396,0.1113882,-0.0145836,0.,-0.0377437,0.1248154,0.,0.,0.,0.
 1993827|Polar=35.4742048,1.3317418,34.9343482,0.,0.,11.5597247|PG=CS [
 SG(C1H2N4)]|NImag=0||0.30141096,0.08447087,0.41618548,0.,0.,0.10637924
 ,-0.08798459,0.00438577,0.,0.40961049,0.07571757,-0.17439996,0.,-0.084
 68614,0.31519688,0.,0.,-0.08254103,0.,0.,0.09950489,-0.03488521,-0.074
 17389,0.,-0.12781470,-0.01828738,0.,0.44165580,-0.00694871,-0.14148622
 ,0.,0.01115922,-0.07762919,0.,-0.11042581,0.91296666,0.,0.,0.02228375,
 0.,0.,-0.06555787,0.,0.,0.10524694,-0.00871820,-0.00949069,0.,0.012196
 05,-0.02624178,0.,-0.06167786,0.02795308,0.,0.05371974,0.00167785,0.00
 080336,0.,0.00764977,-0.00739235,0.,0.02398983,-0.42614375,0.,-0.02202
 961,0.43450460,0.,0.,0.00659589,0.,0.,-0.00810137,0.,0.,-0.01426295,0.
 ,0.,0.01567227,-0.08475274,0.01580483,0.,-0.08845919,0.09591690,0.,0.0
 1635034,-0.01870259,0.,-0.00670730,-0.00316227,0.,0.27496049,-0.045168
 34,-0.06348974,0.,0.00971110,-0.05133865,0.,0.07980014,-0.10229864,0.,
 0.00698706,0.00063426,0.,0.00820873,0.51732093,0.,0.,-0.07848465,0.,0.
 ,0.02935791,0.,0.,0.02407592,0.,0.,0.00666196,0.,0.,0.10041381,-0.0865
 1396,-0.02364939,0.,-0.11916167,-0.04265328,0.,-0.22029042,0.10592328,
 0.,0.01173342,-0.00890248,0.,-0.11167888,-0.06002014,0.,0.85746136,-0.
 10574596,-0.03414292,0.,0.04782258,0.00188991,0.,0.07183464,-0.1743762
 6,0.,0.02318492,-0.00213123,0.,-0.07038076,-0.29550716,0.,0.11839648,0
 .57292664,0.,0.,0.01705736,0.,0.,0.02228944,0.,0.,-0.07136915,0.,0.,-0
 .00558744,0.,0.,-0.07827331,0.,0.,0.14781090,0.00144374,0.00265251,0.,
 0.00161360,0.00023412,0.,-0.01333796,-0.00895847,0.,-0.00054586,0.0007
 7691,0.,0.00028727,0.00048145,0.,-0.33154986,-0.08511191,0.,0.34208908
 ,-0.00400328,-0.00346999,0.,0.00395770,-0.00632663,0.,0.02726247,0.008
 96741,0.,-0.00036297,-0.00027490,0.,-0.02768484,-0.00532099,0.,-0.0890
 9447,-0.06865898,0.,0.08992539,0.07508408,0.,0.,0.00870945,0.,0.,0.005
 04803,0.,0.,-0.00041664,0.,0.,-0.00097835,0.,0.,-0.00375165,0.,0.,-0.0
 3192781,0.,0.,0.02331698||0.00033163,-0.00040244,0.,0.00007149,0.00067
 899,0.,-0.00015133,-0.00038804,0.,0.00001332,-0.00007810,0.,-0.0000843
 3,0.00028394,0.,-0.00016658,-0.00010071,0.,-0.00001420,0.00000637,0.||
 |@


 THE ENLIGHTENED ONE, BECAUSE HE SAW MANKIND DROWNING  
 IN THE GREAT SEA OF BIRTH, DEATH, AND SORROW, LONGED TO SAVE 
 THEM, FOR THIS HE WAS MOVED TO PITY.                         
 BECAUSE HE SAW MEN OF THE WORLD STRAYING IN FALSE PATHS, AND 
 NONE TO GUIDE THEM, FOR THIS HE WAS MOVED TO PITY.           
                     ..................                       
 BECAUSE HE SAW THE MEN OF THE WORLD PLOUGHING THEIR FIELDS,  
 SOWING THE SEED, TRAFFICKING, HUCKSTERING, BUYING, SELLING,  
 AND AT THE END WINNOWING NOTHING BUT BITTERNESS,             
 FOR THIS HE WAS MOVED TO PITY......                   
                   BUDAH'S PITY - UPSAKA SILA SUTRA           
 Job cpu time:  0 days  0 hours  0 minutes 24.0 seconds.
 File lengths (MBytes):  RWF=     11 Int=      0 D2E=      0 Chk=      4 Scr=      1
 Normal termination of Gaussian 03 at Fri Feb 22 00:55:48 2008.
