 Entering Link 1 = C:\G03W\l1.exe PID=      1260.
  
 Copyright (c) 1988,1990,1992,1993,1995,1998,2003, Gaussian, Inc.
                  All Rights Reserved.
  
 This is the Gaussian(R) 03 program.  It is based on the
 the Gaussian(R) 98 system (copyright 1998, Gaussian, Inc.),
 the Gaussian(R) 94 system (copyright 1995, Gaussian, Inc.),
 the Gaussian 92(TM) system (copyright 1992, Gaussian, Inc.),
 the Gaussian 90(TM) system (copyright 1990, Gaussian, Inc.),
 the Gaussian 88(TM) system (copyright 1988, Gaussian, Inc.),
 the Gaussian 86(TM) system (copyright 1986, Carnegie Mellon
 University), and the Gaussian 82(TM) system (copyright 1983,
 Carnegie Mellon University). Gaussian is a federally registered
 trademark of Gaussian, Inc.
  
 This software contains proprietary and confidential information,
 including trade secrets, belonging to Gaussian, Inc.
  
 This software is provided under written license and may be
 used, copied, transmitted, or stored only in accord with that
 written license.
  
 The following legend is applicable only to US Government
 contracts under DFARS:
  
                    RESTRICTED RIGHTS LEGEND
  
 Use, duplication or disclosure by the US Government is subject
 to restrictions as set forth in subparagraph (c)(1)(ii) of the
 Rights in Technical Data and Computer Software clause at DFARS
 252.227-7013.
  
 Gaussian, Inc.
 Carnegie Office Park, Building 6, Pittsburgh, PA 15106 USA
  
 The following legend is applicable only to US Government
 contracts under FAR:
  
                    RESTRICTED RIGHTS LEGEND
  
 Use, reproduction and disclosure by the US Government is subject
 to restrictions as set forth in subparagraph (c) of the
 Commercial Computer Software - Restricted Rights clause at FAR
 52.227-19.
  
 Gaussian, Inc.
 Carnegie Office Park, Building 6, Pittsburgh, PA 15106 USA
  
  
 ---------------------------------------------------------------
 Warning -- This program may not be used in any manner that
 competes with the business of Gaussian, Inc. or will provide
 assistance to any competitor of Gaussian, Inc.  The licensee
 of this program is prohibited from giving any competitor of
 Gaussian, Inc. access to this program.  By using this program,
 the user acknowledges that Gaussian, Inc. is engaged in the
 business of creating and licensing software in the field of
 computational chemistry and represents and warrants to the
 licensee that it is not a competitor of Gaussian, Inc. and that
 it will not use this program in any manner prohibited above.
 ---------------------------------------------------------------
  

 Cite this work as:
 Gaussian 03, Revision B.05,
 M. J. Frisch, G. W. Trucks, H. B. Schlegel, G. E. Scuseria, 
 M. A. Robb, J. R. Cheeseman, J. A. Montgomery, Jr., T. Vreven, 
 K. N. Kudin, J. C. Burant, J. M. Millam, S. S. Iyengar, J. Tomasi, 
 V. Barone, B. Mennucci, M. Cossi, G. Scalmani, N. Rega, 
 G. A. Petersson, H. Nakatsuji, M. Hada, M. Ehara, K. Toyota, 
 R. Fukuda, J. Hasegawa, M. Ishida, T. Nakajima, Y. Honda, O. Kitao, 
 H. Nakai, M. Klene, X. Li, J. E. Knox, H. P. Hratchian, J. B. Cross, 
 C. Adamo, J. Jaramillo, R. Gomperts, R. E. Stratmann, O. Yazyev, 
 A. J. Austin, R. Cammi, C. Pomelli, J. W. Ochterski, P. Y. Ayala, 
 K. Morokuma, G. A. Voth, P. Salvador, J. J. Dannenberg, 
 V. G. Zakrzewski, S. Dapprich, A. D. Daniels, M. C. Strain, 
 O. Farkas, D. K. Malick, A. D. Rabuck, K. Raghavachari, 
 J. B. Foresman, J. V. Ortiz, Q. Cui, A. G. Baboul, S. Clifford, 
 J. Cioslowski, B. B. Stefanov, G. Liu, A. Liashenko, P. Piskorz, 
 I. Komaromi, R. L. Martin, D. J. Fox, T. Keith, M. A. Al-Laham, 
 C. Y. Peng, A. Nanayakkara, M. Challacombe, P. M. W. Gill, 
 B. Johnson, W. Chen, M. W. Wong, C. Gonzalez, and J. A. Pople, 
 Gaussian, Inc., Pittsburgh PA, 2003.
 
 **********************************************
 Gaussian 03:  x86-Win32-G03RevB.05  8-Nov-2003
                  07-Mar-2008 
 **********************************************
 %mem=24000000
 ----------------------
 #LSDA/cc-pVDZ opt freq
 ----------------------
 1/14=-1,18=20,26=3,38=1/1,3;
 2/9=110,17=6,18=5,40=1/2;
 3/5=16,11=2,16=1,25=1,30=1,74=205/1,2,3;
 4//1;
 5/5=2,38=5/2;
 6/7=2,8=2,9=2,10=2,28=1/1;
 7//1,2,3,16;
 1/14=-1,18=20/3(1);
 99//99;
 2/9=110/2;
 3/5=16,11=2,16=1,25=1,30=1,74=205/1,2,3;
 4/5=5,16=3/1;
 5/5=2,38=5/2;
 7//1,2,3,16;
 1/14=-1,18=20/3(-5);
 2/9=110/2;
 6/7=2,8=2,9=2,10=2,19=2,28=1/1;
 99/9=1/99;
 ---------------------------------------------------------
 1htz 1H-Tetrazole casno=288948 method=51 basis=5 config=1
 ---------------------------------------------------------
 Symbolic Z-matrix:
 Charge =  0 Multiplicity = 1
 N                    -0.71631  -0.90193   0. 
 N                    -1.09552   0.29142   0. 
 N                     0.        1.03878   0. 
 H                    -0.06148   2.03099   0. 
 N                     0.62215  -0.9895    0. 
 C                     1.05281   0.22578   0. 
 H                     2.07237   0.54298   0. 
 

 GradGradGradGradGradGradGradGradGradGradGradGradGradGradGradGradGradGrad
 Berny optimization.
 Initialization pass.
                           ----------------------------
                           !    Initial Parameters    !
                           ! (Angstroms and Degrees)  !
 --------------------------                            --------------------------
 ! Name  Definition              Value          Derivative Info.                !
 --------------------------------------------------------------------------------
 ! R1    R(1,2)                  1.2522         estimate D2E/DX2                !
 ! R2    R(1,5)                  1.3413         estimate D2E/DX2                !
 ! R3    R(2,3)                  1.3262         estimate D2E/DX2                !
 ! R4    R(3,4)                  0.9941         estimate D2E/DX2                !
 ! R5    R(3,6)                  1.3302         estimate D2E/DX2                !
 ! R6    R(5,6)                  1.2893         estimate D2E/DX2                !
 ! R7    R(6,7)                  1.0678         estimate D2E/DX2                !
 ! A1    A(2,1,5)              111.3714         estimate D2E/DX2                !
 ! A2    A(1,2,3)              106.673          estimate D2E/DX2                !
 ! A3    A(2,3,4)              120.7559         estimate D2E/DX2                !
 ! A4    A(2,3,6)              108.0227         estimate D2E/DX2                !
 ! A5    A(4,3,6)              131.2214         estimate D2E/DX2                !
 ! A6    A(1,5,6)              105.7701         estimate D2E/DX2                !
 ! A7    A(3,6,5)              108.1628         estimate D2E/DX2                !
 ! A8    A(3,6,7)              125.0426         estimate D2E/DX2                !
 ! A9    A(5,6,7)              126.7946         estimate D2E/DX2                !
 ! D1    D(5,1,2,3)              0.0            estimate D2E/DX2                !
 ! D2    D(2,1,5,6)              0.0            estimate D2E/DX2                !
 ! D3    D(1,2,3,4)            180.0            estimate D2E/DX2                !
 ! D4    D(1,2,3,6)              0.0            estimate D2E/DX2                !
 ! D5    D(2,3,6,5)              0.0            estimate D2E/DX2                !
 ! D6    D(2,3,6,7)            180.0            estimate D2E/DX2                !
 ! D7    D(4,3,6,5)            180.0            estimate D2E/DX2                !
 ! D8    D(4,3,6,7)              0.0            estimate D2E/DX2                !
 ! D9    D(1,5,6,3)              0.0            estimate D2E/DX2                !
 ! D10   D(1,5,6,7)            180.0            estimate D2E/DX2                !
 --------------------------------------------------------------------------------
 Trust Radius=3.00D-01 FncErr=1.00D-07 GrdErr=1.00D-06
 Number of steps in this run=  36 maximum allowed number of steps= 100.
 GradGradGradGradGradGradGradGradGradGradGradGradGradGradGradGradGradGrad

                          Input orientation:                          
 ---------------------------------------------------------------------
 Center     Atomic     Atomic              Coordinates (Angstroms)
 Number     Number      Type              X           Y           Z
 ---------------------------------------------------------------------
    1          7             0       -0.716312   -0.901934    0.000000
    2          7             0       -1.095520    0.291420    0.000000
    3          7             0        0.000000    1.038775    0.000000
    4          1             0       -0.061479    2.030994    0.000000
    5          7             0        0.622151   -0.989495    0.000000
    6          6             0        1.052813    0.225779    0.000000
    7          1             0        2.072370    0.542976    0.000000
 ---------------------------------------------------------------------
                    Distance matrix (angstroms):
                    1          2          3          4          5
     1  N    0.000000
     2  N    1.252155   0.000000
     3  N    2.068684   1.326161   0.000000
     4  H    3.005141   2.023699   0.994122   0.000000
     5  N    1.341324   2.142694   2.121544   3.096886   0.000000
     6  C    2.097985   2.149336   1.330180   2.121426   1.289326
     7  H    3.140782   3.177862   2.130853   2.601444   2.109882
                    6          7
     6  C    0.000000
     7  H    1.067760   0.000000
 Stoichiometry    CH2N4
 Framework group  CS[SG(CH2N4)]
 Deg. of freedom    11
 Full point group                 CS      NOp   2
 Largest Abelian subgroup         CS      NOp   2
 Largest concise Abelian subgroup C1      NOp   1
                         Standard orientation:                         
 ---------------------------------------------------------------------
 Center     Atomic     Atomic              Coordinates (Angstroms)
 Number     Number      Type              X           Y           Z
 ---------------------------------------------------------------------
    1          7             0       -0.716312   -0.901934    0.000000
    2          7             0       -1.095520    0.291420    0.000000
    3          7             0        0.000000    1.038775    0.000000
    4          1             0       -0.061479    2.030994    0.000000
    5          7             0        0.622151   -0.989495    0.000000
    6          6             0        1.052813    0.225779    0.000000
    7          1             0        2.072370    0.542976    0.000000
 ---------------------------------------------------------------------
 Rotational constants (GHZ):     10.9198649     10.7343934      5.4131674
 Standard basis: CC-pVDZ (5D, 7F)
 There are    58 symmetry adapted basis functions of A'  symmetry.
 There are    22 symmetry adapted basis functions of A"  symmetry.
 Integral buffers will be    262144 words long.
 Raffenetti 2 integral format.
 Two-electron integral symmetry is turned on.
    80 basis functions,   179 primitive gaussians,    85 cartesian basis functions
    18 alpha electrons       18 beta electrons
       nuclear repulsion energy       169.8288229759 Hartrees.
 NAtoms=    7 NActive=    7 NUniq=    7 SFac= 1.00D+00 NAtFMM=   60 Big=F
 One-electron integrals computed using PRISM.
 NBasis=    80 RedAO= T  NBF=    58    22
 NBsUse=    80 1.00D-06 NBFU=    58    22
 Harris functional with IExCor=  205 diagonalized for initial guess.
 ExpMin= 1.22D-01 ExpMax= 9.05D+03 ExpMxC= 3.09D+02 IAcc=1 IRadAn=         1 AccDes= 1.00D-06
 HarFok:  IExCor= 205 AccDes= 1.00D-06 IRadAn=         1 IDoV=1
 ScaDFX=  1.000000  1.000000  1.000000  1.000000
 Initial guess orbital symmetries:
       Occupied  (A') (A') (A') (A') (A') (A') (A') (A') (A') (A')
                 (A') (A') (A") (A') (A") (A') (A") (A')
       Virtual   (A") (A") (A') (A') (A') (A') (A') (A') (A') (A')
                 (A") (A') (A') (A') (A') (A') (A") (A') (A") (A')
                 (A') (A") (A") (A') (A') (A") (A') (A") (A') (A')
                 (A') (A") (A') (A") (A") (A') (A') (A') (A') (A")
                 (A') (A") (A') (A') (A') (A") (A') (A") (A') (A')
                 (A') (A") (A") (A') (A') (A") (A') (A') (A') (A')
                 (A') (A')
 The electronic state of the initial guess is 1-A'.
 Requested convergence on RMS density matrix=1.00D-08 within 128 cycles.
 Requested convergence on MAX density matrix=1.00D-06.
 Requested convergence on             energy=1.00D-06.
 No special actions if energy rises.
 Keep R1 integrals in memory in canonical form, NReq=     7523995.
 Integral accuracy reduced to 1.0D-05 until final iterations.
 Initial convergence to 1.0D-05 achieved.  Increase integral accuracy.
 SCF Done:  E(RS-VWN) =  -256.895927067     A.U. after   15 cycles
             Convg  =    0.5946D-08             -V/T =  2.0007
             S**2   =   0.0000

 **********************************************************************

            Population analysis using the SCF density.

 **********************************************************************

 Orbital symmetries:
       Occupied  (A') (A') (A') (A') (A') (A') (A') (A') (A') (A')
                 (A') (A") (A') (A') (A") (A") (A') (A')
       Virtual   (A") (A") (A') (A') (A') (A') (A') (A') (A') (A')
                 (A") (A') (A') (A') (A') (A") (A') (A') (A") (A')
                 (A') (A") (A") (A') (A') (A") (A') (A") (A') (A')
                 (A') (A") (A') (A") (A') (A") (A') (A') (A') (A")
                 (A") (A') (A') (A') (A') (A") (A') (A") (A') (A')
                 (A") (A') (A") (A') (A') (A") (A') (A') (A') (A')
                 (A') (A')
 The electronic state is 1-A'.
 Alpha  occ. eigenvalues --  -13.98888 -13.94664 -13.92847 -13.90339  -9.88230
 Alpha  occ. eigenvalues --   -1.09752  -0.89417  -0.84554  -0.64524  -0.63605
 Alpha  occ. eigenvalues --   -0.57155  -0.48620  -0.47429  -0.34967  -0.32453
 Alpha  occ. eigenvalues --   -0.30757  -0.27015  -0.25077
 Alpha virt. eigenvalues --   -0.06957  -0.03539  -0.00152   0.04527   0.12344
 Alpha virt. eigenvalues --    0.14219   0.20874   0.25060   0.32377   0.38045
 Alpha virt. eigenvalues --    0.38473   0.47724   0.50246   0.52176   0.58148
 Alpha virt. eigenvalues --    0.60986   0.63244   0.63790   0.64655   0.68797
 Alpha virt. eigenvalues --    0.72409   0.73631   0.78147   0.80867   0.86701
 Alpha virt. eigenvalues --    0.88425   0.95514   1.04187   1.04674   1.06653
 Alpha virt. eigenvalues --    1.14626   1.17800   1.30045   1.38055   1.39356
 Alpha virt. eigenvalues --    1.40736   1.43302   1.47729   1.57886   1.64299
 Alpha virt. eigenvalues --    1.69086   1.70492   1.80937   1.83519   1.96977
 Alpha virt. eigenvalues --    2.06354   2.08503   2.11607   2.17157   2.23233
 Alpha virt. eigenvalues --    2.35727   2.36019   2.41942   2.44420   2.50440
 Alpha virt. eigenvalues --    2.54935   2.59338   2.61785   2.71081   2.92799
 Alpha virt. eigenvalues --    2.99879   3.25118
          Condensed to atoms (all electrons):
              1          2          3          4          5          6
     1  N    6.469970   0.434900  -0.100722   0.008603   0.410484  -0.134554
     2  N    0.434900   6.554101   0.321449  -0.020861  -0.118330  -0.109827
     3  N   -0.100722   0.321449   6.080544   0.370871  -0.060371   0.430416
     4  H    0.008603  -0.020861   0.370871   0.533420   0.008330  -0.032312
     5  N    0.410484  -0.118330  -0.060371   0.008330   6.363426   0.555724
     6  C   -0.134554  -0.109827   0.430416  -0.032312   0.555724   4.790489
     7  H    0.003524   0.004710  -0.025055  -0.002268  -0.016030   0.390911
              7
     1  N    0.003524
     2  N    0.004710
     3  N   -0.025055
     4  H   -0.002268
     5  N   -0.016030
     6  C    0.390911
     7  H    0.568868
 Mulliken atomic charges:
              1
     1  N   -0.092204
     2  N   -0.066142
     3  N   -0.017132
     4  H    0.134217
     5  N   -0.143233
     6  C    0.109154
     7  H    0.075340
 Sum of Mulliken charges=   0.00000
 Atomic charges with hydrogens summed into heavy atoms:
              1
     1  N   -0.092204
     2  N   -0.066142
     3  N    0.117085
     4  H    0.000000
     5  N   -0.143233
     6  C    0.184494
     7  H    0.000000
 Sum of Mulliken charges=   0.00000
 Electronic spatial extent (au):  <R**2>=   243.5447
 Charge=     0.0000 electrons
 Dipole moment (field-independent basis, Debye):
    X=     2.3033    Y=     4.5965    Z=     0.0000  Tot=     5.1413
 Quadrupole moment (field-independent basis, Debye-Ang):
   XX=   -28.6299   YY=   -25.9675   ZZ=   -27.6648
   XY=     1.6082   XZ=     0.0000   YZ=     0.0000
 Traceless Quadrupole moment (field-independent basis, Debye-Ang):
   XX=    -1.2092   YY=     1.4532   ZZ=    -0.2440
   XY=     1.6082   XZ=     0.0000   YZ=     0.0000
 Octapole moment (field-independent basis, Debye-Ang**2):
  XXX=    10.3599  YYY=    20.6622  ZZZ=     0.0000  XYY=    -0.6840
  XXY=     4.0581  XXZ=     0.0000  XZZ=    -0.9393  YZZ=     0.4226
  YYZ=     0.0000  XYZ=     0.0000
 Hexadecapole moment (field-independent basis, Debye-Ang**3):
 XXXX=  -137.9888 YYYY=  -116.0585 ZZZZ=   -23.7079 XXXY=     5.6915
 XXXZ=     0.0000 YYYX=    -0.8215 YYYZ=     0.0000 ZZZX=     0.0000
 ZZZY=     0.0000 XXYY=   -51.2602 XXZZ=   -28.9825 YYZZ=   -27.0334
 XXYZ=     0.0000 YYXZ=     0.0000 ZZXY=    -0.2414
 N-N= 1.698288229759D+02 E-N=-9.421855496886D+02  KE= 2.567059196340D+02
 Symmetry A'   KE= 2.471415154649D+02
 Symmetry A"   KE= 9.564404169139D+00
 Calling FoFCou, ICntrl=  2527 FMM=F ISym2X=1 I1Cent= 0 ISCF1= 0.
 ***** Axes restored to original set *****
 -------------------------------------------------------------------
 Center     Atomic                   Forces (Hartrees/Bohr)
 Number     Number              X              Y              Z
 -------------------------------------------------------------------
    1          7           0.000613436   -0.039894322    0.000000000
    2          7          -0.027763754    0.033274241    0.000000000
    3          7           0.000700764   -0.006818717    0.000000000
    4          1          -0.001743084    0.027175669    0.000000000
    5          7           0.004041699   -0.032081010    0.000000000
    6          6           0.004292945    0.012068565    0.000000000
    7          1           0.019857994    0.006275574    0.000000000
 -------------------------------------------------------------------
 Cartesian Forces:  Max     0.039894322 RMS     0.016764197

 GradGradGradGradGradGradGradGradGradGradGradGradGradGradGradGradGradGrad
 Berny optimization.
 Internal  Forces:  Max     0.043083312 RMS     0.013743538
 Search for a local minimum.
 Step number   1 out of a maximum of  36
 All quantities printed in internal units (Hartrees-Bohrs-Radians)
 Second derivative matrix not updated -- first step.
     Eigenvalues ---    0.02505   0.02639   0.02674   0.02834   0.16000
     Eigenvalues ---    0.16000   0.22605   0.24688   0.37515   0.48737
     Eigenvalues ---    0.50885   0.56605   0.58506   0.66912   0.78894
     Eigenvalues --- 1000.000001000.000001000.000001000.000001000.00000
     Eigenvalues --- 1000.000001000.000001000.000001000.000001000.00000
     Eigenvalues --- 1000.00000
 RFO step:  Lambda=-7.73203743D-03.
 Linear search not attempted -- first point.
 Iteration  1 RMS(Cart)=  0.02477271 RMS(Int)=  0.00002919
 Iteration  2 RMS(Cart)=  0.00003132 RMS(Int)=  0.00000853
 Iteration  3 RMS(Cart)=  0.00000000 RMS(Int)=  0.00000853
 Variable       Old X    -DE/DX   Delta X   Delta X   Delta X     New X
                                 (Linear)    (Quad)   (Total)
    R1        2.36623   0.04308   0.00000   0.05294   0.05295   2.41918
    R2        2.53474   0.01285   0.00000   0.02357   0.02358   2.55832
    R3        2.50608   0.01617   0.00000   0.02621   0.02620   2.53228
    R4        1.87862   0.02723   0.00000   0.05500   0.05500   1.93362
    R5        2.51368   0.01993   0.00000   0.03136   0.03135   2.54503
    R6        2.43647   0.03218   0.00000   0.04459   0.04458   2.48106
    R7        2.01777   0.02083   0.00000   0.05440   0.05440   2.07217
    A1        1.94380  -0.00091   0.00000   0.00355   0.00358   1.94737
    A2        1.86179  -0.00185   0.00000  -0.00403  -0.00402   1.85777
    A3        2.10759  -0.00088   0.00000  -0.00130  -0.00129   2.10630
    A4        1.88535   0.00163   0.00000   0.00181   0.00180   1.88715
    A5        2.29024  -0.00075   0.00000  -0.00051  -0.00050   2.28974
    A6        1.84604  -0.00142   0.00000  -0.00577  -0.00577   1.84027
    A7        1.88780   0.00256   0.00000   0.00444   0.00442   1.89221
    A8        2.18241  -0.00139   0.00000  -0.00285  -0.00284   2.17957
    A9        2.21298  -0.00117   0.00000  -0.00159  -0.00158   2.21141
    D1        0.00000   0.00000   0.00000   0.00000   0.00000   0.00000
    D2        0.00000   0.00000   0.00000   0.00000   0.00000   0.00000
    D3        3.14159   0.00000   0.00000   0.00000   0.00000   3.14159
    D4        0.00000   0.00000   0.00000   0.00000   0.00000   0.00000
    D5        0.00000   0.00000   0.00000   0.00000   0.00000   0.00000
    D6        3.14159   0.00000   0.00000   0.00000   0.00000   3.14159
    D7        3.14159   0.00000   0.00000   0.00000   0.00000   3.14159
    D8        0.00000   0.00000   0.00000   0.00000   0.00000   0.00000
    D9        0.00000   0.00000   0.00000   0.00000   0.00000   0.00000
   D10        3.14159   0.00000   0.00000   0.00000   0.00000   3.14159
         Item               Value     Threshold  Converged?
 Maximum Force            0.043083     0.000450     NO 
 RMS     Force            0.013744     0.000300     NO 
 Maximum Displacement     0.069675     0.001800     NO 
 RMS     Displacement     0.024765     0.001200     NO 
 Predicted change in Energy=-3.916505D-03
 GradGradGradGradGradGradGradGradGradGradGradGradGradGradGradGradGradGrad

                          Input orientation:                          
 ---------------------------------------------------------------------
 Center     Atomic     Atomic              Coordinates (Angstroms)
 Number     Number      Type              X           Y           Z
 ---------------------------------------------------------------------
    1          7             0       -0.726379   -0.924950    0.000000
    2          7             0       -1.115196    0.294750    0.000000
    3          7             0       -0.005887    1.046484    0.000000
    4          1             0       -0.067321    2.067865    0.000000
    5          7             0        0.624298   -1.016911    0.000000
    6          6             0        1.058984    0.221960    0.000000
    7          1             0        2.105525    0.549317    0.000000
 ---------------------------------------------------------------------
                    Distance matrix (angstroms):
                    1          2          3          4          5
     1  N    0.000000
     2  N    1.280174   0.000000
     3  N    2.098967   1.340027   0.000000
     4  H    3.064522   2.059606   1.023226   0.000000
     5  N    1.353804   2.178599   2.157484   3.161357   0.000000
     6  C    2.122009   2.175398   1.346770   2.162389   1.312918
     7  H    3.192671   3.230767   2.169156   2.650896   2.155715
                    6          7
     6  C    0.000000
     7  H    1.096546   0.000000
 Stoichiometry    CH2N4
 Framework group  CS[SG(CH2N4)]
 Deg. of freedom    11
 Full point group                 CS      NOp   2
 Largest Abelian subgroup         CS      NOp   2
 Largest concise Abelian subgroup C1      NOp   1
                         Standard orientation:                         
 ---------------------------------------------------------------------
 Center     Atomic     Atomic              Coordinates (Angstroms)
 Number     Number      Type              X           Y           Z
 ---------------------------------------------------------------------
    1          7             0       -0.722669   -0.917056    0.000000
    2          7             0       -1.110139    0.303072    0.000000
    3          7             0        0.000000    1.053581    0.000000
    4          1             0       -0.060306    2.075028    0.000000
    5          7             0        0.627906   -1.010510    0.000000
    6          6             0        1.063959    0.227881    0.000000
    7          1             0        2.110862    0.554082    0.000000
 ---------------------------------------------------------------------
 Rotational constants (GHZ):     10.6026998     10.4146663      5.2539210
 Standard basis: CC-pVDZ (5D, 7F)
 There are    58 symmetry adapted basis functions of A'  symmetry.
 There are    22 symmetry adapted basis functions of A"  symmetry.
 Integral buffers will be    262144 words long.
 Raffenetti 2 integral format.
 Two-electron integral symmetry is turned on.
    80 basis functions,   179 primitive gaussians,    85 cartesian basis functions
    18 alpha electrons       18 beta electrons
       nuclear repulsion energy       167.2491206826 Hartrees.
 NAtoms=    7 NActive=    7 NUniq=    7 SFac= 1.00D+00 NAtFMM=   60 Big=F
 One-electron integrals computed using PRISM.
 NBasis=    80 RedAO= T  NBF=    58    22
 NBsUse=    80 1.00D-06 NBFU=    58    22
 Initial guess read from the read-write file:
 Initial guess orbital symmetries:
       Occupied  (A') (A') (A') (A') (A') (A') (A') (A') (A') (A')
                 (A') (A") (A') (A') (A") (A") (A') (A')
       Virtual   (A") (A") (A') (A') (A') (A') (A') (A') (A') (A')
                 (A") (A') (A') (A') (A') (A") (A') (A') (A") (A')
                 (A') (A") (A") (A') (A') (A") (A') (A") (A') (A')
                 (A') (A") (A') (A") (A') (A") (A') (A') (A') (A")
                 (A") (A') (A') (A') (A') (A") (A') (A") (A') (A')
                 (A") (A') (A") (A') (A') (A") (A') (A') (A') (A')
                 (A') (A')
 Harris functional with IExCor=  205 diagonalized for initial guess.
 ExpMin= 1.22D-01 ExpMax= 9.05D+03 ExpMxC= 3.09D+02 IAcc=1 IRadAn=         1 AccDes= 1.00D-06
 HarFok:  IExCor= 205 AccDes= 1.00D-06 IRadAn=         1 IDoV=1
 ScaDFX=  1.000000  1.000000  1.000000  1.000000
 Requested convergence on RMS density matrix=1.00D-08 within 128 cycles.
 Requested convergence on MAX density matrix=1.00D-06.
 Requested convergence on             energy=1.00D-06.
 No special actions if energy rises.
 Keep R1 integrals in memory in canonical form, NReq=     7523995.
 Integral accuracy reduced to 1.0D-05 until final iterations.
 Initial convergence to 1.0D-05 achieved.  Increase integral accuracy.
 SCF Done:  E(RS-VWN) =  -256.899936546     A.U. after   13 cycles
             Convg  =    0.8584D-08             -V/T =  2.0021
             S**2   =   0.0000
 Calling FoFCou, ICntrl=  2527 FMM=F ISym2X=1 I1Cent= 0 ISCF1= 0.
 ***** Axes restored to original set *****
 -------------------------------------------------------------------
 Center     Atomic                   Forces (Hartrees/Bohr)
 Number     Number              X              Y              Z
 -------------------------------------------------------------------
    1          7           0.003951814   -0.008013312    0.000000000
    2          7          -0.005185691    0.009158381    0.000000000
    3          7           0.001864990   -0.004729957    0.000000000
    4          1           0.000020664    0.000492962    0.000000000
    5          7          -0.002305615   -0.001194229    0.000000000
    6          6           0.002124786    0.004390975    0.000000000
    7          1          -0.000470948   -0.000104819    0.000000000
 -------------------------------------------------------------------
 Cartesian Forces:  Max     0.009158381 RMS     0.003432767

 GradGradGradGradGradGradGradGradGradGradGradGradGradGradGradGradGradGrad
 Berny optimization.
 Internal  Forces:  Max     0.007914869 RMS     0.001879258
 Search for a local minimum.
 Step number   2 out of a maximum of  36
 All quantities printed in internal units (Hartrees-Bohrs-Radians)
 Update second derivatives using D2CorX and points  1  2
 Trust test= 1.02D+00 RLast= 1.14D-01 DXMaxT set to 3.43D-01
     Eigenvalues ---    0.02506   0.02640   0.02675   0.02834   0.16000
     Eigenvalues ---    0.16000   0.22514   0.24629   0.38234   0.48843
     Eigenvalues ---    0.51111   0.56863   0.60349   0.66541   0.71820
     Eigenvalues --- 1000.000001000.000001000.000001000.000001000.00000
     Eigenvalues --- 1000.000001000.000001000.000001000.000001000.00000
     Eigenvalues --- 1000.00000
 RFO step:  Lambda=-1.56280204D-04.
 Quartic linear search produced a step of  0.07289.
 Iteration  1 RMS(Cart)=  0.00359995 RMS(Int)=  0.00001336
 Iteration  2 RMS(Cart)=  0.00001246 RMS(Int)=  0.00000568
 Iteration  3 RMS(Cart)=  0.00000000 RMS(Int)=  0.00000568
 Variable       Old X    -DE/DX   Delta X   Delta X   Delta X     New X
                                 (Linear)    (Quad)   (Total)
    R1        2.41918   0.00791   0.00386   0.00832   0.01218   2.43136
    R2        2.55832  -0.00083   0.00172  -0.00209  -0.00038   2.55794
    R3        2.53228   0.00062   0.00191  -0.00017   0.00175   2.53404
    R4        1.93362   0.00049   0.00401  -0.00148   0.00253   1.93615
    R5        2.54503  -0.00135   0.00229  -0.00478  -0.00249   2.54254
    R6        2.48106   0.00231   0.00325   0.00095   0.00419   2.48524
    R7        2.07217  -0.00048   0.00397  -0.00380   0.00017   2.07234
    A1        1.94737  -0.00065   0.00026   0.00061   0.00087   1.94824
    A2        1.85777  -0.00262  -0.00029  -0.00906  -0.00934   1.84843
    A3        2.10630  -0.00135  -0.00009  -0.00519  -0.00529   2.10100
    A4        1.88715   0.00278   0.00013   0.01093   0.01108   1.89822
    A5        2.28974  -0.00143  -0.00004  -0.00574  -0.00578   2.28396
    A6        1.84027   0.00106  -0.00042   0.00418   0.00374   1.84401
    A7        1.89221  -0.00057   0.00032  -0.00667  -0.00635   1.88587
    A8        2.17957   0.00023  -0.00021   0.00300   0.00279   2.18236
    A9        2.21141   0.00034  -0.00012   0.00367   0.00355   2.21496
    D1        0.00000   0.00000   0.00000   0.00000   0.00000   0.00000
    D2        0.00000   0.00000   0.00000   0.00000   0.00000   0.00000
    D3        3.14159   0.00000   0.00000   0.00000   0.00000   3.14159
    D4        0.00000   0.00000   0.00000   0.00000   0.00000   0.00000
    D5        0.00000   0.00000   0.00000   0.00000   0.00000   0.00000
    D6        3.14159   0.00000   0.00000   0.00000   0.00000   3.14159
    D7        3.14159   0.00000   0.00000   0.00000   0.00000   3.14159
    D8        0.00000   0.00000   0.00000   0.00000   0.00000   0.00000
    D9        0.00000   0.00000   0.00000   0.00000   0.00000   0.00000
   D10        3.14159   0.00000   0.00000   0.00000   0.00000   3.14159
         Item               Value     Threshold  Converged?
 Maximum Force            0.007915     0.000450     NO 
 RMS     Force            0.001879     0.000300     NO 
 Maximum Displacement     0.010674     0.001800     NO 
 RMS     Displacement     0.003599     0.001200     NO 
 Predicted change in Energy=-9.416453D-05
 GradGradGradGradGradGradGradGradGradGradGradGradGradGradGradGradGradGrad

                          Input orientation:                          
 ---------------------------------------------------------------------
 Center     Atomic     Atomic              Coordinates (Angstroms)
 Number     Number      Type              X           Y           Z
 ---------------------------------------------------------------------
    1          7             0       -0.727072   -0.926790    0.000000
    2          7             0       -1.120845    0.298091    0.000000
    3          7             0       -0.005608    1.042674    0.000000
    4          1             0       -0.065485    2.065490    0.000000
    5          7             0        0.623550   -1.016607    0.000000
    6          6             0        1.061655    0.223411    0.000000
    7          1             0        2.107827    0.552246    0.000000
 ---------------------------------------------------------------------
                    Distance matrix (angstroms):
                    1          2          3          4          5
     1  N    0.000000
     2  N    1.286620   0.000000
     3  N    2.097451   1.340954   0.000000
     4  H    3.064545   2.058514   1.024566   0.000000
     5  N    1.353605   2.184341   2.153248   3.158178   0.000000
     6  C    2.126619   2.183778   1.345453   2.159560   1.315135
     7  H    3.197530   3.238660   2.169591   2.648243   2.159717
                    6          7
     6  C    0.000000
     7  H    1.096634   0.000000
 Stoichiometry    CH2N4
 Framework group  CS[SG(CH2N4)]
 Deg. of freedom    11
 Full point group                 CS      NOp   2
 Largest Abelian subgroup         CS      NOp   2
 Largest concise Abelian subgroup C1      NOp   1
                         Standard orientation:                         
 ---------------------------------------------------------------------
 Center     Atomic     Atomic              Coordinates (Angstroms)
 Number     Number      Type              X           Y           Z
 ---------------------------------------------------------------------
    1          7             0       -0.721690   -0.919479    0.000000
    2          7             0       -1.115323    0.305447    0.000000
    3          7             0        0.000000    1.049903    0.000000
    4          1             0       -0.059760    2.072725    0.000000
    5          7             0        0.628922   -1.009450    0.000000
    6          6             0        1.067169    0.230517    0.000000
    7          1             0        2.113378    0.559232    0.000000
 ---------------------------------------------------------------------
 Rotational constants (GHZ):     10.5855956     10.3868732      5.2426465
 Standard basis: CC-pVDZ (5D, 7F)
 There are    58 symmetry adapted basis functions of A'  symmetry.
 There are    22 symmetry adapted basis functions of A"  symmetry.
 Integral buffers will be    262144 words long.
 Raffenetti 2 integral format.
 Two-electron integral symmetry is turned on.
    80 basis functions,   179 primitive gaussians,    85 cartesian basis functions
    18 alpha electrons       18 beta electrons
       nuclear repulsion energy       167.0552709166 Hartrees.
 NAtoms=    7 NActive=    7 NUniq=    7 SFac= 1.00D+00 NAtFMM=   60 Big=F
 One-electron integrals computed using PRISM.
 NBasis=    80 RedAO= T  NBF=    58    22
 NBsUse=    80 1.00D-06 NBFU=    58    22
 Initial guess read from the read-write file:
 Initial guess orbital symmetries:
       Occupied  (A') (A') (A') (A') (A') (A') (A') (A') (A') (A')
                 (A') (A") (A') (A') (A") (A") (A') (A')
       Virtual   (A") (A") (A') (A') (A') (A') (A') (A') (A') (A')
                 (A") (A') (A') (A') (A') (A") (A') (A') (A") (A')
                 (A') (A") (A") (A') (A') (A") (A') (A") (A') (A')
                 (A') (A") (A') (A") (A') (A") (A') (A') (A') (A")
                 (A") (A') (A') (A') (A') (A") (A') (A") (A') (A')
                 (A') (A") (A") (A') (A') (A") (A') (A') (A') (A')
                 (A') (A')
 Requested convergence on RMS density matrix=1.00D-08 within 128 cycles.
 Requested convergence on MAX density matrix=1.00D-06.
 Requested convergence on             energy=1.00D-06.
 No special actions if energy rises.
 Keep R1 integrals in memory in canonical form, NReq=     7523995.
 SCF Done:  E(RS-VWN) =  -256.900041456     A.U. after   11 cycles
             Convg  =    0.6283D-09             -V/T =  2.0022
             S**2   =   0.0000
 Calling FoFCou, ICntrl=  2527 FMM=F ISym2X=1 I1Cent= 0 ISCF1= 0.
 ***** Axes restored to original set *****
 -------------------------------------------------------------------
 Center     Atomic                   Forces (Hartrees/Bohr)
 Number     Number              X              Y              Z
 -------------------------------------------------------------------
    1          7           0.003131067   -0.003869681    0.000000000
    2          7           0.001239612    0.003461424    0.000000000
    3          7          -0.000038216    0.000044923    0.000000000
    4          1           0.000141737   -0.000399463    0.000000000
    5          7          -0.002829224   -0.000789258    0.000000000
    6          6          -0.001018420    0.001721310    0.000000000
    7          1          -0.000626555   -0.000169256    0.000000000
 -------------------------------------------------------------------
 Cartesian Forces:  Max     0.003869681 RMS     0.001566433

 GradGradGradGradGradGradGradGradGradGradGradGradGradGradGradGradGradGrad
 Berny optimization.
 Internal  Forces:  Max     0.003210860 RMS     0.001036827
 Search for a local minimum.
 Step number   3 out of a maximum of  36
 All quantities printed in internal units (Hartrees-Bohrs-Radians)
 Update second derivatives using D2CorX and points  1  2  3
 Trust test= 1.11D+00 RLast= 2.30D-02 DXMaxT set to 3.43D-01
     Eigenvalues ---    0.02505   0.02639   0.02674   0.02834   0.15966
     Eigenvalues ---    0.16001   0.23681   0.28806   0.38277   0.39430
     Eigenvalues ---    0.50764   0.51902   0.59349   0.67812   0.70873
     Eigenvalues --- 1000.000001000.000001000.000001000.000001000.00000
     Eigenvalues --- 1000.000001000.000001000.000001000.000001000.00000
     Eigenvalues --- 1000.00000
 RFO step:  Lambda=-5.95326454D-05.
 Quartic linear search produced a step of  0.11567.
 Iteration  1 RMS(Cart)=  0.00217288 RMS(Int)=  0.00000112
 Iteration  2 RMS(Cart)=  0.00000082 RMS(Int)=  0.00000052
 Variable       Old X    -DE/DX   Delta X   Delta X   Delta X     New X
                                 (Linear)    (Quad)   (Total)
    R1        2.43136   0.00321   0.00141   0.00723   0.00864   2.44000
    R2        2.55794  -0.00284  -0.00004  -0.00525  -0.00529   2.55265
    R3        2.53404  -0.00141   0.00020  -0.00198  -0.00178   2.53226
    R4        1.93615  -0.00041   0.00029   0.00007   0.00036   1.93651
    R5        2.54254  -0.00142  -0.00029  -0.00305  -0.00334   2.53920
    R6        2.48524   0.00132   0.00048   0.00311   0.00360   2.48884
    R7        2.07234  -0.00065   0.00002  -0.00134  -0.00132   2.07102
    A1        1.94824  -0.00097   0.00010  -0.00301  -0.00291   1.94533
    A2        1.84843   0.00069  -0.00108   0.00222   0.00114   1.84957
    A3        2.10100   0.00044  -0.00061   0.00175   0.00113   2.10213
    A4        1.89822  -0.00068   0.00128  -0.00196  -0.00068   1.89754
    A5        2.28396   0.00024  -0.00067   0.00022  -0.00045   2.28351
    A6        1.84401   0.00011   0.00043   0.00074   0.00118   1.84519
    A7        1.88587   0.00085  -0.00073   0.00201   0.00128   1.88715
    A8        2.18236  -0.00046   0.00032  -0.00135  -0.00103   2.18133
    A9        2.21496  -0.00038   0.00041  -0.00066  -0.00025   2.21471
    D1        0.00000   0.00000   0.00000   0.00000   0.00000   0.00000
    D2        0.00000   0.00000   0.00000   0.00000   0.00000   0.00000
    D3        3.14159   0.00000   0.00000   0.00000   0.00000   3.14159
    D4        0.00000   0.00000   0.00000   0.00000   0.00000   0.00000
    D5        0.00000   0.00000   0.00000   0.00000   0.00000   0.00000
    D6        3.14159   0.00000   0.00000   0.00000   0.00000   3.14159
    D7        3.14159   0.00000   0.00000   0.00000   0.00000   3.14159
    D8        0.00000   0.00000   0.00000   0.00000   0.00000   0.00000
    D9        0.00000   0.00000   0.00000   0.00000   0.00000   0.00000
   D10        3.14159   0.00000   0.00000   0.00000   0.00000   3.14159
         Item               Value     Threshold  Converged?
 Maximum Force            0.003211     0.000450     NO 
 RMS     Force            0.001037     0.000300     NO 
 Maximum Displacement     0.006782     0.001800     NO 
 RMS     Displacement     0.002173     0.001200     NO 
 Predicted change in Energy=-3.083644D-05
 GradGradGradGradGradGradGradGradGradGradGradGradGradGradGradGradGradGrad

                          Input orientation:                          
 ---------------------------------------------------------------------
 Center     Atomic     Atomic              Coordinates (Angstroms)
 Number     Number      Type              X           Y           Z
 ---------------------------------------------------------------------
    1          7             0       -0.725829   -0.930379    0.000000
    2          7             0       -1.119515    0.299334    0.000000
    3          7             0       -0.005009    1.043316    0.000000
    4          1             0       -0.063666    2.066394    0.000000
    5          7             0        0.622150   -1.017717    0.000000
    6          6             0        1.060238    0.224326    0.000000
    7          1             0        2.105654    0.553241    0.000000
 ---------------------------------------------------------------------
                    Distance matrix (angstroms):
                    1          2          3          4          5
     1  N    0.000000
     2  N    1.291194   0.000000
     3  N    2.101202   1.340012   0.000000
     4  H    3.069056   2.058474   1.024758   0.000000
     5  N    1.350806   2.183579   2.154340   3.159443   0.000000
     6  C    2.126824   2.181043   1.343687   2.157864   1.317038
     7  H    3.196627   3.235147   2.166811   2.644916   2.160715
                    6          7
     6  C    0.000000
     7  H    1.095937   0.000000
 Stoichiometry    CH2N4
 Framework group  CS[SG(CH2N4)]
 Deg. of freedom    11
 Full point group                 CS      NOp   2
 Largest Abelian subgroup         CS      NOp   2
 Largest concise Abelian subgroup C1      NOp   1
                         Standard orientation:                         
 ---------------------------------------------------------------------
 Center     Atomic     Atomic              Coordinates (Angstroms)
 Number     Number      Type              X           Y           Z
 ---------------------------------------------------------------------
    1          7             0       -0.720107   -0.923069    0.000000
    2          7             0       -1.114237    0.306501    0.000000
    3          7             0        0.000000    1.050886    0.000000
    4          1             0       -0.059028    2.073943    0.000000
    5          7             0        0.627905   -1.009919    0.000000
    6          6             0        1.065543    0.232282    0.000000
    7          1             0        2.110840    0.561574    0.000000
 ---------------------------------------------------------------------
 Rotational constants (GHZ):     10.5679067     10.3986243      5.2412911
 Standard basis: CC-pVDZ (5D, 7F)
 There are    58 symmetry adapted basis functions of A'  symmetry.
 There are    22 symmetry adapted basis functions of A"  symmetry.
 Integral buffers will be    262144 words long.
 Raffenetti 2 integral format.
 Two-electron integral symmetry is turned on.
    80 basis functions,   179 primitive gaussians,    85 cartesian basis functions
    18 alpha electrons       18 beta electrons
       nuclear repulsion energy       167.0255009353 Hartrees.
 NAtoms=    7 NActive=    7 NUniq=    7 SFac= 1.00D+00 NAtFMM=   60 Big=F
 One-electron integrals computed using PRISM.
 NBasis=    80 RedAO= T  NBF=    58    22
 NBsUse=    80 1.00D-06 NBFU=    58    22
 Initial guess read from the read-write file:
 Initial guess orbital symmetries:
       Occupied  (A') (A') (A') (A') (A') (A') (A') (A') (A') (A')
                 (A') (A") (A') (A') (A") (A") (A') (A')
       Virtual   (A") (A") (A') (A') (A') (A') (A') (A') (A') (A')
                 (A") (A') (A') (A') (A') (A") (A') (A') (A") (A')
                 (A') (A") (A") (A') (A') (A") (A') (A") (A') (A')
                 (A') (A") (A') (A") (A') (A") (A') (A') (A') (A")
                 (A") (A') (A') (A') (A') (A") (A') (A") (A') (A')
                 (A') (A") (A") (A') (A') (A") (A') (A') (A') (A')
                 (A') (A')
 Requested convergence on RMS density matrix=1.00D-08 within 128 cycles.
 Requested convergence on MAX density matrix=1.00D-06.
 Requested convergence on             energy=1.00D-06.
 No special actions if energy rises.
 Keep R1 integrals in memory in canonical form, NReq=     7523995.
 SCF Done:  E(RS-VWN) =  -256.900071886     A.U. after   10 cycles
             Convg  =    0.4325D-08             -V/T =  2.0022
             S**2   =   0.0000
 Calling FoFCou, ICntrl=  2527 FMM=F ISym2X=1 I1Cent= 0 ISCF1= 0.
 ***** Axes restored to original set *****
 -------------------------------------------------------------------
 Center     Atomic                   Forces (Hartrees/Bohr)
 Number     Number              X              Y              Z
 -------------------------------------------------------------------
    1          7           0.001889806    0.000882710    0.000000000
    2          7           0.000335692    0.000423940    0.000000000
    3          7          -0.000918282   -0.000748595    0.000000000
    4          1           0.000020729   -0.000604657    0.000000000
    5          7          -0.001289359    0.000438103    0.000000000
    6          6           0.000075903   -0.000225431    0.000000000
    7          1          -0.000114489   -0.000166071    0.000000000
 -------------------------------------------------------------------
 Cartesian Forces:  Max     0.001889806 RMS     0.000631109

 GradGradGradGradGradGradGradGradGradGradGradGradGradGradGradGradGradGrad
 Berny optimization.
 Internal  Forces:  Max     0.001475788 RMS     0.000480090
 Search for a local minimum.
 Step number   4 out of a maximum of  36
 All quantities printed in internal units (Hartrees-Bohrs-Radians)
 Update second derivatives using D2CorX and points  1  2  3  4
 Trust test= 9.87D-01 RLast= 1.22D-02 DXMaxT set to 3.43D-01
     Eigenvalues ---    0.02505   0.02639   0.02675   0.02835   0.15932
     Eigenvalues ---    0.16053   0.21711   0.24850   0.37667   0.46700
     Eigenvalues ---    0.49191   0.52667   0.59050   0.68376   0.72733
     Eigenvalues --- 1000.000001000.000001000.000001000.000001000.00000
     Eigenvalues --- 1000.000001000.000001000.000001000.000001000.00000
     Eigenvalues --- 1000.00000
 RFO step:  Lambda=-1.24852038D-05.
 Quartic linear search produced a step of -0.00906.
 Iteration  1 RMS(Cart)=  0.00102874 RMS(Int)=  0.00000064
 Iteration  2 RMS(Cart)=  0.00000047 RMS(Int)=  0.00000029
 Variable       Old X    -DE/DX   Delta X   Delta X   Delta X     New X
                                 (Linear)    (Quad)   (Total)
    R1        2.44000  -0.00045  -0.00008   0.00123   0.00116   2.44116
    R2        2.55265  -0.00148   0.00005  -0.00360  -0.00355   2.54910
    R3        2.53226  -0.00118   0.00002  -0.00218  -0.00216   2.53009
    R4        1.93651  -0.00061   0.00000  -0.00102  -0.00103   1.93548
    R5        2.53920  -0.00007   0.00003  -0.00063  -0.00060   2.53861
    R6        2.48884  -0.00074  -0.00003  -0.00022  -0.00025   2.48859
    R7        2.07102  -0.00016   0.00001  -0.00054  -0.00053   2.07049
    A1        1.94533   0.00076   0.00003   0.00203   0.00206   1.94739
    A2        1.84957  -0.00063  -0.00001  -0.00239  -0.00240   1.84717
    A3        2.10213  -0.00018  -0.00001  -0.00077  -0.00079   2.10135
    A4        1.89754   0.00031   0.00001   0.00157   0.00158   1.89912
    A5        2.28351  -0.00013   0.00000  -0.00080  -0.00079   2.28272
    A6        1.84519  -0.00018  -0.00001  -0.00058  -0.00059   1.84460
    A7        1.88715  -0.00026  -0.00001  -0.00063  -0.00064   1.88650
    A8        2.18133   0.00025   0.00001   0.00095   0.00096   2.18230
    A9        2.21471   0.00001   0.00000  -0.00033  -0.00032   2.21439
    D1        0.00000   0.00000   0.00000   0.00000   0.00000   0.00000
    D2        0.00000   0.00000   0.00000   0.00000   0.00000   0.00000
    D3        3.14159   0.00000   0.00000   0.00000   0.00000   3.14159
    D4        0.00000   0.00000   0.00000   0.00000   0.00000   0.00000
    D5        0.00000   0.00000   0.00000   0.00000   0.00000   0.00000
    D6        3.14159   0.00000   0.00000   0.00000   0.00000   3.14159
    D7        3.14159   0.00000   0.00000   0.00000   0.00000   3.14159
    D8        0.00000   0.00000   0.00000   0.00000   0.00000   0.00000
    D9        0.00000   0.00000   0.00000   0.00000   0.00000   0.00000
   D10        3.14159   0.00000   0.00000   0.00000   0.00000   3.14159
         Item               Value     Threshold  Converged?
 Maximum Force            0.001476     0.000450     NO 
 RMS     Force            0.000480     0.000300     NO 
 Maximum Displacement     0.003163     0.001800     NO 
 RMS     Displacement     0.001029     0.001200     YES
 Predicted change in Energy=-6.246448D-06
 GradGradGradGradGradGradGradGradGradGradGradGradGradGradGradGradGradGrad

                          Input orientation:                          
 ---------------------------------------------------------------------
 Center     Atomic     Atomic              Coordinates (Angstroms)
 Number     Number      Type              X           Y           Z
 ---------------------------------------------------------------------
    1          7             0       -0.724156   -0.929371    0.000000
    2          7             0       -1.119745    0.300373    0.000000
    3          7             0       -0.005444    1.042600    0.000000
    4          1             0       -0.063845    2.065148    0.000000
    5          7             0        0.621892   -1.017477    0.000000
    6          6             0        1.060022    0.224411    0.000000
    7          1             0        2.105299    0.552832    0.000000
 ---------------------------------------------------------------------
                    Distance matrix (angstroms):
                    1          2          3          4          5
     1  N    0.000000
     2  N    1.291805   0.000000
     3  N    2.098860   1.338869   0.000000
     4  H    3.066456   2.056540   1.024215   0.000000
     5  N    1.348928   2.184040   2.153478   3.157976   0.000000
     6  C    2.124736   2.181090   1.343372   2.156708   1.316907
     7  H    3.194173   3.234911   2.166820   2.644293   2.160178
                    6          7
     6  C    0.000000
     7  H    1.095658   0.000000
 Stoichiometry    CH2N4
 Framework group  CS[SG(CH2N4)]
 Deg. of freedom    11
 Full point group                 CS      NOp   2
 Largest Abelian subgroup         CS      NOp   2
 Largest concise Abelian subgroup C1      NOp   1
                         Standard orientation:                         
 ---------------------------------------------------------------------
 Center     Atomic     Atomic              Coordinates (Angstroms)
 Number     Number      Type              X           Y           Z
 ---------------------------------------------------------------------
    1          7             0       -0.718993   -0.921972    0.000000
    2          7             0       -1.114408    0.307829    0.000000
    3          7             0        0.000000    1.049896    0.000000
    4          1             0       -0.058255    2.072453    0.000000
    5          7             0        0.627042   -1.010270    0.000000
    6          6             0        1.065349    0.231556    0.000000
    7          1             0        2.110673    0.559828    0.000000
 ---------------------------------------------------------------------
 Rotational constants (GHZ):     10.5884717     10.3971917      5.2459800
 Standard basis: CC-pVDZ (5D, 7F)
 There are    58 symmetry adapted basis functions of A'  symmetry.
 There are    22 symmetry adapted basis functions of A"  symmetry.
 Integral buffers will be    262144 words long.
 Raffenetti 2 integral format.
 Two-electron integral symmetry is turned on.
    80 basis functions,   179 primitive gaussians,    85 cartesian basis functions
    18 alpha electrons       18 beta electrons
       nuclear repulsion energy       167.0990829250 Hartrees.
 NAtoms=    7 NActive=    7 NUniq=    7 SFac= 1.00D+00 NAtFMM=   60 Big=F
 One-electron integrals computed using PRISM.
 NBasis=    80 RedAO= T  NBF=    58    22
 NBsUse=    80 1.00D-06 NBFU=    58    22
 Initial guess read from the read-write file:
 Initial guess orbital symmetries:
       Occupied  (A') (A') (A') (A') (A') (A') (A') (A') (A') (A')
                 (A') (A") (A') (A') (A") (A") (A') (A')
       Virtual   (A") (A") (A') (A') (A') (A') (A') (A') (A') (A')
                 (A") (A') (A') (A') (A') (A") (A') (A') (A") (A')
                 (A') (A") (A") (A') (A') (A") (A') (A") (A') (A')
                 (A') (A") (A') (A") (A') (A") (A') (A') (A') (A")
                 (A") (A') (A') (A') (A') (A") (A') (A") (A') (A')
                 (A') (A") (A") (A') (A') (A") (A') (A') (A') (A')
                 (A') (A')
 Requested convergence on RMS density matrix=1.00D-08 within 128 cycles.
 Requested convergence on MAX density matrix=1.00D-06.
 Requested convergence on             energy=1.00D-06.
 No special actions if energy rises.
 Keep R1 integrals in memory in canonical form, NReq=     7523995.
 SCF Done:  E(RS-VWN) =  -256.900077991     A.U. after    9 cycles
             Convg  =    0.3728D-08             -V/T =  2.0022
             S**2   =   0.0000
 Calling FoFCou, ICntrl=  2527 FMM=F ISym2X=1 I1Cent= 0 ISCF1= 0.
 ***** Axes restored to original set *****
 -------------------------------------------------------------------
 Center     Atomic                   Forces (Hartrees/Bohr)
 Number     Number              X              Y              Z
 -------------------------------------------------------------------
    1          7          -0.000016555    0.000034502    0.000000000
    2          7           0.000720900   -0.000505694    0.000000000
    3          7          -0.000408288    0.000131395    0.000000000
    4          1           0.000076785   -0.000113898    0.000000000
    5          7          -0.000796452    0.000486908    0.000000000
    6          6           0.000392439   -0.000017641    0.000000000
    7          1           0.000031171   -0.000015571    0.000000000
 -------------------------------------------------------------------
 Cartesian Forces:  Max     0.000796452 RMS     0.000309121

 GradGradGradGradGradGradGradGradGradGradGradGradGradGradGradGradGradGrad
 Berny optimization.
 Internal  Forces:  Max     0.000488533 RMS     0.000214278
 Search for a local minimum.
 Step number   5 out of a maximum of  36
 All quantities printed in internal units (Hartrees-Bohrs-Radians)
 Update second derivatives using D2CorX and points  1  2  3  4  5

 Trust test= 9.77D-01 RLast= 5.99D-03 DXMaxT set to 3.43D-01
     Eigenvalues ---    0.02505   0.02639   0.02675   0.02834   0.14915
     Eigenvalues ---    0.16055   0.17375   0.38427   0.40380   0.44158
     Eigenvalues ---    0.49509   0.54111   0.59828   0.62552   0.72462
     Eigenvalues --- 1000.000001000.000001000.000001000.000001000.00000
     Eigenvalues --- 1000.000001000.000001000.000001000.000001000.00000
     Eigenvalues --- 1000.00000
 RFO step:  Lambda=-3.10897902D-06.
 Quartic linear search produced a step of -0.03380.
 Iteration  1 RMS(Cart)=  0.00054895 RMS(Int)=  0.00000029
 Iteration  2 RMS(Cart)=  0.00000027 RMS(Int)=  0.00000011
 Variable       Old X    -DE/DX   Delta X   Delta X   Delta X     New X
                                 (Linear)    (Quad)   (Total)
    R1        2.44116  -0.00049  -0.00004  -0.00024  -0.00028   2.44088
    R2        2.54910  -0.00046   0.00012  -0.00172  -0.00160   2.54750
    R3        2.53009  -0.00015   0.00007  -0.00077  -0.00070   2.52940
    R4        1.93548  -0.00012   0.00003  -0.00048  -0.00044   1.93504
    R5        2.53861  -0.00002   0.00002  -0.00011  -0.00009   2.53852
    R6        2.48859  -0.00002   0.00001  -0.00004  -0.00003   2.48856
    R7        2.07049   0.00003   0.00002  -0.00006  -0.00004   2.07045
    A1        1.94739  -0.00035  -0.00007  -0.00105  -0.00112   1.94627
    A2        1.84717   0.00040   0.00008   0.00059   0.00067   1.84784
    A3        2.10135   0.00013   0.00003   0.00023   0.00026   2.10161
    A4        1.89912  -0.00015  -0.00005   0.00021   0.00016   1.89928
    A5        2.28272   0.00002   0.00003  -0.00044  -0.00041   2.28230
    A6        1.84460   0.00045   0.00002   0.00160   0.00162   1.84622
    A7        1.88650  -0.00035   0.00002  -0.00136  -0.00134   1.88517
    A8        2.18230   0.00019  -0.00003   0.00094   0.00090   2.18320
    A9        2.21439   0.00016   0.00001   0.00042   0.00043   2.21482
    D1        0.00000   0.00000   0.00000   0.00000   0.00000   0.00000
    D2        0.00000   0.00000   0.00000   0.00000   0.00000   0.00000
    D3        3.14159   0.00000   0.00000   0.00000   0.00000   3.14159
    D4        0.00000   0.00000   0.00000   0.00000   0.00000   0.00000
    D5        0.00000   0.00000   0.00000   0.00000   0.00000   0.00000
    D6        3.14159   0.00000   0.00000   0.00000   0.00000   3.14159
    D7        3.14159   0.00000   0.00000   0.00000   0.00000   3.14159
    D8        0.00000   0.00000   0.00000   0.00000   0.00000   0.00000
    D9        0.00000   0.00000   0.00000   0.00000   0.00000   0.00000
   D10        3.14159   0.00000   0.00000   0.00000   0.00000   3.14159
         Item               Value     Threshold  Converged?
 Maximum Force            0.000489     0.000450     NO 
 RMS     Force            0.000214     0.000300     YES
 Maximum Displacement     0.001616     0.001800     YES
 RMS     Displacement     0.000549     0.001200     YES
 Predicted change in Energy=-1.559706D-06
 GradGradGradGradGradGradGradGradGradGradGradGradGradGradGradGradGradGrad

                          Input orientation:                          
 ---------------------------------------------------------------------
 Center     Atomic     Atomic              Coordinates (Angstroms)
 Number     Number      Type              X           Y           Z
 ---------------------------------------------------------------------
    1          7             0       -0.724229   -0.929631    0.000000
    2          7             0       -1.119298    0.300125    0.000000
    3          7             0       -0.005514    1.042465    0.000000
    4          1             0       -0.063930    2.064777    0.000000
    5          7             0        0.621037   -1.016703    0.000000
    6          6             0        1.060275    0.224776    0.000000
    7          1             0        2.105683    0.552706    0.000000
 ---------------------------------------------------------------------
                    Distance matrix (angstroms):
                    1          2          3          4          5
     1  N    0.000000
     2  N    1.291658   0.000000
     3  N    2.098979   1.338500   0.000000
     4  H    3.066345   2.056160   1.023979   0.000000
     5  N    1.348081   2.182384   2.152380   3.156691   0.000000
     6  C    2.125350   2.180875   1.343325   2.156256   1.316890
     7  H    3.194641   3.234856   2.167260   2.644537   2.160375
                    6          7
     6  C    0.000000
     7  H    1.095635   0.000000
 Stoichiometry    CH2N4
 Framework group  CS[SG(CH2N4)]
 Deg. of freedom    11
 Full point group                 CS      NOp   2
 Largest Abelian subgroup         CS      NOp   2
 Largest concise Abelian subgroup C1      NOp   1
                         Standard orientation:                         
 ---------------------------------------------------------------------
 Center     Atomic     Atomic              Coordinates (Angstroms)
 Number     Number      Type              X           Y           Z
 ---------------------------------------------------------------------
    1          7             0       -0.719022   -0.922295    0.000000
    2          7             0       -1.113899    0.307523    0.000000
    3          7             0        0.000000    1.049689    0.000000
    4          1             0       -0.058257    2.072010    0.000000
    5          7             0        0.626231   -1.009576    0.000000
    6          6             0        1.065662    0.231834    0.000000
    7          1             0        2.111121    0.559602    0.000000
 ---------------------------------------------------------------------
 Rotational constants (GHZ):     10.5857551     10.4084112      5.2481670
 Standard basis: CC-pVDZ (5D, 7F)
 There are    58 symmetry adapted basis functions of A'  symmetry.
 There are    22 symmetry adapted basis functions of A"  symmetry.
 Integral buffers will be    262144 words long.
 Raffenetti 2 integral format.
 Two-electron integral symmetry is turned on.
    80 basis functions,   179 primitive gaussians,    85 cartesian basis functions
    18 alpha electrons       18 beta electrons
       nuclear repulsion energy       167.1334060726 Hartrees.
 NAtoms=    7 NActive=    7 NUniq=    7 SFac= 1.00D+00 NAtFMM=   60 Big=F
 One-electron integrals computed using PRISM.
 NBasis=    80 RedAO= T  NBF=    58    22
 NBsUse=    80 1.00D-06 NBFU=    58    22
 Initial guess read from the read-write file:
 Initial guess orbital symmetries:
       Occupied  (A') (A') (A') (A') (A') (A') (A') (A') (A') (A')
                 (A') (A") (A') (A') (A") (A") (A') (A')
       Virtual   (A") (A") (A') (A') (A') (A') (A') (A') (A') (A')
                 (A") (A') (A') (A') (A') (A") (A') (A') (A") (A')
                 (A') (A") (A") (A') (A') (A") (A') (A") (A') (A')
                 (A') (A") (A') (A") (A') (A") (A') (A') (A') (A")
                 (A") (A') (A') (A') (A') (A") (A') (A") (A') (A')
                 (A') (A") (A") (A') (A') (A") (A') (A') (A') (A')
                 (A') (A')
 Requested convergence on RMS density matrix=1.00D-08 within 128 cycles.
 Requested convergence on MAX density matrix=1.00D-06.
 Requested convergence on             energy=1.00D-06.
 No special actions if energy rises.
 Keep R1 integrals in memory in canonical form, NReq=     7523995.
 SCF Done:  E(RS-VWN) =  -256.900079283     A.U. after    9 cycles
             Convg  =    0.3103D-08             -V/T =  2.0022
             S**2   =   0.0000
 Calling FoFCou, ICntrl=  2527 FMM=F ISym2X=1 I1Cent= 0 ISCF1= 0.
 ***** Axes restored to original set *****
 -------------------------------------------------------------------
 Center     Atomic                   Forces (Hartrees/Bohr)
 Number     Number              X              Y              Z
 -------------------------------------------------------------------
    1          7           0.000021746    0.000268394    0.000000000
    2          7           0.000062641   -0.000120067    0.000000000
    3          7          -0.000253202    0.000150759    0.000000000
    4          1          -0.000002552    0.000076916    0.000000000
    5          7           0.000076850   -0.000182712    0.000000000
    6          6           0.000075461   -0.000175882    0.000000000
    7          1           0.000019056   -0.000017407    0.000000000
 -------------------------------------------------------------------
 Cartesian Forces:  Max     0.000268394 RMS     0.000111311

 GradGradGradGradGradGradGradGradGradGradGradGradGradGradGradGradGradGrad
 Berny optimization.
 Internal  Forces:  Max     0.000277897 RMS     0.000081611
 Search for a local minimum.
 Step number   6 out of a maximum of  36
 All quantities printed in internal units (Hartrees-Bohrs-Radians)
 Update second derivatives using D2CorX and points  1  2  3  4  5
                                                        6
 Trust test= 8.29D-01 RLast= 3.28D-03 DXMaxT set to 3.43D-01
     Eigenvalues ---    0.02505   0.02639   0.02675   0.02834   0.15522
     Eigenvalues ---    0.16050   0.20584   0.38017   0.39836   0.42674
     Eigenvalues ---    0.49899   0.53407   0.57721   0.68356   0.73398
     Eigenvalues --- 1000.000001000.000001000.000001000.000001000.00000
     Eigenvalues --- 1000.000001000.000001000.000001000.000001000.00000
     Eigenvalues --- 1000.00000
 RFO step:  Lambda=-2.72194836D-07.
 Quartic linear search produced a step of -0.14749.
 Iteration  1 RMS(Cart)=  0.00017893 RMS(Int)=  0.00000003
 Iteration  2 RMS(Cart)=  0.00000002 RMS(Int)=  0.00000001
 Variable       Old X    -DE/DX   Delta X   Delta X   Delta X     New X
                                 (Linear)    (Quad)   (Total)
    R1        2.44088  -0.00012   0.00004  -0.00045  -0.00041   2.44047
    R2        2.54750   0.00001   0.00024  -0.00004   0.00019   2.54770
    R3        2.52940  -0.00008   0.00010  -0.00011  -0.00001   2.52939
    R4        1.93504   0.00008   0.00007   0.00004   0.00010   1.93514
    R5        2.53852   0.00028   0.00001   0.00044   0.00046   2.53897
    R6        2.48856   0.00002   0.00000  -0.00005  -0.00005   2.48851
    R7        2.07045   0.00001   0.00001   0.00001   0.00002   2.07047
    A1        1.94627   0.00018   0.00016   0.00015   0.00031   1.94658
    A2        1.84784   0.00001  -0.00010   0.00022   0.00012   1.84796
    A3        2.10161   0.00003  -0.00004   0.00016   0.00012   2.10173
    A4        1.89928  -0.00008  -0.00002  -0.00029  -0.00031   1.89896
    A5        2.28230   0.00005   0.00006   0.00013   0.00019   2.28249
    A6        1.84622  -0.00015  -0.00024  -0.00012  -0.00036   1.84586
    A7        1.88517   0.00005   0.00020   0.00004   0.00024   1.88541
    A8        2.18320  -0.00001  -0.00013   0.00005  -0.00008   2.18312
    A9        2.21482  -0.00004  -0.00006  -0.00010  -0.00016   2.21466
    D1        0.00000   0.00000   0.00000   0.00000   0.00000   0.00000
    D2        0.00000   0.00000   0.00000   0.00000   0.00000   0.00000
    D3        3.14159   0.00000   0.00000   0.00000   0.00000   3.14159
    D4        0.00000   0.00000   0.00000   0.00000   0.00000   0.00000
    D5        0.00000   0.00000   0.00000   0.00000   0.00000   0.00000
    D6        3.14159   0.00000   0.00000   0.00000   0.00000   3.14159
    D7        3.14159   0.00000   0.00000   0.00000   0.00000   3.14159
    D8        0.00000   0.00000   0.00000   0.00000   0.00000   0.00000
    D9        0.00000   0.00000   0.00000   0.00000   0.00000   0.00000
   D10        3.14159   0.00000   0.00000   0.00000   0.00000   3.14159
         Item               Value     Threshold  Converged?
 Maximum Force            0.000278     0.000450     YES
 RMS     Force            0.000082     0.000300     YES
 Maximum Displacement     0.000372     0.001800     YES
 RMS     Displacement     0.000179     0.001200     YES
 Predicted change in Energy=-1.763079D-07
 Optimization completed.
    -- Stationary point found.
                           ----------------------------
                           !   Optimized Parameters   !
                           ! (Angstroms and Degrees)  !
 --------------------------                            --------------------------
 ! Name  Definition              Value          Derivative Info.                !
 --------------------------------------------------------------------------------
 ! R1    R(1,2)                  1.2917         -DE/DX =   -0.0001              !
 ! R2    R(1,5)                  1.3481         -DE/DX =    0.0                 !
 ! R3    R(2,3)                  1.3385         -DE/DX =   -0.0001              !
 ! R4    R(3,4)                  1.024          -DE/DX =    0.0001              !
 ! R5    R(3,6)                  1.3433         -DE/DX =    0.0003              !
 ! R6    R(5,6)                  1.3169         -DE/DX =    0.0                 !
 ! R7    R(6,7)                  1.0956         -DE/DX =    0.0                 !
 ! A1    A(2,1,5)              111.5133         -DE/DX =    0.0002              !
 ! A2    A(1,2,3)              105.8736         -DE/DX =    0.0                 !
 ! A3    A(2,3,4)              120.4132         -DE/DX =    0.0                 !
 ! A4    A(2,3,6)              108.8205         -DE/DX =   -0.0001              !
 ! A5    A(4,3,6)              130.7663         -DE/DX =    0.0                 !
 ! A6    A(1,5,6)              105.7806         -DE/DX =   -0.0002              !
 ! A7    A(3,6,5)              108.012          -DE/DX =    0.0                 !
 ! A8    A(3,6,7)              125.0881         -DE/DX =    0.0                 !
 ! A9    A(5,6,7)              126.8998         -DE/DX =    0.0                 !
 ! D1    D(5,1,2,3)              0.0            -DE/DX =    0.0                 !
 ! D2    D(2,1,5,6)              0.0            -DE/DX =    0.0                 !
 ! D3    D(1,2,3,4)            180.0            -DE/DX =    0.0                 !
 ! D4    D(1,2,3,6)              0.0            -DE/DX =    0.0                 !
 ! D5    D(2,3,6,5)              0.0            -DE/DX =    0.0                 !
 ! D6    D(2,3,6,7)            180.0            -DE/DX =    0.0                 !
 ! D7    D(4,3,6,5)            180.0            -DE/DX =    0.0                 !
 ! D8    D(4,3,6,7)              0.0            -DE/DX =    0.0                 !
 ! D9    D(1,5,6,3)              0.0            -DE/DX =    0.0                 !
 ! D10   D(1,5,6,7)            180.0            -DE/DX =    0.0                 !
 --------------------------------------------------------------------------------
 GradGradGradGradGradGradGradGradGradGradGradGradGradGradGradGradGradGrad

                          Input orientation:                          
 ---------------------------------------------------------------------
 Center     Atomic     Atomic              Coordinates (Angstroms)
 Number     Number      Type              X           Y           Z
 ---------------------------------------------------------------------
    1          7             0       -0.724229   -0.929631    0.000000
    2          7             0       -1.119298    0.300125    0.000000
    3          7             0       -0.005514    1.042465    0.000000
    4          1             0       -0.063930    2.064777    0.000000
    5          7             0        0.621037   -1.016703    0.000000
    6          6             0        1.060275    0.224776    0.000000
    7          1             0        2.105683    0.552706    0.000000
 ---------------------------------------------------------------------
                    Distance matrix (angstroms):
                    1          2          3          4          5
     1  N    0.000000
     2  N    1.291658   0.000000
     3  N    2.098979   1.338500   0.000000
     4  H    3.066345   2.056160   1.023979   0.000000
     5  N    1.348081   2.182384   2.152380   3.156691   0.000000
     6  C    2.125350   2.180875   1.343325   2.156256   1.316890
     7  H    3.194641   3.234856   2.167260   2.644537   2.160375
                    6          7
     6  C    0.000000
     7  H    1.095635   0.000000
 Stoichiometry    CH2N4
 Framework group  CS[SG(CH2N4)]
 Deg. of freedom    11
 Full point group                 CS      NOp   2
 Largest Abelian subgroup         CS      NOp   2
 Largest concise Abelian subgroup C1      NOp   1
                         Standard orientation:                         
 ---------------------------------------------------------------------
 Center     Atomic     Atomic              Coordinates (Angstroms)
 Number     Number      Type              X           Y           Z
 ---------------------------------------------------------------------
    1          7             0       -0.719022   -0.922295    0.000000
    2          7             0       -1.113899    0.307523    0.000000
    3          7             0        0.000000    1.049689    0.000000
    4          1             0       -0.058257    2.072010    0.000000
    5          7             0        0.626231   -1.009576    0.000000
    6          6             0        1.065662    0.231834    0.000000
    7          1             0        2.111121    0.559602    0.000000
 ---------------------------------------------------------------------
 Rotational constants (GHZ):     10.5857551     10.4084112      5.2481670

 **********************************************************************

            Population analysis using the SCF density.

 **********************************************************************

 Orbital symmetries:
       Occupied  (A') (A') (A') (A') (A') (A') (A') (A') (A') (A')
                 (A') (A") (A') (A') (A") (A") (A') (A')
       Virtual   (A") (A") (A') (A') (A') (A') (A') (A') (A') (A')
                 (A") (A') (A') (A') (A') (A") (A') (A') (A") (A')
                 (A') (A") (A") (A') (A') (A") (A') (A") (A') (A')
                 (A') (A") (A') (A") (A') (A") (A') (A') (A') (A")
                 (A") (A') (A') (A') (A') (A") (A') (A") (A') (A')
                 (A') (A") (A") (A') (A') (A") (A') (A') (A') (A')
                 (A') (A')
 The electronic state is 1-A'.
 Alpha  occ. eigenvalues --  -13.99445 -13.94971 -13.93262 -13.90965  -9.88862
 Alpha  occ. eigenvalues --   -1.07955  -0.88841  -0.83274  -0.63958  -0.62937
 Alpha  occ. eigenvalues --   -0.56177  -0.47658  -0.46909  -0.34675  -0.32354
 Alpha  occ. eigenvalues --   -0.30109  -0.27502  -0.25457
 Alpha virt. eigenvalues --   -0.07720  -0.04355  -0.01055   0.03652   0.11728
 Alpha virt. eigenvalues --    0.13291   0.20220   0.22903   0.31054   0.36510
 Alpha virt. eigenvalues --    0.38708   0.46353   0.48738   0.49997   0.58020
 Alpha virt. eigenvalues --    0.61099   0.62682   0.63551   0.64758   0.68481
 Alpha virt. eigenvalues --    0.72008   0.73400   0.77896   0.80575   0.86565
 Alpha virt. eigenvalues --    0.88425   0.94642   1.03374   1.04365   1.05536
 Alpha virt. eigenvalues --    1.13607   1.17485   1.28941   1.37614   1.38568
 Alpha virt. eigenvalues --    1.40080   1.42999   1.46515   1.55776   1.62062
 Alpha virt. eigenvalues --    1.67114   1.68607   1.76915   1.79953   1.94712
 Alpha virt. eigenvalues --    2.04453   2.05511   2.11135   2.11943   2.19363
 Alpha virt. eigenvalues --    2.32041   2.32998   2.38965   2.40266   2.46278
 Alpha virt. eigenvalues --    2.51202   2.57239   2.60348   2.65493   2.90601
 Alpha virt. eigenvalues --    2.94691   3.18417
          Condensed to atoms (all electrons):
              1          2          3          4          5          6
     1  N    6.502427   0.401306  -0.090762   0.007709   0.396667  -0.127738
     2  N    0.401306   6.593665   0.308916  -0.020019  -0.106462  -0.111024
     3  N   -0.090762   0.308916   6.116242   0.361790  -0.056620   0.421393
     4  H    0.007709  -0.020019   0.361790   0.522314   0.007445  -0.030684
     5  N    0.396667  -0.106462  -0.056620   0.007445   6.390828   0.530277
     6  C   -0.127738  -0.111024   0.421393  -0.030684   0.530277   4.827779
     7  H    0.003439   0.004524  -0.024174  -0.001822  -0.016384   0.386624
              7
     1  N    0.003439
     2  N    0.004524
     3  N   -0.024174
     4  H   -0.001822
     5  N   -0.016384
     6  C    0.386624
     7  H    0.557941
 Mulliken atomic charges:
              1
     1  N   -0.093049
     2  N   -0.070906
     3  N   -0.036785
     4  H    0.153267
     5  N   -0.145752
     6  C    0.103374
     7  H    0.089850
 Sum of Mulliken charges=   0.00000
 Atomic charges with hydrogens summed into heavy atoms:
              1
     1  N   -0.093049
     2  N   -0.070906
     3  N    0.116483
     4  H    0.000000
     5  N   -0.145752
     6  C    0.193224
     7  H    0.000000
 Sum of Mulliken charges=   0.00000
 Electronic spatial extent (au):  <R**2>=   249.5166
 Charge=     0.0000 electrons
 Dipole moment (field-independent basis, Debye):
    X=     2.3701    Y=     4.6541    Z=     0.0000  Tot=     5.2228
 Quadrupole moment (field-independent basis, Debye-Ang):
   XX=   -28.6394   YY=   -25.8225   ZZ=   -27.9387
   XY=     1.6496   XZ=     0.0000   YZ=     0.0000
 Traceless Quadrupole moment (field-independent basis, Debye-Ang):
   XX=    -1.1725   YY=     1.6444   ZZ=    -0.4719
   XY=     1.6496   XZ=     0.0000   YZ=     0.0000
 Octapole moment (field-independent basis, Debye-Ang**2):
  XXX=    10.8617  YYY=    21.5158  ZZZ=     0.0000  XYY=    -0.6553
  XXY=     4.1466  XXZ=     0.0000  XZZ=    -0.9776  YZZ=     0.3766
  YYZ=     0.0000  XYZ=     0.0000
 Hexadecapole moment (field-independent basis, Debye-Ang**3):
 XXXX=  -140.5786 YYYY=  -118.5431 ZZZZ=   -24.1399 XXXY=     6.2763
 XXXZ=     0.0000 YYYX=    -0.8154 YYYZ=     0.0000 ZZZX=     0.0000
 ZZZY=     0.0000 XXYY=   -52.7483 XXZZ=   -29.8617 YYZZ=   -27.9661
 XXYZ=     0.0000 YYXZ=     0.0000 ZZXY=    -0.2646
 N-N= 1.671334060726D+02 E-N=-9.365969616258D+02  KE= 2.563362653520D+02
 Symmetry A'   KE= 2.468191549831D+02
 Symmetry A"   KE= 9.517110368846D+00
 1|1|UNPC-UNK|FOpt|RSVWN|CC-pVDZ|C1H2N4|PCUSER|07-Mar-2008|0||#LSDA/CC-
 PVDZ OPT FREQ||1htz 1H-Tetrazole casno=288948 method=51 basis=5 config
 =1||0,1|N,-0.7188786503,-0.92240707,0.|N,-1.1139469182,0.3073492218,0.
 |N,-0.0001634674,1.0496888959,0.|H,-0.0585793249,2.0720007011,0.|N,0.6
 263878373,-1.0094787227,0.|C,1.0656256905,0.2320004052,0.|H,2.11103357
 33,0.5599305927,0.||Version=x86-Win32-G03RevB.05|State=1-A'|HF=-256.90
 00793|RMSD=3.103e-009|RMSF=1.113e-004|Dipole=0.9321808,1.8312092,0.|PG
 =CS [SG(C1H2N4)]||@


 BETTER TO HUNT IN FIELDS, FOR HEALTH UNBOUGHT
 THAN FEE THE DOCTOR FOR A NAUSEOUS DRAUGHT.
 THE WISE, FOR CURE, ON EXERCISE DEPEND;
 GOD NEVER MADE HIS WORK FOR MAN TO MEND.
     -- JOHN DRYDEN (1631-1700)
 Job cpu time:  0 days  0 hours  2 minutes  9.0 seconds.
 File lengths (MBytes):  RWF=     11 Int=      0 D2E=      0 Chk=      4 Scr=      1
 Normal termination of Gaussian 03 at Fri Mar 07 14:39:50 2008.
 Link1:  Proceeding to internal job step number  2.
 ----------------------------------------------------------------
 #N Geom=AllCheck Guess=Read SCRF=Check GenChk RSVWN/CC-pVDZ Freq
 ----------------------------------------------------------------
 1/10=4,29=7,30=1,38=1,40=1,46=1/1,3;
 2/40=1/2;
 3/5=16,11=2,16=1,25=1,30=1,70=2,71=2,74=205/1,2,3;
 4/5=1,7=1/1;
 5/5=2,38=6/2;
 8/6=4,10=90,11=11/1;
 11/6=1,8=1,9=11,15=111,16=1/1,2,10;
 10/6=1/2;
 6/7=2,8=2,9=2,10=2,18=1,28=1/1;
 7/8=1,10=1,25=1/1,2,3,16;
 1/10=4,30=1,46=1/3;
 99//99;
 ---------------------------------------------------------
 1htz 1H-Tetrazole casno=288948 method=51 basis=5 config=1
 ---------------------------------------------------------
 Redundant internal coordinates taken from checkpoint file:
 gxx.chk
 Charge =  0 Multiplicity = 1
 N,0,-0.7188786503,-0.92240707,0.
 N,0,-1.1139469182,0.3073492218,0.
 N,0,-0.0001634674,1.0496888959,0.
 H,0,-0.0585793249,2.0720007011,0.
 N,0,0.6263878373,-1.0094787227,0.
 C,0,1.0656256905,0.2320004052,0.
 H,0,2.1110335733,0.5599305927,0.
 Recover connectivity data from disk.

 GradGradGradGradGradGradGradGradGradGradGradGradGradGradGradGradGradGrad
 Berny optimization.
 Initialization pass.
                           ----------------------------
                           !    Initial Parameters    !
                           ! (Angstroms and Degrees)  !
 --------------------------                            --------------------------
 ! Name  Definition              Value          Derivative Info.                !
 --------------------------------------------------------------------------------
 ! R1    R(1,2)                  1.2917         calculate D2E/DX2 analytically  !
 ! R2    R(1,5)                  1.3481         calculate D2E/DX2 analytically  !
 ! R3    R(2,3)                  1.3385         calculate D2E/DX2 analytically  !
 ! R4    R(3,4)                  1.024          calculate D2E/DX2 analytically  !
 ! R5    R(3,6)                  1.3433         calculate D2E/DX2 analytically  !
 ! R6    R(5,6)                  1.3169         calculate D2E/DX2 analytically  !
 ! R7    R(6,7)                  1.0956         calculate D2E/DX2 analytically  !
 ! A1    A(2,1,5)              111.5133         calculate D2E/DX2 analytically  !
[...]
 ZZZY=     0.0000 XXYY=   -52.7483 XXZZ=   -29.8617 YYZZ=   -27.9661
 XXYZ=     0.0000 YYXZ=     0.0000 ZZXY=    -0.2646
 N-N= 1.671334060726D+02 E-N=-9.365969620403D+02  KE= 2.563362655437D+02
 Symmetry A'   KE= 2.468191550740D+02
 Symmetry A"   KE= 9.517110469651D+00
  Exact polarizability:  38.594   1.247  37.600   0.000   0.000  16.269
 Approx polarizability:  82.521   0.769  86.520   0.000   0.000  29.097
 Calling FoFCou, ICntrl= 10527 FMM=F ISym2X=1 I1Cent= 0 ISCF1= 0.
 Full mass-weighted force constant matrix:
 Low frequencies ---  -13.0236   -1.9193   -1.2114   -0.0013   -0.0008    0.0006
 Low frequencies ---  609.3234  686.0273  740.0980
 Diagonal vibrational polarizability:
        1.1631161       1.1117400       6.7921154
 Harmonic frequencies (cm**-1), IR intensities (KM/Mole), Raman scattering
 activities (A**4/AMU), depolarization ratios for plane and unpolarized
 incident light, reduced masses (AMU), force constants (mDyne/A),
 and normal coordinates:
                     1                      2                      3
                    A"                     A"                     A"
 Frequencies --   609.3233               686.0273               740.0980
 Red. masses --     1.7316                 1.8890                 8.1935
 Frc consts  --     0.3788                 0.5238                 2.6442
 IR Inten    --    71.7087                 7.4471                 7.2920
 Atom AN      X      Y      Z        X      Y      Z        X      Y      Z
   1   7     0.00   0.00   0.00     0.00   0.00   0.04     0.00   0.00   0.49
   2   7     0.00   0.00  -0.08     0.00   0.00   0.10     0.00   0.00  -0.42
   3   7     0.00   0.00   0.21     0.00   0.00  -0.09     0.00   0.00   0.12
   4   1     0.00   0.00  -0.94     0.00   0.00  -0.78     0.00   0.00   0.66
   5   7     0.00   0.00   0.02     0.00   0.00  -0.16     0.00   0.00  -0.33
   6   6     0.00   0.00  -0.08     0.00   0.00   0.16     0.00   0.00   0.10
   7   1     0.00   0.00  -0.26     0.00   0.00   0.57     0.00   0.00   0.06
                     4                      5                      6
                    A"                     A'                     A'
 Frequencies --   808.8442               952.7017               993.7009
 Red. masses --     1.4355                 2.7656                 4.2294
 Frc consts  --     0.5533                 1.4790                 2.4606
 IR Inten    --    19.7002                 4.6256                 3.4015
 Atom AN      X      Y      Z        X      Y      Z        X      Y      Z
   1   7     0.00   0.00   0.02     0.04   0.12   0.00     0.10  -0.06   0.00
   2   7     0.00   0.00  -0.01    -0.10   0.10   0.00     0.10  -0.09   0.00
   3   7     0.00   0.00   0.04    -0.05  -0.01   0.00     0.02   0.37   0.00
   4   1     0.00   0.00   0.07     0.56   0.02   0.00    -0.02   0.38   0.00
   5   7     0.00   0.00   0.04     0.20  -0.19   0.00     0.01  -0.15   0.00
   6   6     0.00   0.00  -0.19    -0.13  -0.07   0.00    -0.26  -0.05   0.00
   7   1     0.00   0.00   0.98    -0.36   0.64   0.00    -0.05  -0.77   0.00
                     7                      8                      9
                    A'                     A'                     A'
 Frequencies --  1054.5179              1095.0842              1124.3629
 Red. masses --     2.3187                 3.7023                 3.1913
 Frc consts  --     1.5192                 2.6159                 2.3770
 IR Inten    --    39.2924                13.9100                 5.3407
 Atom AN      X      Y      Z        X      Y      Z        X      Y      Z
   1   7    -0.09  -0.01   0.00     0.24  -0.09   0.00     0.27   0.15   0.00
   2   7     0.26   0.09   0.00     0.13   0.05   0.00    -0.05   0.13   0.00
   3   7    -0.10   0.00   0.00     0.03  -0.08   0.00    -0.18  -0.11   0.00
   4   1    -0.82  -0.04   0.00     0.53  -0.07   0.00    -0.48  -0.13   0.00
   5   7     0.02  -0.08   0.00    -0.29   0.02   0.00    -0.04  -0.02   0.00
   6   6    -0.02  -0.03   0.00    -0.15   0.07   0.00     0.02  -0.10   0.00
   7   1    -0.17   0.44   0.00    -0.35   0.62   0.00     0.21  -0.74   0.00
                    10                     11                     12
                    A'                     A'                     A'
 Frequencies --  1230.3328              1290.6881              1433.6398
 Red. masses --     2.7668                11.0975                 3.9327
 Frc consts  --     2.4676                10.8922                 4.7623
 IR Inten    --     4.9469                10.2939                 5.4337
 Atom AN      X      Y      Z        X      Y      Z        X      Y      Z
   1   7    -0.09  -0.11   0.00    -0.06   0.57   0.00     0.00  -0.06   0.00
   2   7     0.14   0.12   0.00     0.24  -0.47   0.00    -0.09   0.13   0.00
   3   7    -0.12  -0.10   0.00     0.11  -0.20   0.00     0.27  -0.15   0.00
   4   1     0.70  -0.07   0.00    -0.03  -0.26   0.00    -0.75  -0.24   0.00
   5   7     0.13   0.16   0.00     0.01   0.19   0.00     0.09  -0.06   0.00
   6   6    -0.14  -0.01   0.00    -0.31  -0.06   0.00    -0.24   0.21   0.00
   7   1     0.03  -0.61   0.00    -0.35  -0.13   0.00    -0.10  -0.36   0.00
                    13                     14                     15
                    A'                     A'                     A'
 Frequencies --  1472.5891              3217.3839              3533.3325
 Red. masses --     5.1151                 1.1022                 1.0847
 Frc consts  --     6.5353                 6.7224                 7.9786
 IR Inten    --    10.8724                 5.0414                90.3943
 Atom AN      X      Y      Z        X      Y      Z        X      Y      Z
   1   7     0.07  -0.10   0.00     0.00   0.00   0.00     0.00   0.00   0.00
   2   7    -0.11   0.06   0.00     0.00   0.00   0.00     0.00   0.00   0.00
   3   7     0.13   0.07   0.00     0.00   0.00   0.00     0.01  -0.08   0.00
   4   1    -0.54   0.04   0.00     0.01   0.03   0.00    -0.06   1.00   0.00
   5   7     0.06   0.31   0.00     0.00   0.00   0.00     0.00   0.00   0.00
   6   6    -0.10  -0.43   0.00     0.09   0.03   0.00    -0.01   0.00   0.00
   7   1    -0.41   0.43   0.00    -0.95  -0.29   0.00     0.02   0.00   0.00

 -------------------
 - Thermochemistry -
 -------------------
 Temperature   298.150 Kelvin.  Pressure   1.00000 Atm.
 Atom  1 has atomic number  7 and mass  14.00307
 Atom  2 has atomic number  7 and mass  14.00307
 Atom  3 has atomic number  7 and mass  14.00307
 Atom  4 has atomic number  1 and mass   1.00783
 Atom  5 has atomic number  7 and mass  14.00307
 Atom  6 has atomic number  6 and mass  12.00000
 Atom  7 has atomic number  1 and mass   1.00783
 Molecular mass:    70.02795 amu.
 Principal axes and moments of inertia in atomic units:
                           1         2         3
     EIGENVALUES --   170.48772 173.39257 343.88029
           X            0.72493   0.68882   0.00000
           Y           -0.68882   0.72493   0.00000
           Z            0.00000   0.00000   1.00000
 This molecule is an asymmetric top.
 Rotational symmetry number  1.
 Rotational temperatures (Kelvin)      0.50804     0.49952     0.25187
 Rotational constants (GHZ):          10.58576    10.40841     5.24817
 Zero-point vibrational energy     121077.8 (Joules/Mol)
                                   28.93829 (Kcal/Mol)
 Warning -- explicit consideration of   1 degrees of freedom as
           vibrations may cause significant error
 Vibrational temperatures:    876.68   987.04  1064.83  1163.75  1370.72
          (Kelvin)           1429.71  1517.21  1575.58  1617.71  1770.17
                             1857.01  2062.69  2118.72  4629.09  5083.67
 
 Zero-point correction=                           0.046116 (Hartree/Particle)
 Thermal correction to Energy=                    0.049594
 Thermal correction to Enthalpy=                  0.050538
 Thermal correction to Gibbs Free Energy=         0.020031
 Sum of electronic and zero-point Energies=           -256.853963
 Sum of electronic and thermal Energies=              -256.850486
 Sum of electronic and thermal Enthalpies=            -256.849541
 Sum of electronic and thermal Free Energies=         -256.880048
 
                     E (Thermal)             CV                S
                      KCal/Mol        Cal/Mol-Kelvin    Cal/Mol-Kelvin
 Total                   31.120             11.417             64.207
 Electronic               0.000              0.000              0.000
 Translational            0.889              2.981             38.656
 Rotational               0.889              2.981             23.834
 Vibrational             29.343              5.456              1.717
 Vibration  1             0.968              1.012              0.434
                       Q            Log10(Q)             Ln(Q)
 Total Bot       0.611582D-09         -9.213545        -21.214972
 Total V=0       0.996190D+12         11.998342         27.627204
 Vib (Bot)       0.735666D-21        -21.133319        -48.661266
 Vib (Bot)  1    0.242706D+00         -0.614920         -1.415906
 Vib (V=0)       0.119831D+01          0.078568          0.180910
 Vib (V=0)  1    0.105579D+01          0.023579          0.054292
 Electronic      0.100000D+01          0.000000          0.000000
 Translational   0.230336D+08          7.362362         16.952466
 Rotational      0.360921D+05          4.557412         10.493829
 ***** Axes restored to original set *****
 -------------------------------------------------------------------
 Center     Atomic                   Forces (Hartrees/Bohr)
 Number     Number              X              Y              Z
 -------------------------------------------------------------------
    1          7           0.000021704    0.000268397    0.000000000
    2          7           0.000062624   -0.000120086    0.000000000
    3          7          -0.000253155    0.000150747    0.000000000
    4          1          -0.000002553    0.000076912    0.000000000
    5          7           0.000076881   -0.000182701    0.000000000
    6          6           0.000075465   -0.000175857    0.000000000
    7          1           0.000019034   -0.000017413    0.000000000
 -------------------------------------------------------------------
 Cartesian Forces:  Max     0.000268397 RMS     0.000111304

 GradGradGradGradGradGradGradGradGradGradGradGradGradGradGradGradGradGrad
 Berny optimization.
 Internal  Forces:  Max     0.000277867 RMS     0.000081604
 Search for a local minimum.
 Step number   1 out of a maximum of   2
 All quantities printed in internal units (Hartrees-Bohrs-Radians)
 Second derivative matrix not updated -- analytic derivatives used.
     Eigenvalues ---    0.00894   0.02336   0.07221   0.07763   0.08939
     Eigenvalues ---    0.09379   0.20265   0.25595   0.35000   0.36147
     Eigenvalues ---    0.42528   0.44256   0.48001   0.57256   0.62631
     Eigenvalues --- 1000.000001000.000001000.000001000.000001000.00000
     Eigenvalues --- 1000.000001000.000001000.000001000.000001000.00000
     Eigenvalues --- 1000.00000
 Angle between quadratic step and forces=  21.68 degrees.
 Linear search not attempted -- first point.
 Iteration  1 RMS(Cart)=  0.00020000 RMS(Int)=  0.00000002
 Iteration  2 RMS(Cart)=  0.00000002 RMS(Int)=  0.00000000
 Variable       Old X    -DE/DX   Delta X   Delta X   Delta X     New X
                                 (Linear)    (Quad)   (Total)
    R1        2.44088  -0.00012   0.00000  -0.00043  -0.00043   2.44045
    R2        2.54750   0.00001   0.00000   0.00021   0.00021   2.54771
    R3        2.52940  -0.00008   0.00000  -0.00008  -0.00008   2.52932
    R4        1.93504   0.00008   0.00000   0.00016   0.00016   1.93520
    R5        2.53852   0.00028   0.00000   0.00061   0.00061   2.53912
    R6        2.48856   0.00002   0.00000  -0.00003  -0.00003   2.48853
    R7        2.07045   0.00001   0.00000   0.00005   0.00005   2.07050
    A1        1.94627   0.00018   0.00000   0.00032   0.00032   1.94659
    A2        1.84784   0.00001   0.00000   0.00016   0.00016   1.84800
    A3        2.10161   0.00003   0.00000   0.00017   0.00017   2.10177
    A4        1.89928  -0.00008   0.00000  -0.00033  -0.00033   1.89895
    A5        2.28230   0.00005   0.00000   0.00016   0.00016   2.28246
    A6        1.84622  -0.00015   0.00000  -0.00035  -0.00035   1.84587
    A7        1.88517   0.00005   0.00000   0.00020   0.00020   1.88536
    A8        2.18320  -0.00001   0.00000  -0.00008  -0.00008   2.18312
    A9        2.21482  -0.00004   0.00000  -0.00012  -0.00012   2.21470
    D1        0.00000   0.00000   0.00000   0.00000   0.00000   0.00000
    D2        0.00000   0.00000   0.00000   0.00000   0.00000   0.00000
    D3        3.14159   0.00000   0.00000   0.00000   0.00000   3.14159
    D4        0.00000   0.00000   0.00000   0.00000   0.00000   0.00000
    D5        0.00000   0.00000   0.00000   0.00000   0.00000   0.00000
    D6        3.14159   0.00000   0.00000   0.00000   0.00000   3.14159
    D7        3.14159   0.00000   0.00000   0.00000   0.00000   3.14159
    D8        0.00000   0.00000   0.00000   0.00000   0.00000   0.00000
    D9        0.00000   0.00000   0.00000   0.00000   0.00000   0.00000
   D10        3.14159   0.00000   0.00000   0.00000   0.00000   3.14159
         Item               Value     Threshold  Converged?
 Maximum Force            0.000278     0.000450     YES
 RMS     Force            0.000082     0.000300     YES
 Maximum Displacement     0.000451     0.001800     YES
 RMS     Displacement     0.000200     0.001200     YES
 Predicted change in Energy=-2.021208D-07
 Optimization completed.
    -- Stationary point found.
                           ----------------------------
                           !   Optimized Parameters   !
                           ! (Angstroms and Degrees)  !
 --------------------------                            --------------------------
 ! Name  Definition              Value          Derivative Info.                !
 --------------------------------------------------------------------------------
 ! R1    R(1,2)                  1.2917         -DE/DX =   -0.0001              !
 ! R2    R(1,5)                  1.3481         -DE/DX =    0.0                 !
 ! R3    R(2,3)                  1.3385         -DE/DX =   -0.0001              !
 ! R4    R(3,4)                  1.024          -DE/DX =    0.0001              !
 ! R5    R(3,6)                  1.3433         -DE/DX =    0.0003              !
 ! R6    R(5,6)                  1.3169         -DE/DX =    0.0                 !
 ! R7    R(6,7)                  1.0956         -DE/DX =    0.0                 !
 ! A1    A(2,1,5)              111.5133         -DE/DX =    0.0002              !
 ! A2    A(1,2,3)              105.8736         -DE/DX =    0.0                 !
 ! A3    A(2,3,4)              120.4132         -DE/DX =    0.0                 !
 ! A4    A(2,3,6)              108.8205         -DE/DX =   -0.0001              !
 ! A5    A(4,3,6)              130.7663         -DE/DX =    0.0                 !
 ! A6    A(1,5,6)              105.7806         -DE/DX =   -0.0002              !
 ! A7    A(3,6,5)              108.012          -DE/DX =    0.0                 !
 ! A8    A(3,6,7)              125.0881         -DE/DX =    0.0                 !
 ! A9    A(5,6,7)              126.8998         -DE/DX =    0.0                 !
 ! D1    D(5,1,2,3)              0.0            -DE/DX =    0.0                 !
 ! D2    D(2,1,5,6)              0.0            -DE/DX =    0.0                 !
 ! D3    D(1,2,3,4)            180.0            -DE/DX =    0.0                 !
 ! D4    D(1,2,3,6)              0.0            -DE/DX =    0.0                 !
 ! D5    D(2,3,6,5)              0.0            -DE/DX =    0.0                 !
 ! D6    D(2,3,6,7)            180.0            -DE/DX =    0.0                 !
 ! D7    D(4,3,6,5)            180.0            -DE/DX =    0.0                 !
 ! D8    D(4,3,6,7)              0.0            -DE/DX =    0.0                 !
 ! D9    D(1,5,6,3)              0.0            -DE/DX =    0.0                 !
 ! D10   D(1,5,6,7)            180.0            -DE/DX =    0.0                 !
 --------------------------------------------------------------------------------
 GradGradGradGradGradGradGradGradGradGradGradGradGradGradGradGradGradGrad

 1|1|UNPC-UNK|Freq|RSVWN|CC-pVDZ|C1H2N4|PCUSER|07-Mar-2008|0||#N GEOM=A
 LLCHECK GUESS=READ SCRF=CHECK GENCHK RSVWN/CC-PVDZ FREQ||1htz 1H-Tetra
 zole casno=288948 method=51 basis=5 config=1||0,1|N,-0.7188786503,-0.9
 2240707,0.|N,-1.1139469182,0.3073492218,0.|N,-0.0001634674,1.049688895
 9,0.|H,-0.0585793249,2.0720007011,0.|N,0.6263878373,-1.0094787227,0.|C
 ,1.0656256905,0.2320004052,0.|H,2.1110335733,0.5599305927,0.||Version=
 x86-Win32-G03RevB.05|State=1-A'|HF=-256.9000793|RMSD=1.685e-009|RMSF=1
 .113e-004|Dipole=0.9321812,1.8312096,0.|DipoleDeriv=0.1267627,-0.09399
 71,0.,-0.1360822,-0.1479016,0.,0.,0.,-0.1506573,-0.2281684,0.3659629,0
 .,0.2877932,0.1266081,0.,0.,0.,-0.1054155,0.0030818,-0.1528849,0.,-0.0
 830731,-0.4618142,0.,0.,0.,-0.0836,0.1937568,-0.0048371,0.,-0.0292037,
 0.2810075,0.,0.,0.,0.3160899,-0.3569263,0.0779758,0.,0.0203136,-0.2536
 444,0.,0.,0.,-0.1887609,0.1602318,-0.1618228,0.,-0.0357217,0.3474212,0
 .,0.,0.,0.0416676,0.1012616,-0.0303968,0.,-0.0240261,0.1083234,0.,0.,0
 .,0.1706763|Polar=38.5932654,1.2474377,37.5999134,0.,0.,16.2693399|PG=
 CS [SG(C1H2N4)]|NImag=0||0.45409621,0.04710084,0.58560240,0.,0.,0.1248
 4365,-0.12081341,0.04237904,0.,0.53308481,0.10376924,-0.31939243,0.,-0
 .08135064,0.50151363,0.,0.,-0.09702723,0.,0.,0.11555606,-0.02534515,-0
 .08130114,0.,-0.22339739,-0.06455860,0.,0.56320565,-0.00353192,-0.1495
 1001,0.,-0.03363493,-0.11911627,0.,-0.08489926,0.97643768,0.,0.,0.0265
 6194,0.,0.,-0.07079257,0.,0.,0.09789539,-0.00879171,-0.00978620,0.,0.0
 1289808,-0.02683442,0.,-0.06171311,0.03225215,0.,0.05123668,0.00019829
 ,-0.00085169,0.,0.00516849,-0.00983246,0.,0.02678045,-0.42908453,0.,-0
 .02268769,0.44161357,0.,0.,0.00792384,0.,0.,-0.01127738,0.,0.,-0.00898
 797,0.,0.,0.01427196,-0.21827673,0.01526279,0.,-0.08859606,0.11521889,
 0.,0.01738034,-0.02885100,0.,-0.00658566,-0.00273833,0.,0.42061602,-0.
 02793609,-0.09029205,0.,0.01278765,-0.04627711,0.,0.08110200,-0.100185
 97,0.,0.00831228,-0.00012209,0.,0.00741471,0.59958509,0.,0.,-0.0904447
 0,0.,0.,0.03540983,0.,0.,0.02151590,0.,0.,0.00692952,0.,0.,0.10918827,
 -0.08163255,-0.01566902,0.,-0.11291662,-0.04663448,0.,-0.25931023,0.12
 848871,0.,0.01331782,-0.00691963,0.,-0.12388343,-0.08077743,0.,0.88767
 667,-0.11496535,-0.02075031,0.,0.05039626,-0.00100619,0.,0.10009012,-0
 .18973243,0.,0.01913751,-0.00164082,0.,-0.08065973,-0.36270623,0.,0.10
 778207,0.64825477,0.,0.,0.01969526,0.,0.,0.02228141,0.,0.,-0.06326269,
 0.,0.,-0.00796986,0.,0.,-0.07723688,0.,0.,0.13199085,0.00076334,0.0020
 1370,0.,-0.00025941,0.00039002,0.,-0.01082010,-0.00982374,0.,-0.000362
 11,0.00019841,0.,-0.00065448,-0.00090312,0.,-0.32325167,-0.08178087,0.
 ,0.33458444,-0.00463500,-0.00480592,0.,0.00425414,-0.00588916,0.,0.022
 78644,0.01119153,0.,-0.00039362,-0.00008199,0.,-0.02564734,-0.00000164
 ,0.,-0.08627023,-0.07241880,0.,0.08990560,0.07200597,0.,0.,0.00844724,
 0.,0.,0.00584989,0.,0.,-0.00293000,0.,0.,-0.00089012,0.,0.,-0.00536193
 ,0.,0.,-0.02549809,0.,0.,0.02038301||-0.00002170,-0.00026840,0.,-0.000
 06262,0.00012009,0.,0.00025316,-0.00015075,0.,0.00000255,-0.00007691,0
 .,-0.00007688,0.00018270,0.,-0.00007547,0.00017586,0.,-0.00001903,0.00
 001741,0.|||@


 THERE ARE TWO THINGS THAT EVERYBODY THINKS THEY CAN DO BETTER THAN
 ANYONE ELSE - PUNCH THE FIRE, AND EDIT A DAILY PAPER.
 -- UNCLE ESEK, "CENTURY MAGAZINE", 1885
 Job cpu time:  0 days  0 hours  1 minutes 13.0 seconds.
 File lengths (MBytes):  RWF=     13 Int=      0 D2E=      0 Chk=      4 Scr=      1
 Normal termination of Gaussian 03 at Fri Mar 07 14:41:03 2008.
