 Entering Link 1 = C:\G03W\l1.exe PID=      1060.
  
 Copyright (c) 1988,1990,1992,1993,1995,1998,2003, Gaussian, Inc.
                  All Rights Reserved.
  
 This is the Gaussian(R) 03 program.  It is based on the
 the Gaussian(R) 98 system (copyright 1998, Gaussian, Inc.),
 the Gaussian(R) 94 system (copyright 1995, Gaussian, Inc.),
 the Gaussian 92(TM) system (copyright 1992, Gaussian, Inc.),
 the Gaussian 90(TM) system (copyright 1990, Gaussian, Inc.),
 the Gaussian 88(TM) system (copyright 1988, Gaussian, Inc.),
 the Gaussian 86(TM) system (copyright 1986, Carnegie Mellon
 University), and the Gaussian 82(TM) system (copyright 1983,
 Carnegie Mellon University). Gaussian is a federally registered
 trademark of Gaussian, Inc.
  
 This software contains proprietary and confidential information,
 including trade secrets, belonging to Gaussian, Inc.
  
 This software is provided under written license and may be
 used, copied, transmitted, or stored only in accord with that
 written license.
  
 The following legend is applicable only to US Government
 contracts under DFARS:
  
                    RESTRICTED RIGHTS LEGEND
  
 Use, duplication or disclosure by the US Government is subject
 to restrictions as set forth in subparagraph (c)(1)(ii) of the
 Rights in Technical Data and Computer Software clause at DFARS
 252.227-7013.
  
 Gaussian, Inc.
 Carnegie Office Park, Building 6, Pittsburgh, PA 15106 USA
  
 The following legend is applicable only to US Government
 contracts under FAR:
  
                    RESTRICTED RIGHTS LEGEND
  
 Use, reproduction and disclosure by the US Government is subject
 to restrictions as set forth in subparagraph (c) of the
 Commercial Computer Software - Restricted Rights clause at FAR
 52.227-19.
  
 Gaussian, Inc.
 Carnegie Office Park, Building 6, Pittsburgh, PA 15106 USA
  
  
 ---------------------------------------------------------------
 Warning -- This program may not be used in any manner that
 competes with the business of Gaussian, Inc. or will provide
 assistance to any competitor of Gaussian, Inc.  The licensee
 of this program is prohibited from giving any competitor of
 Gaussian, Inc. access to this program.  By using this program,
 the user acknowledges that Gaussian, Inc. is engaged in the
 business of creating and licensing software in the field of
 computational chemistry and represents and warrants to the
 licensee that it is not a competitor of Gaussian, Inc. and that
 it will not use this program in any manner prohibited above.
 ---------------------------------------------------------------
  

 Cite this work as:
 Gaussian 03, Revision B.05,
 M. J. Frisch, G. W. Trucks, H. B. Schlegel, G. E. Scuseria, 
 M. A. Robb, J. R. Cheeseman, J. A. Montgomery, Jr., T. Vreven, 
 K. N. Kudin, J. C. Burant, J. M. Millam, S. S. Iyengar, J. Tomasi, 
 V. Barone, B. Mennucci, M. Cossi, G. Scalmani, N. Rega, 
 G. A. Petersson, H. Nakatsuji, M. Hada, M. Ehara, K. Toyota, 
 R. Fukuda, J. Hasegawa, M. Ishida, T. Nakajima, Y. Honda, O. Kitao, 
 H. Nakai, M. Klene, X. Li, J. E. Knox, H. P. Hratchian, J. B. Cross, 
 C. Adamo, J. Jaramillo, R. Gomperts, R. E. Stratmann, O. Yazyev, 
 A. J. Austin, R. Cammi, C. Pomelli, J. W. Ochterski, P. Y. Ayala, 
 K. Morokuma, G. A. Voth, P. Salvador, J. J. Dannenberg, 
 V. G. Zakrzewski, S. Dapprich, A. D. Daniels, M. C. Strain, 
 O. Farkas, D. K. Malick, A. D. Rabuck, K. Raghavachari, 
 J. B. Foresman, J. V. Ortiz, Q. Cui, A. G. Baboul, S. Clifford, 
 J. Cioslowski, B. B. Stefanov, G. Liu, A. Liashenko, P. Piskorz, 
 I. Komaromi, R. L. Martin, D. J. Fox, T. Keith, M. A. Al-Laham, 
 C. Y. Peng, A. Nanayakkara, M. Challacombe, P. M. W. Gill, 
 B. Johnson, W. Chen, M. W. Wong, C. Gonzalez, and J. A. Pople, 
 Gaussian, Inc., Pittsburgh PA, 2003.
 
 **********************************************
 Gaussian 03:  x86-Win32-G03RevB.05  8-Nov-2003
                  10-Sep-2006 
 **********************************************
 %mem=56000000
 ------------------------
 #B1B95/6-31+G** opt freq
 ------------------------
 1/14=-1,18=20,26=3,38=1/1,3;
 2/9=110,17=6,18=5,40=1/2;
 3/5=1,6=6,7=111,11=2,16=1,25=1,30=1,74=-17/1,2,3;
 4//1;
 5/5=2,38=5/2;
 6/7=2,8=2,9=2,10=2,28=1/1;
 7//1,2,3,16;
 1/14=-1,18=20/3(1);
 99//99;
 2/9=110/2;
 3/5=1,6=6,7=111,11=2,16=1,25=1,30=1,74=-17/1,2,3;
 4/5=5,16=3/1;
 5/5=2,38=5/2;
 7//1,2,3,16;
 1/14=-1,18=20/3(-5);
 2/9=110/2;
 6/7=2,8=2,9=2,10=2,19=2,28=1/1;
 99/9=1/99;
 ------------------------------------------------
 1htz 1H-Tetrazole casno=288948 method=55 basis=4
 ------------------------------------------------
 Symbolic Z-matrix:
 Charge =  0 Multiplicity = 1
 N                    -0.7241   -0.92729   0. 
 N                    -1.12343   0.30119   0. 
 N                     0.        1.0562    0. 
 H                    -0.06352   2.06502   0. 
 N                     0.6406   -1.00774   0. 
 C                     1.06909   0.23573   0. 
 H                     2.09752   0.56408   0. 
 

 GradGradGradGradGradGradGradGradGradGradGradGradGradGradGradGradGradGrad
 Berny optimization.
 Initialization pass.
                           ----------------------------
                           !    Initial Parameters    !
                           ! (Angstroms and Degrees)  !
 --------------------------                            --------------------------
 ! Name  Definition              Value          Derivative Info.                !
 --------------------------------------------------------------------------------
 ! R1    R(1,2)                  1.2918         estimate D2E/DX2                !
 ! R2    R(1,5)                  1.3671         estimate D2E/DX2                !
 ! R3    R(2,3)                  1.3536         estimate D2E/DX2                !
 ! R4    R(3,4)                  1.0108         estimate D2E/DX2                !
 ! R5    R(3,6)                  1.3476         estimate D2E/DX2                !
 ! R6    R(5,6)                  1.3152         estimate D2E/DX2                !
 ! R7    R(6,7)                  1.0796         estimate D2E/DX2                !
 ! A1    A(2,1,5)              111.3805         estimate D2E/DX2                !
 ! A2    A(1,2,3)              105.8964         estimate D2E/DX2                !
 ! A3    A(2,3,4)              120.3006         estimate D2E/DX2                !
 ! A4    A(2,3,6)              108.5924         estimate D2E/DX2                !
 ! A5    A(4,3,6)              131.107          estimate D2E/DX2                !
 ! A6    A(1,5,6)              105.6397         estimate D2E/DX2                !
 ! A7    A(3,6,5)              108.4909         estimate D2E/DX2                !
 ! A8    A(3,6,7)              124.7892         estimate D2E/DX2                !
 ! A9    A(5,6,7)              126.7198         estimate D2E/DX2                !
 ! D1    D(5,1,2,3)              0.0            estimate D2E/DX2                !
 ! D2    D(2,1,5,6)              0.0            estimate D2E/DX2                !
 ! D3    D(1,2,3,4)            180.0            estimate D2E/DX2                !
 ! D4    D(1,2,3,6)              0.0            estimate D2E/DX2                !
 ! D5    D(2,3,6,5)              0.0            estimate D2E/DX2                !
 ! D6    D(2,3,6,7)            180.0            estimate D2E/DX2                !
 ! D7    D(4,3,6,5)            180.0            estimate D2E/DX2                !
 ! D8    D(4,3,6,7)              0.0            estimate D2E/DX2                !
 ! D9    D(1,5,6,3)              0.0            estimate D2E/DX2                !
 ! D10   D(1,5,6,7)            180.0            estimate D2E/DX2                !
 --------------------------------------------------------------------------------
 Trust Radius=3.00D-01 FncErr=1.00D-07 GrdErr=1.00D-06
 Number of steps in this run=  36 maximum allowed number of steps= 100.
 GradGradGradGradGradGradGradGradGradGradGradGradGradGradGradGradGradGrad

                          Input orientation:                          
 ---------------------------------------------------------------------
 Center     Atomic     Atomic              Coordinates (Angstroms)
 Number     Number      Type              X           Y           Z
 ---------------------------------------------------------------------
    1          7             0       -0.724102   -0.927294    0.000000
    2          7             0       -1.123426    0.301193    0.000000
    3          7             0        0.000000    1.056198    0.000000
    4          1             0       -0.063518    2.065021    0.000000
    5          7             0        0.640599   -1.007741    0.000000
    6          6             0        1.069085    0.235734    0.000000
    7          1             0        2.097519    0.564078    0.000000
 ---------------------------------------------------------------------
                    Distance matrix (angstroms):
                    1          2          3          4          5
     1  N    0.000000
     2  N    1.291758   0.000000
     3  N    2.111531   1.353558   0.000000
     4  H    3.064363   2.057789   1.010821   0.000000
     5  N    1.367070   2.196609   2.161067   3.152403   0.000000
     6  C    2.137324   2.193488   1.347629   2.151530   1.315230
     7  H    3.191510   3.231655   2.154476   2.631142   2.143182
                    6          7
     6  C    0.000000
     7  H    1.079577   0.000000
 Stoichiometry    CH2N4
 Framework group  CS[SG(CH2N4)]
 Deg. of freedom    11
 Full point group                 CS      NOp   2
 Largest Abelian subgroup         CS      NOp   2
 Largest concise Abelian subgroup C1      NOp   1
                         Standard orientation:                         
 ---------------------------------------------------------------------
 Center     Atomic     Atomic              Coordinates (Angstroms)
 Number     Number      Type              X           Y           Z
 ---------------------------------------------------------------------
    1          7             0       -0.724102   -0.927294    0.000000
    2          7             0       -1.123426    0.301193    0.000000
    3          7             0        0.000000    1.056198    0.000000
    4          1             0       -0.063518    2.065021    0.000000
    5          7             0        0.640599   -1.007741    0.000000
    6          6             0        1.069085    0.235734    0.000000
    7          1             0        2.097519    0.564078    0.000000
 ---------------------------------------------------------------------
 Rotational constants (GHZ):     10.4957623     10.3039991      5.1994984
 Standard basis: 6-31+G(d,p) (6D, 7F)
 There are    78 symmetry adapted basis functions of A'  symmetry.
 There are    27 symmetry adapted basis functions of A"  symmetry.
 Integral buffers will be    262144 words long.
 Raffenetti 2 integral format.
 Two-electron integral symmetry is turned on.
   105 basis functions,   174 primitive gaussians,   105 cartesian basis functions
    18 alpha electrons       18 beta electrons
       nuclear repulsion energy       166.4231943147 Hartrees.
 NAtoms=    7 NActive=    7 NUniq=    7 SFac= 1.00D+00 NAtFMM=   60 Big=F
 One-electron integrals computed using PRISM.
 NBasis=   105 RedAO= T  NBF=    78    27
 NBsUse=   105 1.00D-06 NBFU=    78    27
 Harris functional with IExCor=  411 diagonalized for initial guess.
 ExpMin= 4.38D-02 ExpMax= 4.17D+03 ExpMxC= 6.27D+02 IAcc=2 IRadAn=         4 AccDes= 0.00D+00
 HarFok:  IExCor= 411 AccDes= 0.00D+00 IRadAn=         4 IDoV=1
 ScaDFX=  1.000000  1.000000  1.000000  1.000000
 Initial guess orbital symmetries:
       Occupied  (A') (A') (A') (A') (A') (A') (A') (A') (A') (A')
                 (A') (A') (A") (A') (A") (A') (A') (A")
       Virtual   (A") (A") (A') (A') (A') (A') (A") (A') (A') (A')
                 (A') (A") (A") (A') (A') (A') (A') (A") (A") (A')
                 (A') (A') (A') (A') (A') (A') (A') (A') (A') (A")
                 (A') (A') (A') (A') (A') (A") (A') (A") (A') (A")
                 (A") (A') (A') (A') (A') (A') (A") (A') (A') (A")
                 (A") (A') (A') (A") (A") (A') (A') (A') (A') (A')
                 (A') (A") (A') (A") (A") (A') (A') (A") (A') (A")
                 (A') (A") (A') (A') (A") (A') (A') (A') (A') (A')
                 (A') (A') (A') (A') (A') (A') (A')
 The electronic state of the initial guess is 1-A'.
 Requested convergence on RMS density matrix=1.00D-08 within 128 cycles.
 Requested convergence on MAX density matrix=1.00D-06.
 Requested convergence on             energy=1.00D-06.
 No special actions if energy rises.
 Keep R1 integrals in memory in canonical form, NReq=    16619983.
 SCF Done:  E(RB+HF-B95) =  -258.183245178     A.U. after   12 cycles
             Convg  =    0.8854D-08             -V/T =  2.0085
             S**2   =   0.0000

 **********************************************************************

            Population analysis using the SCF density.

 **********************************************************************

 Orbital symmetries:
       Occupied  (A') (A') (A') (A') (A') (A') (A') (A') (A') (A')
                 (A') (A") (A') (A') (A") (A") (A') (A')
       Virtual   (A") (A') (A") (A') (A') (A") (A') (A') (A') (A")
                 (A") (A') (A') (A') (A') (A') (A") (A') (A') (A")
                 (A') (A') (A') (A') (A') (A') (A') (A') (A') (A")
                 (A') (A') (A') (A') (A') (A") (A") (A') (A") (A')
                 (A') (A") (A') (A') (A') (A') (A') (A") (A') (A')
                 (A") (A") (A') (A") (A") (A') (A') (A') (A') (A')
                 (A') (A") (A') (A") (A") (A') (A') (A") (A') (A")
                 (A') (A") (A') (A') (A") (A') (A') (A') (A') (A')
                 (A') (A') (A') (A') (A') (A') (A')
 The electronic state is 1-A'.
 Alpha  occ. eigenvalues --  -14.53273 -14.50000 -14.48210 -14.45285 -10.34774
 Alpha  occ. eigenvalues --   -1.16880  -0.97026  -0.91837  -0.69970  -0.68532
 Alpha  occ. eigenvalues --   -0.61530  -0.51725  -0.51515  -0.39989  -0.34981
 Alpha  occ. eigenvalues --   -0.32868  -0.32415  -0.31163
 Alpha virt. eigenvalues --   -0.02696  -0.00135   0.00770   0.03400   0.05540
 Alpha virt. eigenvalues --    0.06531   0.08649   0.10148   0.12265   0.14268
 Alpha virt. eigenvalues --    0.15721   0.16022   0.18067   0.19048   0.19112
 Alpha virt. eigenvalues --    0.21523   0.22056   0.23063   0.23422   0.23541
 Alpha virt. eigenvalues --    0.25316   0.26221   0.27893   0.31440   0.33090
 Alpha virt. eigenvalues --    0.33229   0.38128   0.44042   0.46354   0.65066
 Alpha virt. eigenvalues --    0.76058   0.77528   0.81642   0.84674   0.85276
 Alpha virt. eigenvalues --    0.86837   0.89424   0.90514   0.94760   0.94772
 Alpha virt. eigenvalues --    0.96326   0.97897   0.99233   1.05745   1.06980
 Alpha virt. eigenvalues --    1.10350   1.22426   1.23590   1.26904   1.32318
 Alpha virt. eigenvalues --    1.32365   1.33731   1.45565   1.50354   1.52088
 Alpha virt. eigenvalues --    1.57234   1.66369   1.84984   1.87006   1.93659
 Alpha virt. eigenvalues --    2.03505   2.04593   2.14679   2.19071   2.24204
 Alpha virt. eigenvalues --    2.26110   2.33456   2.33884   2.44007   2.47865
 Alpha virt. eigenvalues --    2.54997   2.59099   2.60916   2.65786   2.68941
 Alpha virt. eigenvalues --    2.75704   2.80663   2.90408   3.02217   3.09775
 Alpha virt. eigenvalues --    3.28298   3.64086   3.90801   3.98022   4.19889
 Alpha virt. eigenvalues --    4.26544   4.48437
          Condensed to atoms (all electrons):
              1          2          3          4          5          6
     1  N    6.571122   0.226829   0.043995  -0.002104   0.089013   0.081136
     2  N    0.226829   6.712284   0.040543   0.003579   0.138652  -0.120624
     3  N    0.043995   0.040543   6.901820   0.287392  -0.132797   0.222309
     4  H   -0.002104   0.003579   0.287392   0.362568   0.004730  -0.003982
     5  N    0.089013   0.138652  -0.132797   0.004730   6.914477   0.272630
     6  C    0.081136  -0.120624   0.222309  -0.003982   0.272630   5.101690
     7  H    0.002138   0.006350  -0.064960   0.002204  -0.034666   0.416285
              7
     1  N    0.002138
     2  N    0.006350
     3  N   -0.064960
     4  H    0.002204
     5  N   -0.034666
     6  C    0.416285
     7  H    0.478740
 Mulliken atomic charges:
              1
     1  N   -0.012129
     2  N   -0.007612
     3  N   -0.298300
     4  H    0.345614
     5  N   -0.252038
     6  C    0.030557
     7  H    0.193909
 Sum of Mulliken charges=   0.00000
 Atomic charges with hydrogens summed into heavy atoms:
              1
     1  N   -0.012129
     2  N   -0.007612
     3  N    0.047314
     4  H    0.000000
     5  N   -0.252038
     6  C    0.224465
     7  H    0.000000
 Sum of Mulliken charges=   0.00000
 Electronic spatial extent (au):  <R**2>=   252.7052
 Charge=     0.0000 electrons
 Dipole moment (field-independent basis, Debye):
    X=     2.5970    Y=     4.8863    Z=     0.0000  Tot=     5.5335
 Quadrupole moment (field-independent basis, Debye-Ang):
   XX=   -29.2395   YY=   -26.6716   ZZ=   -28.8088
   XY=     1.9259   XZ=     0.0000   YZ=     0.0000
 Traceless Quadrupole moment (field-independent basis, Debye-Ang):
   XX=    -0.9995   YY=     1.5683   ZZ=    -0.5688
   XY=     1.9259   XZ=     0.0000   YZ=     0.0000
 Octapole moment (field-independent basis, Debye-Ang**2):
  XXX=    12.8382  YYY=    23.7220  ZZZ=     0.0000  XYY=    -0.5012
  XXY=     5.0160  XXZ=     0.0000  XZZ=    -0.4932  YZZ=     0.7313
  YYZ=     0.0000  XYZ=     0.0000
 Hexadecapole moment (field-independent basis, Debye-Ang**3):
 XXXX=  -148.0556 YYYY=  -125.0094 ZZZZ=   -27.6614 XXXY=     7.6426
 XXXZ=     0.0000 YYYX=    -0.0838 YYYZ=     0.0000 ZZZX=     0.0000
 ZZZY=     0.0000 XXYY=   -56.0699 XXZZ=   -32.0890 YYZZ=   -30.4210
 XXYZ=     0.0000 YYXZ=     0.0000 ZZXY=     0.0618
 N-N= 1.664231943147D+02 E-N=-9.344364665160D+02  KE= 2.559964837795D+02
 Symmetry A'   KE= 2.466006010772D+02
 Symmetry A"   KE= 9.395882702319D+00
 ***** Axes restored to original set *****
 -------------------------------------------------------------------
 Center     Atomic                   Forces (Hartrees/Bohr)
 Number     Number              X              Y              Z
 -------------------------------------------------------------------
    1          7           0.007742095    0.009133267    0.000000000
    2          7           0.012111406   -0.004381515    0.000000000
    3          7          -0.003384399   -0.007806416    0.000000000
    4          1           0.000354537   -0.002424119    0.000000000
    5          7          -0.009156182    0.006676529    0.000000000
    6          6          -0.006517856   -0.000616862    0.000000000
    7          1          -0.001149602   -0.000580883    0.000000000
 -------------------------------------------------------------------
 Cartesian Forces:  Max     0.012111406 RMS     0.005166607

 GradGradGradGradGradGradGradGradGradGradGradGradGradGradGradGradGradGrad
 Berny optimization.
 Internal  Forces:  Max     0.010945832 RMS     0.004109914
 Search for a local minimum.
 Step number   1 out of a maximum of  36
 All quantities printed in internal units (Hartrees-Bohrs-Radians)
 Second derivative matrix not updated -- first step.
     Eigenvalues ---    0.02190   0.02293   0.02379   0.02549   0.16000
     Eigenvalues ---    0.16000   0.22593   0.24684   0.36045   0.45835
     Eigenvalues ---    0.46934   0.51924   0.53461   0.60244   0.67216
     Eigenvalues --- 1000.000001000.000001000.000001000.000001000.00000
     Eigenvalues --- 1000.000001000.000001000.000001000.000001000.00000
     Eigenvalues --- 1000.00000
 RFO step:  Lambda=-7.72390836D-04.
 Linear search not attempted -- first point.
 Iteration  1 RMS(Cart)=  0.00723968 RMS(Int)=  0.00000486
 Iteration  2 RMS(Cart)=  0.00000304 RMS(Int)=  0.00000329
 Iteration  3 RMS(Cart)=  0.00000000 RMS(Int)=  0.00000329
 Variable       Old X    -DE/DX   Delta X   Delta X   Delta X     New X
                                 (Linear)    (Quad)   (Total)
    R1        2.44107  -0.01001   0.00000  -0.01484  -0.01484   2.42623
    R2        2.58339  -0.01095   0.00000  -0.02147  -0.02147   2.56192
    R3        2.55785  -0.01023   0.00000  -0.01895  -0.01895   2.53890
    R4        1.91017  -0.00244   0.00000  -0.00531  -0.00531   1.90486
    R5        2.54665  -0.00778   0.00000  -0.01350  -0.01350   2.53315
    R6        2.48542  -0.00657   0.00000  -0.01001  -0.01001   2.47541
    R7        2.04010  -0.00128   0.00000  -0.00353  -0.00353   2.03657
    A1        1.94396   0.00062   0.00000   0.00048   0.00049   1.94445
    A2        1.84824   0.00094   0.00000   0.00199   0.00200   1.85024
    A3        2.09964   0.00044   0.00000   0.00179   0.00179   2.10143
    A4        1.89530  -0.00044   0.00000  -0.00090  -0.00091   1.89439
    A5        2.28825   0.00001   0.00000  -0.00089  -0.00089   2.28736
    A6        1.84376  -0.00018   0.00000   0.00027   0.00027   1.84403
    A7        1.89352  -0.00093   0.00000  -0.00184  -0.00185   1.89168
    A8        2.17798   0.00070   0.00000   0.00237   0.00237   2.18036
    A9        2.21168   0.00023   0.00000  -0.00053  -0.00053   2.21115
    D1        0.00000   0.00000   0.00000   0.00000   0.00000   0.00000
    D2        0.00000   0.00000   0.00000   0.00000   0.00000   0.00000
    D3        3.14159   0.00000   0.00000   0.00000   0.00000   3.14159
    D4        0.00000   0.00000   0.00000   0.00000   0.00000   0.00000
    D5        0.00000   0.00000   0.00000   0.00000   0.00000   0.00000
    D6        3.14159   0.00000   0.00000   0.00000   0.00000   3.14159
    D7        3.14159   0.00000   0.00000   0.00000   0.00000   3.14159
    D8        0.00000   0.00000   0.00000   0.00000   0.00000   0.00000
    D9        0.00000   0.00000   0.00000   0.00000   0.00000   0.00000
   D10        3.14159   0.00000   0.00000   0.00000   0.00000   3.14159
         Item               Value     Threshold  Converged?
 Maximum Force            0.010946     0.000450     NO 
 RMS     Force            0.004110     0.000300     NO 
 Maximum Displacement     0.017924     0.001800     NO 
 RMS     Displacement     0.007241     0.001200     NO 
 Predicted change in Energy=-3.867485D-04
 GradGradGradGradGradGradGradGradGradGradGradGradGradGradGradGradGradGrad

                          Input orientation:                          
 ---------------------------------------------------------------------
 Center     Atomic     Atomic              Coordinates (Angstroms)
 Number     Number      Type              X           Y           Z
 ---------------------------------------------------------------------
    1          7             0       -0.717543   -0.920536    0.000000
    2          7             0       -1.113941    0.300646    0.000000
    3          7             0       -0.000030    1.051828    0.000000
    4          1             0       -0.063166    2.057859    0.000000
    5          7             0        0.635743   -1.001528    0.000000
    6          6             0        1.063944    0.236440    0.000000
    7          1             0        2.091149    0.562480    0.000000
 ---------------------------------------------------------------------
                    Distance matrix (angstroms):
                    1          2          3          4          5
     1  N    0.000000
     2  N    1.283906   0.000000
     3  N    2.098820   1.343530   0.000000
     4  H    3.049433   2.047419   1.008010   0.000000
     5  N    1.355708   2.181066   2.149530   3.138204   0.000000
     6  C    2.124215   2.178831   1.340484   2.141948   1.309932
     7  H    3.176175   3.215768   2.147671   2.622448   2.136429
                    6          7
     6  C    0.000000
     7  H    1.077707   0.000000
 Stoichiometry    CH2N4
 Framework group  CS[SG(CH2N4)]
 Deg. of freedom    11
 Full point group                 CS      NOp   2
 Largest Abelian subgroup         CS      NOp   2
 Largest concise Abelian subgroup C1      NOp   1
                         Standard orientation:                         
 ---------------------------------------------------------------------
 Center     Atomic     Atomic              Coordinates (Angstroms)
 Number     Number      Type              X           Y           Z
 ---------------------------------------------------------------------
    1          7             0       -0.719721   -0.921171    0.000000
    2          7             0       -1.114751    0.300453    0.000000
    3          7             0        0.000000    1.050388    0.000000
    4          1             0       -0.062011    2.056489    0.000000
    5          7             0        0.633474   -1.003678    0.000000
    6          6             0        1.063060    0.233810    0.000000
    7          1             0        2.090630    0.558701    0.000000
 ---------------------------------------------------------------------
 Rotational constants (GHZ):     10.6128925     10.4404746      5.2629888
 Standard basis: 6-31+G(d,p) (6D, 7F)
 There are    78 symmetry adapted basis functions of A'  symmetry.
 There are    27 symmetry adapted basis functions of A"  symmetry.
 Integral buffers will be    262144 words long.
 Raffenetti 2 integral format.
 Two-electron integral symmetry is turned on.
   105 basis functions,   174 primitive gaussians,   105 cartesian basis functions
    18 alpha electrons       18 beta electrons
       nuclear repulsion energy       167.4245100401 Hartrees.
 NAtoms=    7 NActive=    7 NUniq=    7 SFac= 1.00D+00 NAtFMM=   60 Big=F
 One-electron integrals computed using PRISM.
 NBasis=   105 RedAO= T  NBF=    78    27
 NBsUse=   105 1.00D-06 NBFU=    78    27
 Initial guess read from the read-write file:
 Initial guess orbital symmetries:
       Occupied  (A') (A') (A') (A') (A') (A') (A') (A') (A') (A')
                 (A') (A") (A') (A') (A") (A") (A') (A')
       Virtual   (A") (A') (A") (A') (A') (A") (A') (A') (A') (A")
                 (A") (A') (A') (A') (A') (A') (A") (A') (A') (A")
                 (A') (A') (A') (A') (A') (A') (A') (A') (A') (A")
                 (A') (A') (A') (A') (A') (A") (A") (A') (A") (A')
                 (A') (A") (A') (A') (A') (A') (A') (A") (A') (A')
                 (A") (A") (A') (A") (A") (A') (A') (A') (A') (A')
                 (A') (A") (A') (A") (A") (A') (A') (A") (A') (A")
                 (A') (A") (A') (A') (A") (A') (A') (A') (A') (A')
                 (A') (A') (A') (A') (A') (A') (A')
 Requested convergence on RMS density matrix=1.00D-08 within 128 cycles.
 Requested convergence on MAX density matrix=1.00D-06.
 Requested convergence on             energy=1.00D-06.
 No special actions if energy rises.
 Keep R1 integrals in memory in canonical form, NReq=    16619983.
 SCF Done:  E(RB+HF-B95) =  -258.183665616     A.U. after   11 cycles
             Convg  =    0.4062D-08             -V/T =  2.0081
             S**2   =   0.0000
 ***** Axes restored to original set *****
 -------------------------------------------------------------------
 Center     Atomic                   Forces (Hartrees/Bohr)
 Number     Number              X              Y              Z
 -------------------------------------------------------------------
    1          7           0.002213031   -0.000618292    0.000000000
    2          7           0.001297012    0.000970941    0.000000000
    3          7          -0.002097425   -0.001224985    0.000000000
    4          1           0.000132140    0.000040449    0.000000000
    5          7          -0.003233014   -0.000357988    0.000000000
    6          6           0.001571155    0.001266293    0.000000000
    7          1           0.000117102   -0.000076418    0.000000000
 -------------------------------------------------------------------
 Cartesian Forces:  Max     0.003233014 RMS     0.001164878

 GradGradGradGradGradGradGradGradGradGradGradGradGradGradGradGradGradGrad
 Berny optimization.
 Internal  Forces:  Max     0.002262943 RMS     0.000624286
 Search for a local minimum.
 Step number   2 out of a maximum of  36
 All quantities printed in internal units (Hartrees-Bohrs-Radians)
 Update second derivatives using D2CorX and points  1  2
 Trust test= 1.09D+00 RLast= 3.72D-02 DXMaxT set to 3.00D-01
     Eigenvalues ---    0.02190   0.02293   0.02379   0.02549   0.15957
     Eigenvalues ---    0.16000   0.22473   0.24559   0.36086   0.42861
     Eigenvalues ---    0.45967   0.48823   0.53485   0.60647   0.72022
     Eigenvalues --- 1000.000001000.000001000.000001000.000001000.00000
     Eigenvalues --- 1000.000001000.000001000.000001000.000001000.00000
     Eigenvalues --- 1000.00000
 RFO step:  Lambda=-2.11160755D-05.
 Quartic linear search produced a step of  0.08521.
 Iteration  1 RMS(Cart)=  0.00126802 RMS(Int)=  0.00000128
 Iteration  2 RMS(Cart)=  0.00000127 RMS(Int)=  0.00000033
 Iteration  3 RMS(Cart)=  0.00000000 RMS(Int)=  0.00000033
 Variable       Old X    -DE/DX   Delta X   Delta X   Delta X     New X
                                 (Linear)    (Quad)   (Total)
    R1        2.42623   0.00023  -0.00126   0.00105  -0.00022   2.42602
    R2        2.56192  -0.00226  -0.00183  -0.00358  -0.00541   2.55651
    R3        2.53890  -0.00144  -0.00161  -0.00179  -0.00341   2.53550
    R4        1.90486   0.00004  -0.00045   0.00041  -0.00005   1.90482
    R5        2.53315   0.00028  -0.00115   0.00156   0.00041   2.53356
    R6        2.47541   0.00100  -0.00085   0.00248   0.00163   2.47704
    R7        2.03657   0.00008  -0.00030   0.00047   0.00017   2.03674
    A1        1.94445  -0.00002   0.00004  -0.00092  -0.00088   1.94356
    A2        1.85024   0.00029   0.00017   0.00044   0.00061   1.85085
    A3        2.10143   0.00008   0.00015   0.00031   0.00046   2.10190
    A4        1.89439   0.00015  -0.00008   0.00130   0.00123   1.89562
    A5        2.28736  -0.00023  -0.00008  -0.00161  -0.00169   2.28567
    A6        1.84403   0.00052   0.00002   0.00268   0.00270   1.84673
    A7        1.89168  -0.00094  -0.00016  -0.00350  -0.00366   1.88802
    A8        2.18036   0.00061   0.00020   0.00260   0.00281   2.18316
    A9        2.21115   0.00033  -0.00004   0.00090   0.00085   2.21201
    D1        0.00000   0.00000   0.00000   0.00000   0.00000   0.00000
    D2        0.00000   0.00000   0.00000   0.00000   0.00000   0.00000
    D3        3.14159   0.00000   0.00000   0.00000   0.00000   3.14159
    D4        0.00000   0.00000   0.00000   0.00000   0.00000   0.00000
    D5        0.00000   0.00000   0.00000   0.00000   0.00000   0.00000
    D6        3.14159   0.00000   0.00000   0.00000   0.00000   3.14159
    D7        3.14159   0.00000   0.00000   0.00000   0.00000   3.14159
    D8        0.00000   0.00000   0.00000   0.00000   0.00000   0.00000
    D9        0.00000   0.00000   0.00000   0.00000   0.00000   0.00000
   D10        3.14159   0.00000   0.00000   0.00000   0.00000   3.14159
         Item               Value     Threshold  Converged?
 Maximum Force            0.002263     0.000450     NO 
 RMS     Force            0.000624     0.000300     NO 
 Maximum Displacement     0.004135     0.001800     NO 
 RMS     Displacement     0.001268     0.001200     NO 
 Predicted change in Energy=-1.335888D-05
 GradGradGradGradGradGradGradGradGradGradGradGradGradGradGradGradGradGrad

                          Input orientation:                          
 ---------------------------------------------------------------------
 Center     Atomic     Atomic              Coordinates (Angstroms)
 Number     Number      Type              X           Y           Z
 ---------------------------------------------------------------------
    1          7             0       -0.716922   -0.920563    0.000000
    2          7             0       -1.112935    0.300623    0.000000
    3          7             0       -0.000765    1.051161    0.000000
    4          1             0       -0.063764    2.057176    0.000000
    5          7             0        0.633555   -1.000580    0.000000
    6          6             0        1.064646    0.237296    0.000000
    7          1             0        2.092343    0.562076    0.000000
 ---------------------------------------------------------------------
                    Distance matrix (angstroms):
                    1          2          3          4          5
     1  N    0.000000
     2  N    1.283792   0.000000
     3  N    2.097755   1.341726   0.000000
     4  H    3.048532   2.046030   1.007986   0.000000
     5  N    1.352845   2.177925   2.147557   3.136260   0.000000
     6  C    2.124764   2.178502   1.340700   2.141325   1.310792
     7  H    3.176505   3.215923   2.149489   2.623761   2.137745
                    6          7
     6  C    0.000000
     7  H    1.077795   0.000000
 Stoichiometry    CH2N4
 Framework group  CS[SG(CH2N4)]
 Deg. of freedom    11
 Full point group                 CS      NOp   2
 Largest Abelian subgroup         CS      NOp   2
 Largest concise Abelian subgroup C1      NOp   1
                         Standard orientation:                         
 ---------------------------------------------------------------------
 Center     Atomic     Atomic              Coordinates (Angstroms)
 Number     Number      Type              X           Y           Z
 ---------------------------------------------------------------------
    1          7             0       -0.719523   -0.920933    0.000000
    2          7             0       -1.113450    0.300927    0.000000
    3          7             0        0.000000    1.049565    0.000000
    4          1             0       -0.061282    2.055686    0.000000
    5          7             0        0.630815   -1.003256    0.000000
    6          6             0        1.064019    0.233882    0.000000
    7          1             0        2.092269    0.556907    0.000000
 ---------------------------------------------------------------------
 Rotational constants (GHZ):     10.6162764     10.4595486      5.2686649
 Standard basis: 6-31+G(d,p) (6D, 7F)
 There are    78 symmetry adapted basis functions of A'  symmetry.
 There are    27 symmetry adapted basis functions of A"  symmetry.
 Integral buffers will be    262144 words long.
 Raffenetti 2 integral format.
 Two-electron integral symmetry is turned on.
   105 basis functions,   174 primitive gaussians,   105 cartesian basis functions
    18 alpha electrons       18 beta electrons
       nuclear repulsion energy       167.5120466393 Hartrees.
 NAtoms=    7 NActive=    7 NUniq=    7 SFac= 1.00D+00 NAtFMM=   60 Big=F
 One-electron integrals computed using PRISM.
 NBasis=   105 RedAO= T  NBF=    78    27
 NBsUse=   105 1.00D-06 NBFU=    78    27
 Initial guess read from the read-write file:
 Initial guess orbital symmetries:
       Occupied  (A') (A') (A') (A') (A') (A') (A') (A') (A') (A')
                 (A') (A") (A') (A') (A") (A") (A') (A')
       Virtual   (A") (A') (A") (A') (A') (A") (A') (A') (A') (A")
                 (A") (A') (A') (A') (A') (A') (A") (A') (A') (A")
                 (A') (A') (A') (A') (A') (A') (A') (A') (A') (A")
                 (A') (A') (A') (A') (A') (A") (A") (A') (A') (A")
                 (A') (A") (A') (A') (A') (A') (A') (A") (A') (A')
                 (A") (A") (A') (A") (A") (A') (A') (A') (A') (A')
                 (A') (A") (A') (A") (A") (A') (A") (A') (A') (A")
                 (A') (A") (A') (A') (A") (A') (A') (A') (A') (A')
                 (A') (A') (A') (A') (A') (A') (A')
 Requested convergence on RMS density matrix=1.00D-08 within 128 cycles.
 Requested convergence on MAX density matrix=1.00D-06.
 Requested convergence on             energy=1.00D-06.
 No special actions if energy rises.
 Keep R1 integrals in memory in canonical form, NReq=    16619983.
 SCF Done:  E(RB+HF-B95) =  -258.183681653     A.U. after   10 cycles
             Convg  =    0.4115D-08             -V/T =  2.0081
             S**2   =   0.0000
 ***** Axes restored to original set *****
 -------------------------------------------------------------------
 Center     Atomic                   Forces (Hartrees/Bohr)
 Number     Number              X              Y              Z
 -------------------------------------------------------------------
    1          7           0.001363664   -0.000823756    0.000000000
    2          7          -0.000224522    0.001379507    0.000000000
    3          7          -0.000793316   -0.000345057    0.000000000
    4          1          -0.000004127    0.000076042    0.000000000
    5          7          -0.000811261   -0.000693930    0.000000000
    6          6           0.000514707    0.000454143    0.000000000
    7          1          -0.000045143   -0.000046950    0.000000000
 -------------------------------------------------------------------
 Cartesian Forces:  Max     0.001379507 RMS     0.000571585

 GradGradGradGradGradGradGradGradGradGradGradGradGradGradGradGradGradGrad
 Berny optimization.
 Internal  Forces:  Max     0.001095996 RMS     0.000327731
 Search for a local minimum.
 Step number   3 out of a maximum of  36
 All quantities printed in internal units (Hartrees-Bohrs-Radians)
 Update second derivatives using D2CorX and points  1  2  3
 Trust test= 1.20D+00 RLast= 8.88D-03 DXMaxT set to 3.00D-01
     Eigenvalues ---    0.02190   0.02292   0.02378   0.02549   0.15359
     Eigenvalues ---    0.16009   0.20108   0.28727   0.30923   0.36248
     Eigenvalues ---    0.45923   0.48377   0.53490   0.61282   0.79820
     Eigenvalues --- 1000.000001000.000001000.000001000.000001000.00000
     Eigenvalues --- 1000.000001000.000001000.000001000.000001000.00000
     Eigenvalues --- 1000.00000
 RFO step:  Lambda=-6.33564185D-06.
 Quartic linear search produced a step of  0.32667.
 Iteration  1 RMS(Cart)=  0.00078400 RMS(Int)=  0.00000037
 Iteration  2 RMS(Cart)=  0.00000031 RMS(Int)=  0.00000018
 Variable       Old X    -DE/DX   Delta X   Delta X   Delta X     New X
                                 (Linear)    (Quad)   (Total)
    R1        2.42602   0.00110  -0.00007   0.00183   0.00176   2.42778
    R2        2.55651  -0.00075  -0.00177  -0.00179  -0.00356   2.55295
    R3        2.53550  -0.00054  -0.00111  -0.00131  -0.00242   2.53307
    R4        1.90482   0.00008  -0.00001   0.00015   0.00013   1.90495
    R5        2.53356   0.00043   0.00013   0.00075   0.00088   2.53443
    R6        2.47704   0.00053   0.00053   0.00079   0.00133   2.47836
    R7        2.03674  -0.00006   0.00005  -0.00030  -0.00024   2.03650
    A1        1.94356   0.00033  -0.00029   0.00181   0.00152   1.94508
    A2        1.85085  -0.00028   0.00020  -0.00146  -0.00126   1.84960
    A3        2.10190  -0.00003   0.00015  -0.00008   0.00007   2.10197
    A4        1.89562   0.00012   0.00040   0.00058   0.00098   1.89660
    A5        2.28567  -0.00009  -0.00055  -0.00050  -0.00106   2.28462
    A6        1.84673  -0.00019   0.00088  -0.00118  -0.00030   1.84643
    A7        1.88802   0.00001  -0.00120   0.00025  -0.00094   1.88707
    A8        2.18316   0.00006   0.00092   0.00037   0.00129   2.18445
    A9        2.21201  -0.00007   0.00028  -0.00063  -0.00035   2.21166
    D1        0.00000   0.00000   0.00000   0.00000   0.00000   0.00000
    D2        0.00000   0.00000   0.00000   0.00000   0.00000   0.00000
    D3        3.14159   0.00000   0.00000   0.00000   0.00000   3.14159
    D4        0.00000   0.00000   0.00000   0.00000   0.00000   0.00000
    D5        0.00000   0.00000   0.00000   0.00000   0.00000   0.00000
    D6        3.14159   0.00000   0.00000   0.00000   0.00000   3.14159
    D7        3.14159   0.00000   0.00000   0.00000   0.00000   3.14159
    D8        0.00000   0.00000   0.00000   0.00000   0.00000   0.00000
    D9        0.00000   0.00000   0.00000   0.00000   0.00000   0.00000
   D10        3.14159   0.00000   0.00000   0.00000   0.00000   3.14159
         Item               Value     Threshold  Converged?
 Maximum Force            0.001096     0.000450     NO 
 RMS     Force            0.000328     0.000300     NO 
 Maximum Displacement     0.002692     0.001800     NO 
 RMS     Displacement     0.000784     0.001200     YES
 Predicted change in Energy=-3.973911D-06
 GradGradGradGradGradGradGradGradGradGradGradGradGradGradGradGradGradGrad

                          Input orientation:                          
 ---------------------------------------------------------------------
 Center     Atomic     Atomic              Coordinates (Angstroms)
 Number     Number      Type              X           Y           Z
 ---------------------------------------------------------------------
    1          7             0       -0.715498   -0.920245    0.000000
    2          7             0       -1.112926    0.301462    0.000000
    3          7             0       -0.001569    1.050912    0.000000
    4          1             0       -0.064162    2.057022    0.000000
    5          7             0        0.633051   -1.000955    0.000000
    6          6             0        1.064739    0.237456    0.000000
    7          1             0        2.092522    0.561537    0.000000
 ---------------------------------------------------------------------
                    Distance matrix (angstroms):
                    1          2          3          4          5
     1  N    0.000000
     2  N    1.284725   0.000000
     3  N    2.096463   1.340444   0.000000
     4  H    3.047681   2.044969   1.008055   0.000000
     5  N    1.350961   2.178239   2.147766   3.136452   0.000000
     6  C    2.123562   2.178605   1.341165   2.141317   1.311494
     7  H    3.175004   3.215981   2.150512   2.624455   2.138092
                    6          7
     6  C    0.000000
     7  H    1.077667   0.000000
 Stoichiometry    CH2N4
 Framework group  CS[SG(CH2N4)]
 Deg. of freedom    11
 Full point group                 CS      NOp   2
 Largest Abelian subgroup         CS      NOp   2
 Largest concise Abelian subgroup C1      NOp   1
                         Standard orientation:                         
 ---------------------------------------------------------------------
 Center     Atomic     Atomic              Coordinates (Angstroms)
 Number     Number      Type              X           Y           Z
 ---------------------------------------------------------------------
    1          7             0       -0.718867   -0.920155    0.000000
    2          7             0       -1.113232    0.302544    0.000000
    3          7             0        0.000000    1.049207    0.000000
    4          1             0       -0.060072    2.055471    0.000000
    5          7             0        0.629474   -1.004245    0.000000
    6          6             0        1.064265    0.233080    0.000000
    7          1             0        2.092857    0.554584    0.000000
 ---------------------------------------------------------------------
 Rotational constants (GHZ):     10.6265949     10.4564914      5.2704285
 Standard basis: 6-31+G(d,p) (6D, 7F)
 There are    78 symmetry adapted basis functions of A'  symmetry.
 There are    27 symmetry adapted basis functions of A"  symmetry.
 Integral buffers will be    262144 words long.
 Raffenetti 2 integral format.
 Two-electron integral symmetry is turned on.
   105 basis functions,   174 primitive gaussians,   105 cartesian basis functions
    18 alpha electrons       18 beta electrons
       nuclear repulsion energy       167.5386338231 Hartrees.
 NAtoms=    7 NActive=    7 NUniq=    7 SFac= 1.00D+00 NAtFMM=   60 Big=F
 One-electron integrals computed using PRISM.
 NBasis=   105 RedAO= T  NBF=    78    27
 NBsUse=   105 1.00D-06 NBFU=    78    27
 Initial guess read from the read-write file:
 Initial guess orbital symmetries:
       Occupied  (A') (A') (A') (A') (A') (A') (A') (A') (A') (A')
                 (A') (A") (A') (A') (A") (A") (A') (A')
       Virtual   (A") (A') (A") (A') (A') (A") (A') (A') (A') (A")
                 (A") (A') (A') (A') (A') (A') (A") (A') (A') (A")
                 (A') (A') (A') (A') (A') (A') (A') (A') (A') (A")
                 (A') (A') (A') (A') (A') (A") (A") (A') (A') (A")
                 (A') (A") (A') (A') (A') (A') (A') (A") (A') (A')
                 (A") (A") (A') (A") (A") (A') (A') (A') (A') (A')
                 (A') (A") (A') (A") (A") (A') (A") (A') (A') (A")
                 (A') (A") (A') (A') (A") (A') (A') (A') (A') (A')
                 (A') (A') (A') (A') (A') (A') (A')
 Requested convergence on RMS density matrix=1.00D-08 within 128 cycles.
 Requested convergence on MAX density matrix=1.00D-06.
 Requested convergence on             energy=1.00D-06.
 No special actions if energy rises.
 Keep R1 integrals in memory in canonical form, NReq=    16619983.
 SCF Done:  E(RB+HF-B95) =  -258.183684558     A.U. after    9 cycles
             Convg  =    0.7625D-08             -V/T =  2.0081
             S**2   =   0.0000
 ***** Axes restored to original set *****
 -------------------------------------------------------------------
 Center     Atomic                   Forces (Hartrees/Bohr)
 Number     Number              X              Y              Z
 -------------------------------------------------------------------
    1          7          -0.000294325   -0.001032529    0.000000000
    2          7          -0.000178520    0.000365996    0.000000000
    3          7           0.000368619    0.000119554    0.000000000
    4          1           0.000006151    0.000039656    0.000000000
    5          7           0.000029212    0.000183980    0.000000000
    6          6           0.000081250    0.000237671    0.000000000
    7          1          -0.000012387    0.000085672    0.000000000
 -------------------------------------------------------------------
 Cartesian Forces:  Max     0.001032529 RMS     0.000273916

 GradGradGradGradGradGradGradGradGradGradGradGradGradGradGradGradGradGrad
 Berny optimization.
 Internal  Forces:  Max     0.000623255 RMS     0.000206730
 Search for a local minimum.
 Step number   4 out of a maximum of  36
 All quantities printed in internal units (Hartrees-Bohrs-Radians)
 Update second derivatives using D2CorX and points  1  2  3  4
 Trust test= 7.31D-01 RLast= 5.74D-03 DXMaxT set to 3.00D-01
     Eigenvalues ---    0.02190   0.02292   0.02378   0.02549   0.14404
     Eigenvalues ---    0.16075   0.18644   0.26067   0.36214   0.41207
     Eigenvalues ---    0.45884   0.48626   0.56108   0.63237   0.69124
     Eigenvalues --- 1000.000001000.000001000.000001000.000001000.00000
     Eigenvalues --- 1000.000001000.000001000.000001000.000001000.00000
     Eigenvalues --- 1000.00000
 RFO step:  Lambda=-1.62161724D-06.
 Quartic linear search produced a step of -0.20345.
 Iteration  1 RMS(Cart)=  0.00040823 RMS(Int)=  0.00000016
 Iteration  2 RMS(Cart)=  0.00000011 RMS(Int)=  0.00000008
 Variable       Old X    -DE/DX   Delta X   Delta X   Delta X     New X
                                 (Linear)    (Quad)   (Total)
    R1        2.42778   0.00062  -0.00036   0.00130   0.00094   2.42872
    R2        2.55295   0.00021   0.00072  -0.00059   0.00013   2.55308
    R3        2.53307   0.00038   0.00049  -0.00011   0.00038   2.53345
    R4        1.90495   0.00004  -0.00003   0.00011   0.00008   1.90503
    R5        2.53443  -0.00020  -0.00018  -0.00010  -0.00028   2.53416
    R6        2.47836   0.00022  -0.00027   0.00058   0.00031   2.47868
    R7        2.03650   0.00001   0.00005  -0.00007  -0.00002   2.03647
    A1        1.94508  -0.00052  -0.00031  -0.00090  -0.00121   1.94387
    A2        1.84960   0.00018   0.00026   0.00038   0.00063   1.85023
    A3        2.10197   0.00004  -0.00002   0.00027   0.00025   2.10222
    A4        1.89660  -0.00001  -0.00020   0.00008  -0.00012   1.89647
    A5        2.28462  -0.00004   0.00021  -0.00034  -0.00013   2.28449
    A6        1.84643   0.00036   0.00006   0.00084   0.00090   1.84733
    A7        1.88707  -0.00001   0.00019  -0.00039  -0.00020   1.88688
    A8        2.18445  -0.00005  -0.00026   0.00012  -0.00014   2.18431
    A9        2.21166   0.00005   0.00007   0.00027   0.00034   2.21200
    D1        0.00000   0.00000   0.00000   0.00000   0.00000   0.00000
    D2        0.00000   0.00000   0.00000   0.00000   0.00000   0.00000
    D3        3.14159   0.00000   0.00000   0.00000   0.00000   3.14159
    D4        0.00000   0.00000   0.00000   0.00000   0.00000   0.00000
    D5        0.00000   0.00000   0.00000   0.00000   0.00000   0.00000
    D6        3.14159   0.00000   0.00000   0.00000   0.00000   3.14159
    D7        3.14159   0.00000   0.00000   0.00000   0.00000   3.14159
    D8        0.00000   0.00000   0.00000   0.00000   0.00000   0.00000
    D9        0.00000   0.00000   0.00000   0.00000   0.00000   0.00000
   D10        3.14159   0.00000   0.00000   0.00000   0.00000   3.14159
         Item               Value     Threshold  Converged?
 Maximum Force            0.000623     0.000450     NO 
 RMS     Force            0.000207     0.000300     YES
 Maximum Displacement     0.001496     0.001800     YES
 RMS     Displacement     0.000408     0.001200     YES
 Predicted change in Energy=-9.862803D-07
 GradGradGradGradGradGradGradGradGradGradGradGradGradGradGradGradGradGrad

                          Input orientation:                          
 ---------------------------------------------------------------------
 Center     Atomic     Atomic              Coordinates (Angstroms)
 Number     Number      Type              X           Y           Z
 ---------------------------------------------------------------------
    1          7             0       -0.715897   -0.921037    0.000000
    2          7             0       -1.112830    0.301357    0.000000
    3          7             0       -0.001382    1.051031    0.000000
    4          1             0       -0.063827    2.057194    0.000000
    5          7             0        0.632776   -1.000832    0.000000
    6          6             0        1.064791    0.237639    0.000000
    7          1             0        2.092526    0.561836    0.000000
 ---------------------------------------------------------------------
                    Distance matrix (angstroms):
                    1          2          3          4          5
     1  N    0.000000
     2  N    1.285224   0.000000
     3  N    2.097518   1.340644   0.000000
     4  H    3.048779   2.045329   1.008099   0.000000
     5  N    1.351031   2.177805   2.147626   3.136364   0.000000
     6  C    2.124472   2.178553   1.341019   2.141158   1.311659
     7  H    3.175870   3.215922   2.150294   2.624110   2.138411
                    6          7
     6  C    0.000000
     7  H    1.077656   0.000000
 Stoichiometry    CH2N4
 Framework group  CS[SG(CH2N4)]
 Deg. of freedom    11
 Full point group                 CS      NOp   2
 Largest Abelian subgroup         CS      NOp   2
 Largest concise Abelian subgroup C1      NOp   1
                         Standard orientation:                         
 ---------------------------------------------------------------------
 Center     Atomic     Atomic              Coordinates (Angstroms)
 Number     Number      Type              X           Y           Z
 ---------------------------------------------------------------------
    1          7             0       -0.718995   -0.921030    0.000000
    2          7             0       -1.113149    0.302263    0.000000
    3          7             0        0.000000    1.049409    0.000000
    4          1             0       -0.060158    2.055711    0.000000
    5          7             0        0.629492   -1.003891    0.000000
    6          6             0        1.064322    0.233596    0.000000
    7          1             0        2.092791    0.555456    0.000000
 ---------------------------------------------------------------------
 Rotational constants (GHZ):     10.6178192     10.4601519      5.2691979
 Standard basis: 6-31+G(d,p) (6D, 7F)
 There are    78 symmetry adapted basis functions of A'  symmetry.
 There are    27 symmetry adapted basis functions of A"  symmetry.
 Integral buffers will be    262144 words long.
 Raffenetti 2 integral format.
 Two-electron integral symmetry is turned on.
   105 basis functions,   174 primitive gaussians,   105 cartesian basis functions
    18 alpha electrons       18 beta electrons
       nuclear repulsion energy       167.5181830967 Hartrees.
 NAtoms=    7 NActive=    7 NUniq=    7 SFac= 1.00D+00 NAtFMM=   60 Big=F
 One-electron integrals computed using PRISM.
 NBasis=   105 RedAO= T  NBF=    78    27
 NBsUse=   105 1.00D-06 NBFU=    78    27
 Initial guess read from the read-write file:
 Initial guess orbital symmetries:
       Occupied  (A') (A') (A') (A') (A') (A') (A') (A') (A') (A')
                 (A') (A") (A') (A') (A") (A") (A') (A')
       Virtual   (A") (A') (A") (A') (A') (A") (A') (A') (A') (A")
                 (A") (A') (A') (A') (A') (A') (A") (A') (A') (A")
                 (A') (A') (A') (A') (A') (A') (A') (A') (A') (A")
                 (A') (A') (A') (A') (A') (A") (A") (A') (A') (A")
                 (A') (A") (A') (A') (A') (A') (A') (A") (A') (A')
                 (A") (A") (A') (A") (A") (A') (A') (A') (A') (A')
                 (A') (A") (A') (A") (A") (A') (A") (A') (A') (A")
                 (A') (A") (A') (A') (A") (A') (A') (A') (A') (A')
                 (A') (A') (A') (A') (A') (A') (A')
 Requested convergence on RMS density matrix=1.00D-08 within 128 cycles.
 Requested convergence on MAX density matrix=1.00D-06.
 Requested convergence on             energy=1.00D-06.
 No special actions if energy rises.
 Keep R1 integrals in memory in canonical form, NReq=    16619983.
 SCF Done:  E(RB+HF-B95) =  -258.183685546     A.U. after    9 cycles
             Convg  =    0.1871D-08             -V/T =  2.0081
             S**2   =   0.0000
 ***** Axes restored to original set *****
 -------------------------------------------------------------------
 Center     Atomic                   Forces (Hartrees/Bohr)
 Number     Number              X              Y              Z
 -------------------------------------------------------------------
    1          7           0.000131434   -0.000043385    0.000000000
    2          7          -0.000300049    0.000202118    0.000000000
    3          7           0.000079140   -0.000140060    0.000000000
    4          1          -0.000050083   -0.000007384    0.000000000
    5          7           0.000195480   -0.000009502    0.000000000
    6          6          -0.000061397   -0.000038613    0.000000000
    7          1           0.000005474    0.000036825    0.000000000
 -------------------------------------------------------------------
 Cartesian Forces:  Max     0.000300049 RMS     0.000103148

 GradGradGradGradGradGradGradGradGradGradGradGradGradGradGradGradGradGrad
 Berny optimization.
 Internal  Forces:  Max     0.000212738 RMS     0.000073252
 Search for a local minimum.
 Step number   5 out of a maximum of  36
 All quantities printed in internal units (Hartrees-Bohrs-Radians)
 Update second derivatives using D2CorX and points  1  2  3  4  5

 Trust test= 1.00D+00 RLast= 2.05D-03 DXMaxT set to 3.00D-01
     Eigenvalues ---    0.02190   0.02292   0.02378   0.02549   0.15059
     Eigenvalues ---    0.16021   0.18040   0.35084   0.36224   0.44187
     Eigenvalues ---    0.46007   0.48819   0.53970   0.61183   0.71205
     Eigenvalues --- 1000.000001000.000001000.000001000.000001000.00000
     Eigenvalues --- 1000.000001000.000001000.000001000.000001000.00000
     Eigenvalues --- 1000.00000
 RFO step:  Lambda=-2.67028471D-07.
 Quartic linear search produced a step of -0.09085.
 Iteration  1 RMS(Cart)=  0.00015354 RMS(Int)=  0.00000003
 Iteration  2 RMS(Cart)=  0.00000003 RMS(Int)=  0.00000002
 Variable       Old X    -DE/DX   Delta X   Delta X   Delta X     New X
                                 (Linear)    (Quad)   (Total)
    R1        2.42872   0.00016  -0.00009   0.00046   0.00038   2.42910
    R2        2.55308   0.00008  -0.00001   0.00016   0.00015   2.55323
    R3        2.53345   0.00003  -0.00003   0.00015   0.00012   2.53357
    R4        1.90503   0.00000  -0.00001   0.00002   0.00002   1.90505
    R5        2.53416   0.00002   0.00003  -0.00008  -0.00005   2.53410
    R6        2.47868  -0.00010  -0.00003  -0.00005  -0.00008   2.47860
    R7        2.03647   0.00001   0.00000   0.00003   0.00003   2.03651
    A1        1.94387   0.00013   0.00011   0.00011   0.00022   1.94409
    A2        1.85023  -0.00021  -0.00006  -0.00044  -0.00050   1.84973
    A3        2.10222  -0.00007  -0.00002  -0.00019  -0.00021   2.10201
    A4        1.89647   0.00012   0.00001   0.00039   0.00040   1.89687
    A5        2.28449  -0.00004   0.00001  -0.00020  -0.00019   2.28430
    A6        1.84733  -0.00008  -0.00008   0.00004  -0.00005   1.84729
    A7        1.88688   0.00005   0.00002  -0.00009  -0.00008   1.88680
    A8        2.18431  -0.00002   0.00001  -0.00001   0.00000   2.18431
    A9        2.21200  -0.00002  -0.00003   0.00011   0.00008   2.21207
    D1        0.00000   0.00000   0.00000   0.00000   0.00000   0.00000
    D2        0.00000   0.00000   0.00000   0.00000   0.00000   0.00000
    D3        3.14159   0.00000   0.00000   0.00000   0.00000   3.14159
    D4        0.00000   0.00000   0.00000   0.00000   0.00000   0.00000
    D5        0.00000   0.00000   0.00000   0.00000   0.00000   0.00000
    D6        3.14159   0.00000   0.00000   0.00000   0.00000   3.14159
    D7        3.14159   0.00000   0.00000   0.00000   0.00000   3.14159
    D8        0.00000   0.00000   0.00000   0.00000   0.00000   0.00000
    D9        0.00000   0.00000   0.00000   0.00000   0.00000   0.00000
   D10        3.14159   0.00000   0.00000   0.00000   0.00000   3.14159
         Item               Value     Threshold  Converged?
 Maximum Force            0.000213     0.000450     YES
 RMS     Force            0.000073     0.000300     YES
 Maximum Displacement     0.000532     0.001800     YES
 RMS     Displacement     0.000154     0.001200     YES
 Predicted change in Energy=-1.466051D-07
 Optimization completed.
    -- Stationary point found.
                           ----------------------------
                           !   Optimized Parameters   !
                           ! (Angstroms and Degrees)  !
 --------------------------                            --------------------------
 ! Name  Definition              Value          Derivative Info.                !
 --------------------------------------------------------------------------------
 ! R1    R(1,2)                  1.2852         -DE/DX =    0.0002              !
 ! R2    R(1,5)                  1.351          -DE/DX =    0.0001              !
 ! R3    R(2,3)                  1.3406         -DE/DX =    0.0                 !
 ! R4    R(3,4)                  1.0081         -DE/DX =    0.0                 !
 ! R5    R(3,6)                  1.341          -DE/DX =    0.0                 !
 ! R6    R(5,6)                  1.3117         -DE/DX =   -0.0001              !
 ! R7    R(6,7)                  1.0777         -DE/DX =    0.0                 !
 ! A1    A(2,1,5)              111.3755         -DE/DX =    0.0001              !
 ! A2    A(1,2,3)              106.0102         -DE/DX =   -0.0002              !
 ! A3    A(2,3,4)              120.4484         -DE/DX =   -0.0001              !
 ! A4    A(2,3,6)              108.6599         -DE/DX =    0.0001              !
 ! A5    A(4,3,6)              130.8917         -DE/DX =    0.0                 !
 ! A6    A(1,5,6)              105.8443         -DE/DX =   -0.0001              !
 ! A7    A(3,6,5)              108.11           -DE/DX =    0.0                 !
 ! A8    A(3,6,7)              125.1519         -DE/DX =    0.0                 !
 ! A9    A(5,6,7)              126.7381         -DE/DX =    0.0                 !
 ! D1    D(5,1,2,3)              0.0            -DE/DX =    0.0                 !
 ! D2    D(2,1,5,6)              0.0            -DE/DX =    0.0                 !
 ! D3    D(1,2,3,4)            180.0            -DE/DX =    0.0                 !
 ! D4    D(1,2,3,6)              0.0            -DE/DX =    0.0                 !
 ! D5    D(2,3,6,5)              0.0            -DE/DX =    0.0                 !
 ! D6    D(2,3,6,7)            180.0            -DE/DX =    0.0                 !
 ! D7    D(4,3,6,5)            180.0            -DE/DX =    0.0                 !
 ! D8    D(4,3,6,7)              0.0            -DE/DX =    0.0                 !
 ! D9    D(1,5,6,3)              0.0            -DE/DX =    0.0                 !
 ! D10   D(1,5,6,7)            180.0            -DE/DX =    0.0                 !
 --------------------------------------------------------------------------------
 GradGradGradGradGradGradGradGradGradGradGradGradGradGradGradGradGradGrad

                          Input orientation:                          
 ---------------------------------------------------------------------
 Center     Atomic     Atomic              Coordinates (Angstroms)
 Number     Number      Type              X           Y           Z
 ---------------------------------------------------------------------
    1          7             0       -0.715897   -0.921037    0.000000
    2          7             0       -1.112830    0.301357    0.000000
    3          7             0       -0.001382    1.051031    0.000000
    4          1             0       -0.063827    2.057194    0.000000
    5          7             0        0.632776   -1.000832    0.000000
    6          6             0        1.064791    0.237639    0.000000
    7          1             0        2.092526    0.561836    0.000000
 ---------------------------------------------------------------------
                    Distance matrix (angstroms):
                    1          2          3          4          5
     1  N    0.000000
     2  N    1.285224   0.000000
     3  N    2.097518   1.340644   0.000000
     4  H    3.048779   2.045329   1.008099   0.000000
     5  N    1.351031   2.177805   2.147626   3.136364   0.000000
     6  C    2.124472   2.178553   1.341019   2.141158   1.311659
     7  H    3.175870   3.215922   2.150294   2.624110   2.138411
                    6          7
     6  C    0.000000
     7  H    1.077656   0.000000
 Stoichiometry    CH2N4
 Framework group  CS[SG(CH2N4)]
 Deg. of freedom    11
 Full point group                 CS      NOp   2
 Largest Abelian subgroup         CS      NOp   2
 Largest concise Abelian subgroup C1      NOp   1
                         Standard orientation:                         
 ---------------------------------------------------------------------
 Center     Atomic     Atomic              Coordinates (Angstroms)
 Number     Number      Type              X           Y           Z
 ---------------------------------------------------------------------
    1          7             0       -0.718995   -0.921030    0.000000
    2          7             0       -1.113149    0.302263    0.000000
    3          7             0        0.000000    1.049409    0.000000
    4          1             0       -0.060158    2.055711    0.000000
    5          7             0        0.629492   -1.003891    0.000000
    6          6             0        1.064322    0.233596    0.000000
    7          1             0        2.092791    0.555456    0.000000
 ---------------------------------------------------------------------
 Rotational constants (GHZ):     10.6178192     10.4601519      5.2691979

 **********************************************************************

            Population analysis using the SCF density.

 **********************************************************************

 Orbital symmetries:
       Occupied  (A') (A') (A') (A') (A') (A') (A') (A') (A') (A')
                 (A') (A") (A') (A') (A") (A") (A') (A')
       Virtual   (A") (A') (A") (A') (A') (A") (A') (A') (A') (A")
                 (A") (A') (A') (A') (A') (A') (A") (A') (A') (A")
                 (A') (A') (A') (A') (A') (A') (A') (A') (A') (A")
                 (A') (A') (A') (A') (A') (A") (A") (A') (A') (A")
                 (A') (A") (A') (A') (A') (A') (A') (A") (A') (A')
                 (A") (A") (A') (A") (A") (A') (A') (A') (A') (A')
                 (A') (A") (A') (A") (A") (A') (A") (A') (A') (A")
                 (A') (A") (A') (A') (A") (A') (A') (A') (A') (A')
                 (A') (A') (A') (A') (A') (A') (A')
 The electronic state is 1-A'.
 Alpha  occ. eigenvalues --  -14.53285 -14.49714 -14.47932 -14.45075 -10.34546
 Alpha  occ. eigenvalues --   -1.17728  -0.97567  -0.91969  -0.70304  -0.68807
 Alpha  occ. eigenvalues --   -0.61742  -0.52195  -0.51707  -0.40030  -0.35235
 Alpha  occ. eigenvalues --   -0.32832  -0.32356  -0.30811
 Alpha virt. eigenvalues --   -0.02407  -0.00142   0.01105   0.03438   0.05551
 Alpha virt. eigenvalues --    0.06527   0.08660   0.10303   0.12394   0.14247
 Alpha virt. eigenvalues --    0.15713   0.16453   0.18132   0.19210   0.19401
 Alpha virt. eigenvalues --    0.21711   0.22072   0.23152   0.23480   0.23588
 Alpha virt. eigenvalues --    0.25365   0.26303   0.28136   0.31613   0.33338
 Alpha virt. eigenvalues --    0.33722   0.38911   0.45024   0.46937   0.65075
 Alpha virt. eigenvalues --    0.76343   0.77840   0.81521   0.84688   0.85232
 Alpha virt. eigenvalues --    0.86812   0.89394   0.90608   0.94731   0.94862
 Alpha virt. eigenvalues --    0.96195   0.97942   0.99282   1.05498   1.07257
 Alpha virt. eigenvalues --    1.10438   1.22505   1.23288   1.26934   1.32292
 Alpha virt. eigenvalues --    1.32434   1.33827   1.45609   1.50863   1.52385
 Alpha virt. eigenvalues --    1.57615   1.66727   1.86055   1.88589   1.94338
 Alpha virt. eigenvalues --    2.04792   2.05093   2.16067   2.19924   2.24820
 Alpha virt. eigenvalues --    2.28417   2.34007   2.34738   2.44524   2.49088
 Alpha virt. eigenvalues --    2.55237   2.60587   2.61146   2.65823   2.69843
 Alpha virt. eigenvalues --    2.76837   2.81818   2.91531   3.03571   3.11364
 Alpha virt. eigenvalues --    3.28966   3.65306   3.91406   3.98410   4.20540
 Alpha virt. eigenvalues --    4.27020   4.49271
          Condensed to atoms (all electrons):
              1          2          3          4          5          6
     1  N    6.598299   0.199508   0.055850  -0.002156   0.072919   0.084720
     2  N    0.199508   6.750060   0.029187   0.002140   0.153820  -0.130543
     3  N    0.055850   0.029187   6.896297   0.289441  -0.139104   0.227626
     4  H   -0.002156   0.002140   0.289441   0.363781   0.004877  -0.005273
     5  N    0.072919   0.153820  -0.139104   0.004877   6.927923   0.268982
     6  C    0.084720  -0.130543   0.227626  -0.005273   0.268982   5.105045
     7  H    0.001863   0.006359  -0.065336   0.002192  -0.034831   0.417556
              7
     1  N    0.001863
     2  N    0.006359
     3  N   -0.065336
     4  H    0.002192
     5  N   -0.034831
     6  C    0.417556
     7  H    0.479003
 Mulliken atomic charges:
              1
     1  N   -0.011003
     2  N   -0.010531
     3  N   -0.293960
     4  H    0.345000
     5  N   -0.254587
     6  C    0.031889
     7  H    0.193193
 Sum of Mulliken charges=   0.00000
 Atomic charges with hydrogens summed into heavy atoms:
              1
     1  N   -0.011003
     2  N   -0.010531
     3  N    0.051040
     4  H    0.000000
     5  N   -0.254587
     6  C    0.225081
     7  H    0.000000
 Sum of Mulliken charges=   0.00000
 Electronic spatial extent (au):  <R**2>=   250.2254
 Charge=     0.0000 electrons
 Dipole moment (field-independent basis, Debye):
    X=     2.6125    Y=     4.8902    Z=     0.0000  Tot=     5.5443
 Quadrupole moment (field-independent basis, Debye-Ang):
   XX=   -29.2621   YY=   -26.6617   ZZ=   -28.7139
   XY=     1.9013   XZ=     0.0000   YZ=     0.0000
 Traceless Quadrupole moment (field-independent basis, Debye-Ang):
   XX=    -1.0495   YY=     1.5508   ZZ=    -0.5014
   XY=     1.9013   XZ=     0.0000   YZ=     0.0000
 Octapole moment (field-independent basis, Debye-Ang**2):
  XXX=    12.7997  YYY=    23.5831  ZZZ=     0.0000  XYY=    -0.4537
  XXY=     4.9196  XXZ=     0.0000  XZZ=    -0.4930  YZZ=     0.7433
  YYZ=     0.0000  XYZ=     0.0000
 Hexadecapole moment (field-independent basis, Debye-Ang**3):
 XXXX=  -146.3075 YYYY=  -123.9719 ZZZZ=   -27.4916 XXXY=     7.4142
 XXXZ=     0.0000 YYYX=    -0.0576 YYYZ=     0.0000 ZZZX=     0.0000
 ZZZY=     0.0000 XXYY=   -55.5280 XXZZ=   -31.7314 YYZZ=   -30.0893
 XXYZ=     0.0000 YYXZ=     0.0000 ZZXY=     0.0439
 N-N= 1.675181830967D+02 E-N=-9.366930923988D+02  KE= 2.561160093549D+02
 Symmetry A'   KE= 2.467029025785D+02
 Symmetry A"   KE= 9.413106776372D+00
 1|1|UNPC-UNK|FOpt|RB1B95|6-31+G(d,p)|C1H2N4|PCUSER|10-Sep-2006|0||#B1B
 95/6-31+G** OPT FREQ||1htz 1H-Tetrazole casno=288948 method=55 basis=4
 ||0,1|N,-0.7169000552,-0.9226616272,0.|N,-1.1138327785,0.299731784,0.|
 N,-0.0023853334,1.0494061911,0.|H,-0.0648303858,2.0555688747,0.|N,0.63
 17724787,-1.0024571604,0.|C,1.0637879269,0.236014235,0.|H,2.0915226432
 ,0.5602114019,0.||Version=x86-Win32-G03RevB.05|State=1-A'|HF=-258.1836
 855|RMSD=1.871e-009|RMSF=1.031e-004|Dipole=1.0234624,1.9262767,0.|PG=C
 S [SG(C1H2N4)]||@


 EVERYTHING'S GOT A MORAL, IF ONLY YOU CAN FIND IT.

                                    -- LEWIS CARROL, ALICE IN WONDERLAND
 Job cpu time:  0 days  0 hours  3 minutes 58.0 seconds.
 File lengths (MBytes):  RWF=     16 Int=      0 D2E=      0 Chk=      5 Scr=      1
 Normal termination of Gaussian 03 at Sun Sep 10 23:26:53 2006.
 Link1:  Proceeding to internal job step number  2.
 ---------------------------------------------------------------------
 #N Geom=AllCheck Guess=Read SCRF=Check GenChk RB1B95/6-31+G(d,p) Freq
 ---------------------------------------------------------------------
 1/10=4,29=7,30=1,38=1,40=1,46=1/1,3;
 2/40=1/2;
 3/5=1,6=6,7=111,11=2,16=1,25=1,30=1,70=2,71=2,74=-17/1,2,3;
 4/5=1,7=1/1;
 5/5=2,38=6/2;
 8/6=4,10=90,11=11/1;
 11/6=1,8=1,9=11,15=111,16=1/1,2,10;
 10/6=1/2;
 6/7=2,8=2,9=2,10=2,18=1,28=1/1;
 7/8=1,10=1,25=1/1,2,3,16;
 1/10=4,30=1,46=1/3;
 99//99;
 ------------------------------------------------
 1htz 1H-Tetrazole casno=288948 method=55 basis=4
 ------------------------------------------------
 Redundant internal coordinates taken from checkpoint file:
 gxx.chk
 Charge =  0 Multiplicity = 1
 N,0,-0.7169000552,-0.9226616272,0.
 N,0,-1.1138327785,0.299731784,0.
 N,0,-0.0023853334,1.0494061911,0.
 H,0,-0.0648303858,2.0555688747,0.
 N,0,0.6317724787,-1.0024571604,0.
 C,0,1.0637879269,0.236014235,0.
 H,0,2.0915226432,0.5602114019,0.
 Recover connectivity data from disk.

 GradGradGradGradGradGradGradGradGradGradGradGradGradGradGradGradGradGrad
 Berny optimization.
 Initialization pass.
                           ----------------------------
                           !    Initial Parameters    !
                           ! (Angstroms and Degrees)  !
 --------------------------                            --------------------------
 ! Name  Definition              Value          Derivative Info.                !
 --------------------------------------------------------------------------------
 ! R1    R(1,2)                  1.2852         calculate D2E/DX2 analytically  !
 ! R2    R(1,5)                  1.351          calculate D2E/DX2 analytically  !
 ! R3    R(2,3)                  1.3406         calculate D2E/DX2 analytically  !
 ! R4    R(3,4)                  1.0081         calculate D2E/DX2 analytically  !
 ! R5    R(3,6)                  1.341          calculate D2E/DX2 analytically  !
 ! R6    R(5,6)                  1.3117         calculate D2E/DX2 analytically  !
 ! R7    R(6,7)                  1.0777         calculate D2E/DX2 analytically  !
 ! A1    A(2,1,5)              111.3755         calculate D2E/DX2 analytically  !
 ! A2    A(1,2,3)              106.0102         calculate D2E/DX2 analytically  !
 ! A3    A(2,3,4)              120.4484         calculate D2E/DX2 analytically  !
 ! A4    A(2,3,6)              108.6599         calculate D2E/DX2 analytically  !
 ! A5    A(4,3,6)              130.8917         calculate D2E/DX2 analytically  !
 ! A6    A(1,5,6)              105.8443         calculate D2E/DX2 analytically  !
 ! A7    A(3,6,5)              108.11           calculate D2E/DX2 analytically  !
 ! A8    A(3,6,7)              125.1519         calculate D2E/DX2 analytically  !
 ! A9    A(5,6,7)              126.7381         calculate D2E/DX2 analytically  !
 ! D1    D(5,1,2,3)              0.0            calculate D2E/DX2 analytically  !
 ! D2    D(2,1,5,6)              0.0            calculate D2E/DX2 analytically  !
 ! D3    D(1,2,3,4)            180.0            calculate D2E/DX2 analytically  !
 ! D4    D(1,2,3,6)              0.0            calculate D2E/DX2 analytically  !
 ! D5    D(2,3,6,5)              0.0            calculate D2E/DX2 analytically  !
 ! D6    D(2,3,6,7)            180.0            calculate D2E/DX2 analytically  !
 ! D7    D(4,3,6,5)            180.0            calculate D2E/DX2 analytically  !
 ! D8    D(4,3,6,7)              0.0            calculate D2E/DX2 analytically  !
 ! D9    D(1,5,6,3)              0.0            calculate D2E/DX2 analytically  !
 ! D10   D(1,5,6,7)            180.0            calculate D2E/DX2 analytically  !
 --------------------------------------------------------------------------------
 Trust Radius=3.00D-01 FncErr=1.00D-07 GrdErr=1.00D-07
 Number of steps in this run=   2 maximum allowed number of steps=   2.
 GradGradGradGradGradGradGradGradGradGradGradGradGradGradGradGradGradGrad

                          Input orientation:                          
 ---------------------------------------------------------------------
 Center     Atomic     Atomic              Coordinates (Angstroms)
 Number     Number      Type              X           Y           Z
 ---------------------------------------------------------------------
    1          7             0       -0.716900   -0.922662    0.000000
    2          7             0       -1.113833    0.299732    0.000000
    3          7             0       -0.002385    1.049406    0.000000
    4          1             0       -0.064830    2.055569    0.000000
    5          7             0        0.631772   -1.002457    0.000000
    6          6             0        1.063788    0.236014    0.000000
    7          1             0        2.091523    0.560211    0.000000
 ---------------------------------------------------------------------
                    Distance matrix (angstroms):
                    1          2          3          4          5
     1  N    0.000000
     2  N    1.285224   0.000000
     3  N    2.097518   1.340644   0.000000
     4  H    3.048779   2.045329   1.008099   0.000000
     5  N    1.351031   2.177805   2.147626   3.136364   0.000000
     6  C    2.124472   2.178553   1.341019   2.141158   1.311659
     7  H    3.175870   3.215922   2.150294   2.624110   2.138411
                    6          7
     6  C    0.000000
     7  H    1.077656   0.000000
 Stoichiometry    CH2N4
 Framework group  CS[SG(CH2N4)]
 Deg. of freedom    11
 Full point group                 CS      NOp   2
 Largest Abelian subgroup         CS      NOp   2
 Largest concise Abelian subgroup C1      NOp   1
                         Standard orientation:                         
 ---------------------------------------------------------------------
 Center     Atomic     Atomic              Coordinates (Angstroms)
 Number     Number      Type              X           Y           Z
 ---------------------------------------------------------------------
    1          7             0       -0.718995   -0.921030    0.000000
    2          7             0       -1.113149    0.302263    0.000000
    3          7             0        0.000000    1.049409    0.000000
    4          1             0       -0.060158    2.055711    0.000000
    5          7             0        0.629492   -1.003891    0.000000
    6          6             0        1.064322    0.233596    0.000000
    7          1             0        2.092791    0.555456    0.000000
 ---------------------------------------------------------------------
 Rotational constants (GHZ):     10.6178192     10.4601519      5.2691979
 Standard basis: 6-31+G(d,p) (6D, 7F)
 There are    78 symmetry adapted basis functions of A'  symmetry.
 There are    27 symmetry adapted basis functions of A"  symmetry.
 Integral buffers will be    262144 words long.
 Raffenetti 2 integral format.
 Two-electron integral symmetry is turned on.
   105 basis functions,   174 primitive gaussians,   105 cartesian basis functions
    18 alpha electrons       18 beta electrons
       nuclear repulsion energy       167.5181830967 Hartrees.
 NAtoms=    7 NActive=    7 NUniq=    7 SFac= 1.00D+00 NAtFMM=   60 Big=F
 One-electron integrals computed using PRISM.
 NBasis=   105 RedAO= T  NBF=    78    27
 NBsUse=   105 1.00D-06 NBFU=    78    27
 Initial guess read from the checkpoint file:
 gxx.chk
 Initial guess orbital symmetries:
       Occupied  (A') (A') (A') (A') (A') (A') (A') (A') (A') (A')
                 (A') (A") (A') (A') (A") (A") (A') (A')
       Virtual   (A") (A') (A") (A') (A') (A") (A') (A') (A') (A")
                 (A") (A') (A') (A') (A') (A') (A") (A') (A') (A")
                 (A') (A') (A') (A') (A') (A') (A') (A') (A') (A")
                 (A') (A') (A') (A') (A') (A") (A") (A') (A') (A")
                 (A') (A") (A') (A') (A') (A') (A') (A") (A') (A')
                 (A") (A") (A') (A") (A") (A') (A') (A') (A') (A')
                 (A') (A") (A') (A") (A") (A') (A") (A') (A') (A")
                 (A') (A") (A') (A') (A") (A') (A') (A') (A') (A')
                 (A') (A') (A') (A') (A') (A') (A')
 Requested convergence on RMS density matrix=1.00D-08 within 128 cycles.
 Requested convergence on MAX density matrix=1.00D-06.
 Requested convergence on             energy=1.00D-06.
 No special actions if energy rises.
 Keep R1 integrals in memory in canonical form, NReq=    16619983.
 SCF Done:  E(RB+HF-B95) =  -258.183685546     A.U. after    1 cycles
             Convg  =    0.1895D-08             -V/T =  2.0081
             S**2   =   0.0000
 Range of M.O.s used for correlation:     1   105
 NBasis=   105 NAE=    18 NBE=    18 NFC=     0 NFV=     0
 NROrb=    105 NOA=    18 NOB=    18 NVA=    87 NVB=    87

 **** Warning!!: The largest alpha MO coefficient is  0.45012294D+02

 Symmetrizing basis deriv contribution to polar:
 IMax=3 JMax=2 DiffMx= 0.00D+00
 G2DrvN: will do    8 centers at a time, making    1 passes doing MaxLOS=2.
 FoFDir/FoFCou used for L=0 through L=2.
          Differentiating once with respect to electric field.
                with respect to dipole field.
          Differentiating once with respect to nuclear coordinates.
          Store integrals in memory, NReq=    15918635.
          There are  24 degrees of freedom in the 1st order CPHF.
    21 vectors were produced by pass  0.
 AX will form  21 AO Fock derivatives at one time.
    21 vectors were produced by pass  1.
    21 vectors were produced by pass  2.
    21 vectors were produced by pass  3.
    21 vectors were produced by pass  4.
    21 vectors were produced by pass  5.
     9 vectors were produced by pass  6.
     2 vectors were produced by pass  7.
     1 vectors were produced by pass  8.
 Inv2:  IOpt= 1 Iter= 1 AM= 1.45D-15 Conv= 1.00D-12.
 Inverted reduced A of dimension  138 with in-core refinement.
 Isotropic polarizability for W=    0.000000       36.52 Bohr**3.
 End of Minotr Frequency-dependent properties file   721 does not exist.

 **********************************************************************

            Population analysis using the SCF density.

[...]
 XXXZ=     0.0000 YYYX=    -0.0576 YYYZ=     0.0000 ZZZX=     0.0000
 ZZZY=     0.0000 XXYY=   -55.5280 XXZZ=   -31.7314 YYZZ=   -30.0893
 XXYZ=     0.0000 YYXZ=     0.0000 ZZXY=     0.0439
 N-N= 1.675181830967D+02 E-N=-9.366930917415D+02  KE= 2.561160090729D+02
 Symmetry A'   KE= 2.467029024113D+02
 Symmetry A"   KE= 9.413106661629D+00
  Exact polarizability:  43.178   0.408  42.741   0.000   0.000  23.627
 Approx polarizability:  67.465  -0.006  71.112   0.000   0.000  32.934
 Full mass-weighted force constant matrix:
 Low frequencies ---  -16.0634   -0.0010   -0.0008   -0.0005   12.4022   19.6965
 Low frequencies ---  599.8038  694.2204  740.1073
 Diagonal vibrational polarizability:
        1.1893285       1.1181728       8.0780015
 Harmonic frequencies (cm**-1), IR intensities (KM/Mole), Raman scattering
 activities (A**4/AMU), depolarization ratios for plane and unpolarized
 incident light, reduced masses (AMU), force constants (mDyne/A),
 and normal coordinates:
                     1                      2                      3
                    A"                     A"                     A"
 Frequencies --   599.8033               694.2200               740.1073
 Red. masses --     1.9540                 1.8331                 7.8500
 Frc consts  --     0.4142                 0.5205                 2.5334
 IR Inten    --    80.6619                13.9909                 9.1614
 Atom AN      X      Y      Z        X      Y      Z        X      Y      Z
   1   7     0.00   0.00   0.00     0.00   0.00   0.04     0.00   0.00   0.48
   2   7     0.00   0.00  -0.10     0.00   0.00   0.09     0.00   0.00  -0.41
   3   7     0.00   0.00   0.23     0.00   0.00  -0.08     0.00   0.00   0.11
   4   1     0.00   0.00  -0.93     0.00   0.00  -0.84     0.00   0.00   0.68
   5   7     0.00   0.00   0.04     0.00   0.00  -0.16     0.00   0.00  -0.32
   6   6     0.00   0.00  -0.10     0.00   0.00   0.16     0.00   0.00   0.09
   7   1     0.00   0.00  -0.25     0.00   0.00   0.48     0.00   0.00   0.10
                     4                      5                      6
                    A"                     A'                     A'
 Frequencies --   854.4156               982.1529              1015.9528
 Red. masses --     1.3456                 4.4973                 5.5534
 Frc consts  --     0.5788                 2.5560                 3.3772
 IR Inten    --    22.0535                 2.7825                 1.6845
 Atom AN      X      Y      Z        X      Y      Z        X      Y      Z
   1   7     0.00   0.00   0.02     0.05   0.18   0.00     0.15  -0.11   0.00
   2   7     0.00   0.00   0.00    -0.12   0.13   0.00     0.18  -0.08   0.00
   3   7     0.00   0.00   0.03    -0.09   0.01   0.00     0.02   0.41   0.00
   4   1     0.00   0.00   0.07     0.47   0.05   0.00    -0.08   0.42   0.00
   5   7     0.00   0.00   0.03     0.30  -0.27   0.00    -0.07  -0.16   0.00
   6   6     0.00   0.00  -0.17    -0.17  -0.12   0.00    -0.31  -0.04   0.00
   7   1     0.00   0.00   0.98    -0.39   0.59   0.00    -0.13  -0.66   0.00
                     7                      8                      9
                    A'                     A'                     A'
 Frequencies --  1085.5748              1103.3428              1158.2555
 Red. masses --     2.9899                 5.4367                 1.8781
 Frc consts  --     2.0760                 3.8995                 1.4845
 IR Inten    --    27.8144                22.6764                10.9879
 Atom AN      X      Y      Z        X      Y      Z        X      Y      Z
   1   7    -0.04  -0.02   0.00     0.42   0.01   0.00    -0.13  -0.12   0.00
   2   7     0.31   0.14   0.00    -0.02   0.10   0.00     0.05  -0.05   0.00
   3   7    -0.15  -0.09   0.00     0.01  -0.20   0.00     0.14   0.02   0.00
   4   1    -0.74  -0.13   0.00     0.67  -0.17   0.00     0.51   0.04   0.00
   5   7    -0.03  -0.05   0.00    -0.31   0.02   0.00    -0.02   0.00   0.00
   6   6    -0.03  -0.02   0.00    -0.14   0.05   0.00    -0.07   0.10   0.00
   7   1    -0.20   0.50   0.00    -0.25   0.33   0.00    -0.28   0.77   0.00
                    10                     11                     12
                    A'                     A'                     A'
 Frequencies --  1289.5057              1331.0275              1486.2329
 Red. masses --     2.4767                10.5146                 3.3938
 Frc consts  --     2.4265                10.9753                 4.4168
 IR Inten    --     1.7025                17.6549                 9.9324
 Atom AN      X      Y      Z        X      Y      Z        X      Y      Z
   1   7    -0.07  -0.06   0.00    -0.04   0.57   0.00    -0.01  -0.02   0.00
   2   7     0.11   0.07   0.00     0.19  -0.50   0.00    -0.07   0.10   0.00
   3   7    -0.07  -0.11   0.00     0.15  -0.14   0.00     0.22  -0.14   0.00
   4   1     0.68  -0.08   0.00    -0.28  -0.20   0.00    -0.73  -0.22   0.00
   5   7     0.13   0.18   0.00    -0.03   0.13   0.00     0.07  -0.11   0.00
   6   6    -0.17  -0.03   0.00    -0.26  -0.07   0.00    -0.19   0.26   0.00
   7   1     0.00  -0.65   0.00    -0.36   0.10   0.00     0.01  -0.47   0.00
                    13                     14                     15
                    A'                     A'                     A'
 Frequencies --  1534.0280              3319.7975              3691.5910
 Red. masses --     3.7400                 1.1015                 1.0842
 Frc consts  --     5.1855                 7.1524                 8.7056
 IR Inten    --    17.5254                 2.2221               104.5776
 Atom AN      X      Y      Z        X      Y      Z        X      Y      Z
   1   7     0.06  -0.10   0.00     0.00   0.00   0.00     0.00   0.00   0.00
   2   7    -0.11   0.08   0.00     0.00   0.00   0.00     0.00   0.00   0.00
   3   7     0.17   0.04   0.00     0.00   0.00   0.00     0.01  -0.08   0.00
   4   1    -0.70  -0.01   0.00     0.01   0.02   0.00    -0.06   1.00   0.00
   5   7     0.05   0.23   0.00     0.00   0.00   0.00     0.00   0.00   0.00
   6   6    -0.11  -0.32   0.00     0.09   0.03   0.00     0.00   0.00   0.00
   7   1    -0.37   0.38   0.00    -0.95  -0.29   0.00     0.02   0.00   0.00

 -------------------
 - Thermochemistry -
 -------------------
 Temperature   298.150 Kelvin.  Pressure   1.00000 Atm.
 Atom  1 has atomic number  7 and mass  14.00307
 Atom  2 has atomic number  7 and mass  14.00307
 Atom  3 has atomic number  7 and mass  14.00307
 Atom  4 has atomic number  1 and mass   1.00783
 Atom  5 has atomic number  7 and mass  14.00307
 Atom  6 has atomic number  6 and mass  12.00000
 Atom  7 has atomic number  1 and mass   1.00783
 Molecular mass:    70.02795 amu.
 Principal axes and moments of inertia in atomic units:
                           1         2         3
     EIGENVALUES --   169.97287 172.53490 342.50777
           X            0.83025   0.55740   0.00000
           Y           -0.55740   0.83025   0.00000
           Z            0.00000   0.00000   1.00000
 This molecule is an asymmetric top.
 Rotational symmetry number  1.
 Rotational temperatures (Kelvin)      0.50957     0.50201     0.25288
 Rotational constants (GHZ):          10.61782    10.46015     5.26920
 Zero-point vibrational energy     124926.1 (Joules/Mol)
                                   29.85805 (Kcal/Mol)
 Warning -- explicit consideration of   1 degrees of freedom as
           vibrations may cause significant error
 Vibrational temperatures:    862.98   998.83  1064.85  1229.31  1413.10
          (Kelvin)           1461.73  1561.90  1587.46  1666.47  1855.31
                             1915.05  2138.36  2207.12  4776.44  5311.37
 
 Zero-point correction=                           0.047582 (Hartree/Particle)
 Thermal correction to Energy=                    0.051027
 Thermal correction to Enthalpy=                  0.051971
 Thermal correction to Gibbs Free Energy=         0.021510
 Sum of electronic and zero-point Energies=           -258.136104
 Sum of electronic and thermal Energies=              -258.132659
 Sum of electronic and thermal Enthalpies=            -258.131714
 Sum of electronic and thermal Free Energies=         -258.162175
 
                     E (Thermal)             CV                S
                      KCal/Mol        Cal/Mol-Kelvin    Cal/Mol-Kelvin
 Total                   32.020             11.146             64.111
 Electronic               0.000              0.000              0.000
 Translational            0.889              2.981             38.656
 Rotational               0.889              2.981             23.822
 Vibrational             30.242              5.185              1.632
 Vibration  1             0.958              1.032              0.450
                       Q            Log10(Q)             Ln(Q)
 Total Bot       0.127666D-09         -9.893924        -22.781601
 Total V=0       0.982090D+12         11.992151         27.612949
 Vib (Bot)       0.154491D-21        -21.811096        -50.221904
 Vib (Bot)  1    0.248998D+00         -0.603804         -1.390309
 Vib (V=0)       0.118845D+01          0.074979          0.172646
 Vib (V=0)  1    0.105857D+01          0.024719          0.056919
 Electronic      0.100000D+01          0.000000          0.000000
 Translational   0.230336D+08          7.362362         16.952466
 Rotational      0.358765D+05          4.554810         10.487837
 ***** Axes restored to original set *****
 -------------------------------------------------------------------
 Center     Atomic                   Forces (Hartrees/Bohr)
 Number     Number              X              Y              Z
 -------------------------------------------------------------------
    1          7           0.000131437   -0.000043385    0.000000000
    2          7          -0.000300014    0.000202107    0.000000000
    3          7           0.000079122   -0.000140045    0.000000000
    4          1          -0.000050079   -0.000007394    0.000000000
    5          7           0.000195446   -0.000009527    0.000000000
    6          6          -0.000061401   -0.000038582    0.000000000
    7          1           0.000005488    0.000036827    0.000000000
 -------------------------------------------------------------------
 Cartesian Forces:  Max     0.000300014 RMS     0.000103137

 GradGradGradGradGradGradGradGradGradGradGradGradGradGradGradGradGradGrad
 Berny optimization.
 Internal  Forces:  Max     0.000212715 RMS     0.000073244
 Search for a local minimum.
 Step number   1 out of a maximum of   2
 All quantities printed in internal units (Hartrees-Bohrs-Radians)
 Second derivative matrix not updated -- analytic derivatives used.
     Eigenvalues ---    0.00866   0.02525   0.07108   0.07754   0.10159
     Eigenvalues ---    0.10559   0.21130   0.26385   0.36182   0.38496
     Eigenvalues ---    0.44897   0.48045   0.49053   0.58799   0.64223
     Eigenvalues --- 1000.000001000.000001000.000001000.000001000.00000
     Eigenvalues --- 1000.000001000.000001000.000001000.000001000.00000
     Eigenvalues --- 1000.00000
 Angle between quadratic step and forces=  15.61 degrees.
 Linear search not attempted -- first point.
 Iteration  1 RMS(Cart)=  0.00013843 RMS(Int)=  0.00000002
 Iteration  2 RMS(Cart)=  0.00000002 RMS(Int)=  0.00000001
 Variable       Old X    -DE/DX   Delta X   Delta X   Delta X     New X
                                 (Linear)    (Quad)   (Total)
    R1        2.42872   0.00016   0.00000   0.00036   0.00036   2.42908
    R2        2.55308   0.00008   0.00000   0.00014   0.00014   2.55322
    R3        2.53345   0.00003   0.00000   0.00012   0.00012   2.53357
    R4        1.90503   0.00000   0.00000   0.00001   0.00001   1.90504
    R5        2.53416   0.00002   0.00000  -0.00011  -0.00011   2.53405
    R6        2.47868  -0.00010   0.00000  -0.00010  -0.00010   2.47857
    R7        2.03647   0.00001   0.00000   0.00004   0.00004   2.03651
    A1        1.94387   0.00013   0.00000   0.00026   0.00026   1.94413
    A2        1.85023  -0.00021   0.00000  -0.00046  -0.00046   1.84977
    A3        2.10222  -0.00007   0.00000  -0.00019  -0.00019   2.10204
    A4        1.89647   0.00012   0.00000   0.00028   0.00028   1.89675
    A5        2.28449  -0.00004   0.00000  -0.00009  -0.00009   2.28440
    A6        1.84733  -0.00008   0.00000  -0.00017  -0.00017   1.84716
    A7        1.88688   0.00005   0.00000   0.00009   0.00009   1.88697
    A8        2.18431  -0.00002   0.00000  -0.00009  -0.00009   2.18422
    A9        2.21200  -0.00002   0.00000   0.00000   0.00000   2.21200
    D1        0.00000   0.00000   0.00000   0.00000   0.00000   0.00000
    D2        0.00000   0.00000   0.00000   0.00000   0.00000   0.00000
    D3        3.14159   0.00000   0.00000   0.00000   0.00000   3.14159
    D4        0.00000   0.00000   0.00000   0.00000   0.00000   0.00000
    D5        0.00000   0.00000   0.00000   0.00000   0.00000   0.00000
    D6        3.14159   0.00000   0.00000   0.00000   0.00000   3.14159
    D7        3.14159   0.00000   0.00000   0.00000   0.00000   3.14159
    D8        0.00000   0.00000   0.00000   0.00000   0.00000   0.00000
    D9        0.00000   0.00000   0.00000   0.00000   0.00000   0.00000
   D10        3.14159   0.00000   0.00000   0.00000   0.00000   3.14159
         Item               Value     Threshold  Converged?
 Maximum Force            0.000213     0.000450     YES
 RMS     Force            0.000073     0.000300     YES
 Maximum Displacement     0.000443     0.001800     YES
 RMS     Displacement     0.000138     0.001200     YES
 Predicted change in Energy=-1.428839D-07
 Optimization completed.
    -- Stationary point found.
                           ----------------------------
                           !   Optimized Parameters   !
                           ! (Angstroms and Degrees)  !
 --------------------------                            --------------------------
 ! Name  Definition              Value          Derivative Info.                !
 --------------------------------------------------------------------------------
 ! R1    R(1,2)                  1.2852         -DE/DX =    0.0002              !
 ! R2    R(1,5)                  1.351          -DE/DX =    0.0001              !
 ! R3    R(2,3)                  1.3406         -DE/DX =    0.0                 !
 ! R4    R(3,4)                  1.0081         -DE/DX =    0.0                 !
 ! R5    R(3,6)                  1.341          -DE/DX =    0.0                 !
 ! R6    R(5,6)                  1.3117         -DE/DX =   -0.0001              !
 ! R7    R(6,7)                  1.0777         -DE/DX =    0.0                 !
 ! A1    A(2,1,5)              111.3755         -DE/DX =    0.0001              !
 ! A2    A(1,2,3)              106.0102         -DE/DX =   -0.0002              !
 ! A3    A(2,3,4)              120.4484         -DE/DX =   -0.0001              !
 ! A4    A(2,3,6)              108.6599         -DE/DX =    0.0001              !
 ! A5    A(4,3,6)              130.8917         -DE/DX =    0.0                 !
 ! A6    A(1,5,6)              105.8443         -DE/DX =   -0.0001              !
 ! A7    A(3,6,5)              108.11           -DE/DX =    0.0                 !
 ! A8    A(3,6,7)              125.1519         -DE/DX =    0.0                 !
 ! A9    A(5,6,7)              126.7381         -DE/DX =    0.0                 !
 ! D1    D(5,1,2,3)              0.0            -DE/DX =    0.0                 !
 ! D2    D(2,1,5,6)              0.0            -DE/DX =    0.0                 !
 ! D3    D(1,2,3,4)            180.0            -DE/DX =    0.0                 !
 ! D4    D(1,2,3,6)              0.0            -DE/DX =    0.0                 !
 ! D5    D(2,3,6,5)              0.0            -DE/DX =    0.0                 !
 ! D6    D(2,3,6,7)            180.0            -DE/DX =    0.0                 !
 ! D7    D(4,3,6,5)            180.0            -DE/DX =    0.0                 !
 ! D8    D(4,3,6,7)              0.0            -DE/DX =    0.0                 !
 ! D9    D(1,5,6,3)              0.0            -DE/DX =    0.0                 !
 ! D10   D(1,5,6,7)            180.0            -DE/DX =    0.0                 !
 --------------------------------------------------------------------------------
 GradGradGradGradGradGradGradGradGradGradGradGradGradGradGradGradGradGrad

 1|1|UNPC-UNK|Freq|RB1B95|6-31+G(d,p)|C1H2N4|PCUSER|10-Sep-2006|0||#N G
 EOM=ALLCHECK GUESS=READ SCRF=CHECK GENCHK RB1B95/6-31+G(D,P) FREQ||1ht
 z 1H-Tetrazole casno=288948 method=55 basis=4||0,1|N,-0.7169000552,-0.
 9226616272,0.|N,-1.1138327785,0.299731784,0.|N,-0.0023853334,1.0494061
 911,0.|H,-0.0648303858,2.0555688747,0.|N,0.6317724787,-1.0024571604,0.
 |C,1.0637879269,0.236014235,0.|H,2.0915226432,0.5602114019,0.||Version
 =x86-Win32-G03RevB.05|State=1-A'|HF=-258.1836855|RMSD=1.895e-009|RMSF=
 1.031e-004|Dipole=1.023462,1.9262767,0.|DipoleDeriv=0.2059607,-0.07777
 17,0.,-0.1431848,-0.1229737,0.,0.,0.,-0.1681087,-0.204093,0.3386342,0.
 ,0.3398867,0.1443793,0.,0.,0.,-0.1014125,-0.0570497,-0.155194,0.,-0.05
 4914,-0.5748672,0.,0.,0.,-0.1301197,0.2042434,-0.008241,0.,-0.0224364,
 0.2967321,0.,0.,0.,0.3445644,-0.4208892,0.0762086,0.,-0.0664729,-0.280
 0473,0.,0.,0.,-0.2036949,0.1932185,-0.144775,0.,-0.0282137,0.4387665,0
 .,0.,0.,0.0795231,0.0786092,-0.028861,0.,-0.024665,0.0980103,0.,0.,0.,
 0.1792483|Polar=43.1761256,0.409405,42.7430028,0.,0.,23.6272675|PG=CS 
 [SG(C1H2N4)]|NImag=0||0.45655781,0.04860085,0.61844043,0.,0.,0.1247631
 5,-0.13125460,0.05028617,0.,0.54858187,0.10687210,-0.34798776,0.,-0.09
 108237,0.53253068,0.,0.,-0.09678846,0.,0.,0.11449636,-0.02415138,-0.07
 918662,0.,-0.23267404,-0.06555731,0.,0.59438434,0.00065103,-0.15201775
 ,0.,-0.03266198,-0.12300229,0.,-0.08816330,1.03502019,0.,0.,0.02625285
 ,0.,0.,-0.06828100,0.,0.,0.09328037,-0.00891890,-0.01011914,0.,0.01532
 992,-0.02943251,0.,-0.07368887,0.03641201,0.,0.06022220,-0.00110966,0.
 00028552,0.,0.00546944,-0.01050729,0.,0.02875619,-0.46979061,0.,-0.026
 12527,0.48186544,0.,0.,0.00789721,0.,0.,-0.01186248,0.,0.,-0.00823739,
 0.,0.,0.01454537,-0.21770207,0.00684693,0.,-0.08688188,0.12269569,0.,0
 .01975230,-0.03378194,0.,-0.00643027,-0.00110440,0.,0.43179748,-0.0287
 4829,-0.10078489,0.,0.01338991,-0.03986881,0.,0.08495930,-0.10472160,0
 .,0.00854861,0.00050757,0.,0.01017884,0.62960092,0.,0.,-0.09046644,0.,
 0.,0.03597961,0.,0.,0.02036467,0.,0.,0.00763088,0.,0.,0.10960654,-0.07
 554292,-0.01791664,0.,-0.11283676,-0.04449422,0.,-0.27094793,0.1270184
 0,0.,0.01402573,-0.00626152,0.,-0.14030589,-0.08686283,0.,0.92918721,-
 0.12161687,-0.01256076,0.,0.05037500,-0.00527921,0.,0.09417179,-0.1983
 8474,0.,0.02101549,-0.00221509,0.,-0.07608870,-0.38488403,0.,0.1193372
 3,0.68592058,0.,0.,0.01939794,0.,0.,0.02005129,0.,0.,-0.06038165,0.,0.
 ,-0.00917770,0.,0.,-0.07794447,0.,0.,0.13736691,0.00101207,0.00148845,
 0.,-0.00026450,0.00099862,0.,-0.01267441,-0.00947422,0.,-0.00053981,0.
 00037523,0.,-0.00022967,-0.00146554,0.,-0.34357944,-0.08719394,0.,0.35
 627576,-0.00464915,-0.00537479,0.,0.00422383,-0.00588532,0.,0.02501996
 ,0.01289679,0.,-0.00029919,-0.00014553,0.,-0.02874642,0.00015084,0.,-0
 .09082043,-0.08259675,0.,0.09527140,0.08095478,0.,0.,0.00894374,0.,0.,
 0.00640467,0.,0.,-0.00299784,0.,0.,-0.00079589,0.,0.,-0.00517079,0.,0.
 ,-0.02931232,0.,0.,0.02292844||-0.00013144,0.00004338,0.,0.00030001,-0
 .00020211,0.,-0.00007912,0.00014005,0.,0.00005008,0.00000739,0.,-0.000
 19545,0.00000953,0.,0.00006140,0.00003858,0.,-0.00000549,-0.00003683,0
 .|||@


 BE CAREFUL NOT TO BECOME TOO GOOD OF A SONGBIRD OR 
 THEY'LL THROW YOU INTO A CAGE.

                                    -- SNOOPY TO WOODSTOCK
 Job cpu time:  0 days  0 hours  4 minutes 53.0 seconds.
 File lengths (MBytes):  RWF=     18 Int=      0 D2E=      0 Chk=      5 Scr=      1
 Normal termination of Gaussian 03 at Sun Sep 10 23:31:46 2006.
