 Entering Link 1 = C:\G03W\l1.exe PID=      2732.
  
 Copyright (c) 1988,1990,1992,1993,1995,1998,2003, Gaussian, Inc.
                  All Rights Reserved.
  
 This is the Gaussian(R) 03 program.  It is based on the
 the Gaussian(R) 98 system (copyright 1998, Gaussian, Inc.),
 the Gaussian(R) 94 system (copyright 1995, Gaussian, Inc.),
 the Gaussian 92(TM) system (copyright 1992, Gaussian, Inc.),
 the Gaussian 90(TM) system (copyright 1990, Gaussian, Inc.),
 the Gaussian 88(TM) system (copyright 1988, Gaussian, Inc.),
 the Gaussian 86(TM) system (copyright 1986, Carnegie Mellon
 University), and the Gaussian 82(TM) system (copyright 1983,
 Carnegie Mellon University). Gaussian is a federally registered
 trademark of Gaussian, Inc.
  
 This software contains proprietary and confidential information,
 including trade secrets, belonging to Gaussian, Inc.
  
 This software is provided under written license and may be
 used, copied, transmitted, or stored only in accord with that
 written license.
  
 The following legend is applicable only to US Government
 contracts under DFARS:
  
                    RESTRICTED RIGHTS LEGEND
  
 Use, duplication or disclosure by the US Government is subject
 to restrictions as set forth in subparagraph (c)(1)(ii) of the
 Rights in Technical Data and Computer Software clause at DFARS
 252.227-7013.
  
 Gaussian, Inc.
 Carnegie Office Park, Building 6, Pittsburgh, PA 15106 USA
  
 The following legend is applicable only to US Government
 contracts under FAR:
  
                    RESTRICTED RIGHTS LEGEND
  
 Use, reproduction and disclosure by the US Government is subject
 to restrictions as set forth in subparagraph (c) of the
 Commercial Computer Software - Restricted Rights clause at FAR
 52.227-19.
  
 Gaussian, Inc.
 Carnegie Office Park, Building 6, Pittsburgh, PA 15106 USA
  
  
 ---------------------------------------------------------------
 Warning -- This program may not be used in any manner that
 competes with the business of Gaussian, Inc. or will provide
 assistance to any competitor of Gaussian, Inc.  The licensee
 of this program is prohibited from giving any competitor of
 Gaussian, Inc. access to this program.  By using this program,
 the user acknowledges that Gaussian, Inc. is engaged in the
 business of creating and licensing software in the field of
 computational chemistry and represents and warrants to the
 licensee that it is not a competitor of Gaussian, Inc. and that
 it will not use this program in any manner prohibited above.
 ---------------------------------------------------------------
  

 Cite this work as:
 Gaussian 03, Revision B.05,
 M. J. Frisch, G. W. Trucks, H. B. Schlegel, G. E. Scuseria, 
 M. A. Robb, J. R. Cheeseman, J. A. Montgomery, Jr., T. Vreven, 
 K. N. Kudin, J. C. Burant, J. M. Millam, S. S. Iyengar, J. Tomasi, 
 V. Barone, B. Mennucci, M. Cossi, G. Scalmani, N. Rega, 
 G. A. Petersson, H. Nakatsuji, M. Hada, M. Ehara, K. Toyota, 
 R. Fukuda, J. Hasegawa, M. Ishida, T. Nakajima, Y. Honda, O. Kitao, 
 H. Nakai, M. Klene, X. Li, J. E. Knox, H. P. Hratchian, J. B. Cross, 
 C. Adamo, J. Jaramillo, R. Gomperts, R. E. Stratmann, O. Yazyev, 
 A. J. Austin, R. Cammi, C. Pomelli, J. W. Ochterski, P. Y. Ayala, 
 K. Morokuma, G. A. Voth, P. Salvador, J. J. Dannenberg, 
 V. G. Zakrzewski, S. Dapprich, A. D. Daniels, M. C. Strain, 
 O. Farkas, D. K. Malick, A. D. Rabuck, K. Raghavachari, 
 J. B. Foresman, J. V. Ortiz, Q. Cui, A. G. Baboul, S. Clifford, 
 J. Cioslowski, B. B. Stefanov, G. Liu, A. Liashenko, P. Piskorz, 
 I. Komaromi, R. L. Martin, D. J. Fox, T. Keith, M. A. Al-Laham, 
 C. Y. Peng, A. Nanayakkara, M. Challacombe, P. M. W. Gill, 
 B. Johnson, W. Chen, M. W. Wong, C. Gonzalez, and J. A. Pople, 
 Gaussian, Inc., Pittsburgh PA, 2003.
 
 **********************************************
 Gaussian 03:  x86-Win32-G03RevB.05  8-Nov-2003
                  08-Sep-2006 
 **********************************************
 %mem=24000000
 Default route:  MaxDisk=6000MB MP2=InCore
 ------------------------
 #B1B95/6-311G** OPT FREQ
 ------------------------
 1/14=-1,18=20,26=3,38=1/1,3;
 2/9=110,17=6,18=5,40=1/2;
 3/5=4,6=6,7=101,11=2,16=1,25=1,30=1,74=-17/1,2,3;
 4//1;
 5/5=2,38=5/2;
 6/7=2,8=2,9=2,10=2,28=1/1;
 7//1,2,3,16;
 1/14=-1,18=20/3(1);
 99//99;
 2/9=110/2;
 3/5=4,6=6,7=101,11=2,16=1,25=1,30=1,74=-17/1,2,3;
 4/5=5,16=3/1;
 5/5=2,38=5/2;
 7//1,2,3,16;
 1/14=-1,18=20/3(-5);
 2/9=110/2;
 6/7=2,8=2,9=2,10=2,19=2,28=1/1;
 99/9=1/99;
 ----------------------------------------------------------
 1H tetrazole c CH-NH-N=N-N= casno=288948 method=55 basis=7
 ----------------------------------------------------------
 Symbolic Z-matrix:
 Charge =  0 Multiplicity = 1
 N                    -1.03515   0.50502   0. 
 N                     0.04838   1.13258   0. 
 N                     1.01435   0.22395   0. 
 H                     1.96998   0.4979    0. 
 N                    -0.8321   -0.82085   0. 
 C                     0.44745  -0.97938   0. 
 H                     0.97699  -1.90657   0. 
 

 GradGradGradGradGradGradGradGradGradGradGradGradGradGradGradGradGradGrad
 Berny optimization.
 Initialization pass.
                           ----------------------------
                           !    Initial Parameters    !
                           ! (Angstroms and Degrees)  !
 --------------------------                            --------------------------
 ! Name  Definition              Value          Derivative Info.                !
 --------------------------------------------------------------------------------
 ! R1    R(1,2)                  1.2522         estimate D2E/DX2                !
 ! R2    R(1,5)                  1.3413         estimate D2E/DX2                !
 ! R3    R(2,3)                  1.3262         estimate D2E/DX2                !
 ! R4    R(3,4)                  0.9941         estimate D2E/DX2                !
 ! R5    R(3,6)                  1.3302         estimate D2E/DX2                !
 ! R6    R(5,6)                  1.2893         estimate D2E/DX2                !
 ! R7    R(6,7)                  1.0678         estimate D2E/DX2                !
 ! A1    A(2,1,5)              111.3714         estimate D2E/DX2                !
 ! A2    A(1,2,3)              106.673          estimate D2E/DX2                !
 ! A3    A(2,3,4)              120.7559         estimate D2E/DX2                !
 ! A4    A(2,3,6)              108.0227         estimate D2E/DX2                !
 ! A5    A(4,3,6)              131.2214         estimate D2E/DX2                !
 ! A6    A(1,5,6)              105.77           estimate D2E/DX2                !
 ! A7    A(3,6,5)              108.1628         estimate D2E/DX2                !
 ! A8    A(3,6,7)              125.0426         estimate D2E/DX2                !
 ! A9    A(5,6,7)              126.7945         estimate D2E/DX2                !
 ! D1    D(5,1,2,3)              0.0            estimate D2E/DX2                !
 ! D2    D(2,1,5,6)              0.0            estimate D2E/DX2                !
 ! D3    D(1,2,3,4)            180.0            estimate D2E/DX2                !
 ! D4    D(1,2,3,6)              0.0            estimate D2E/DX2                !
 ! D5    D(2,3,6,5)              0.0            estimate D2E/DX2                !
 ! D6    D(2,3,6,7)            180.0            estimate D2E/DX2                !
 ! D7    D(4,3,6,5)            180.0            estimate D2E/DX2                !
 ! D8    D(4,3,6,7)              0.0            estimate D2E/DX2                !
 ! D9    D(1,5,6,3)              0.0            estimate D2E/DX2                !
 ! D10   D(1,5,6,7)            180.0            estimate D2E/DX2                !
 --------------------------------------------------------------------------------
 Trust Radius=3.00D-01 FncErr=1.00D-07 GrdErr=1.00D-06
 Number of steps in this run=  36 maximum allowed number of steps= 100.
 GradGradGradGradGradGradGradGradGradGradGradGradGradGradGradGradGradGrad

                          Input orientation:                          
 ---------------------------------------------------------------------
 Center     Atomic     Atomic              Coordinates (Angstroms)
 Number     Number      Type              X           Y           Z
 ---------------------------------------------------------------------
    1          7             0       -1.035155    0.505017    0.000000
    2          7             0        0.048381    1.132585    0.000000
    3          7             0        1.014346    0.223952    0.000000
    4          1             0        1.969978    0.497900    0.000000
    5          7             0       -0.832095   -0.820848    0.000000
    6          6             0        0.447448   -0.979378    0.000000
    7          1             0        0.976994   -1.906573    0.000000
 ---------------------------------------------------------------------
                    Distance matrix (angstroms):
                    1          2          3          4          5
     1  N    0.000000
     2  N    1.252155   0.000000
     3  N    2.068684   1.326161   0.000000
     4  H    3.005141   2.023699   0.994122   0.000000
     5  N    1.341325   2.142694   2.121545   3.096887   0.000000
     6  C    2.097985   2.149335   1.330179   2.121426   1.289326
     7  H    3.140782   3.177861   2.130852   2.601444   2.109882
                    6          7
     6  C    0.000000
     7  H    1.067760   0.000000
 Stoichiometry    CH2N4
 Framework group  CS[SG(CH2N4)]
 Deg. of freedom    11
 Full point group                 CS      NOp   2
 Largest Abelian subgroup         CS      NOp   2
 Largest concise Abelian subgroup C1      NOp   1
                         Standard orientation:                         
 ---------------------------------------------------------------------
 Center     Atomic     Atomic              Coordinates (Angstroms)
 Number     Number      Type              X           Y           Z
 ---------------------------------------------------------------------
    1          7             0       -0.716312   -0.901934    0.000000
    2          7             0       -1.095520    0.291420    0.000000
    3          7             0        0.000000    1.038775    0.000000
    4          1             0       -0.061479    2.030994    0.000000
    5          7             0        0.622151   -0.989495    0.000000
    6          6             0        1.052813    0.225779    0.000000
    7          1             0        2.072370    0.542976    0.000000
 ---------------------------------------------------------------------
 Rotational constants (GHZ):     10.9198664     10.7343935      5.4131678
 Standard basis: 6-311G(d,p) (5D, 7F)
 There are    75 symmetry adapted basis functions of A'  symmetry.
 There are    27 symmetry adapted basis functions of A"  symmetry.
 Integral buffers will be    262144 words long.
 Raffenetti 2 integral format.
 Two-electron integral symmetry is turned on.
   102 basis functions,   176 primitive gaussians,   107 cartesian basis functions
    18 alpha electrons       18 beta electrons
       nuclear repulsion energy       169.8288291589 Hartrees.
 NAtoms=    7 NActive=    7 NUniq=    7 SFac= 1.00D+00 NAtFMM=   60 Big=F
 One-electron integrals computed using PRISM.
 NBasis=   102 RedAO= T  NBF=    75    27
 NBsUse=   102 1.00D-06 NBFU=    75    27
 Harris functional with IExCor=  411 diagonalized for initial guess.
 ExpMin= 1.03D-01 ExpMax= 6.29D+03 ExpMxC= 9.49D+02 IAcc=1 IRadAn=         1 AccDes= 1.00D-06
 HarFok:  IExCor= 411 AccDes= 1.00D-06 IRadAn=         1 IDoV=1
 ScaDFX=  1.000000  1.000000  1.000000  1.000000
 Initial guess orbital symmetries:
       Occupied  (A') (A') (A') (A') (A') (A') (A') (A') (A') (A')
                 (A') (A') (A") (A') (A") (A') (A") (A')
       Virtual   (A") (A") (A') (A') (A') (A') (A') (A') (A') (A')
                 (A") (A') (A') (A') (A') (A") (A') (A') (A") (A')
                 (A') (A") (A") (A') (A') (A') (A') (A') (A') (A")
                 (A') (A") (A') (A') (A") (A') (A") (A") (A') (A')
                 (A") (A') (A") (A') (A') (A') (A') (A') (A") (A")
                 (A') (A') (A") (A') (A') (A") (A') (A') (A") (A")
                 (A') (A') (A') (A') (A') (A') (A") (A') (A") (A')
                 (A") (A") (A') (A') (A') (A') (A') (A') (A') (A')
                 (A') (A') (A') (A')
 The electronic state of the initial guess is 1-A'.
 Requested convergence on RMS density matrix=1.00D-08 within 128 cycles.
 Requested convergence on MAX density matrix=1.00D-06.
 Requested convergence on             energy=1.00D-06.
 No special actions if energy rises.
 Keep R1 integrals in memory in canonical form, NReq=    17862147.
 Integral accuracy reduced to 1.0D-05 until final iterations.
 Initial convergence to 1.0D-05 achieved.  Increase integral accuracy.
 SCF Done:  E(RB+HF-B95) =  -258.229025190     A.U. after   14 cycles
             Convg  =    0.7798D-08             -V/T =  2.0009
             S**2   =   0.0000

 **********************************************************************

            Population analysis using the SCF density.

 **********************************************************************

 Orbital symmetries:
       Occupied  (A') (A') (A') (A') (A') (A') (A') (A') (A') (A')
                 (A') (A") (A') (A') (A") (A") (A') (A')
       Virtual   (A") (A") (A') (A') (A') (A') (A') (A') (A') (A")
                 (A') (A') (A') (A') (A') (A") (A') (A") (A') (A')
                 (A') (A") (A') (A") (A') (A') (A') (A') (A') (A")
                 (A') (A") (A') (A") (A') (A') (A") (A') (A") (A')
                 (A') (A") (A") (A') (A') (A') (A') (A') (A") (A")
                 (A') (A') (A') (A") (A') (A") (A') (A') (A") (A")
                 (A') (A') (A') (A') (A') (A') (A") (A') (A") (A')
                 (A") (A") (A') (A') (A') (A') (A') (A') (A') (A')
                 (A') (A') (A') (A')
 The electronic state is 1-A'.
 Alpha  occ. eigenvalues --  -14.49757 -14.46034 -14.44143 -14.41219 -10.31635
 Alpha  occ. eigenvalues --   -1.18726  -0.97412  -0.92320  -0.70029  -0.68742
 Alpha  occ. eigenvalues --   -0.61895  -0.52522  -0.51499  -0.39600  -0.34772
 Alpha  occ. eigenvalues --   -0.32755  -0.31221  -0.29691
 Alpha virt. eigenvalues --   -0.00809   0.03015   0.03786   0.08113   0.18879
 Alpha virt. eigenvalues --    0.20168   0.23084   0.30531   0.34901   0.39623
 Alpha virt. eigenvalues --    0.43218   0.44776   0.50669   0.56706   0.57269
 Alpha virt. eigenvalues --    0.57639   0.60598   0.61207   0.63622   0.66134
 Alpha virt. eigenvalues --    0.69771   0.70592   0.74691   0.75045   0.84177
 Alpha virt. eigenvalues --    0.86097   0.93494   0.98213   1.02054   1.04566
 Alpha virt. eigenvalues --    1.17982   1.20949   1.22691   1.35257   1.35345
 Alpha virt. eigenvalues --    1.50269   1.58541   1.62302   1.62657   1.75934
 Alpha virt. eigenvalues --    1.79196   1.80116   1.87403   1.88665   2.06943
 Alpha virt. eigenvalues --    2.13306   2.24299   2.26463   2.32813   2.34407
 Alpha virt. eigenvalues --    2.39954   2.46926   2.51135   2.52564   2.58524
 Alpha virt. eigenvalues --    2.63152   2.66524   2.78074   2.78531   2.80127
 Alpha virt. eigenvalues --    2.83513   2.88929   3.12754   3.16803   3.36006
 Alpha virt. eigenvalues --    3.48808   3.54069   3.57600   3.65882   3.80724
 Alpha virt. eigenvalues --    3.85658   3.94971   3.97462   4.00508   4.44579
 Alpha virt. eigenvalues --    4.60350   4.84534   5.00141   5.77605  23.96421
 Alpha virt. eigenvalues --   35.29739  35.56010  35.64062  35.70360
          Condensed to atoms (all electrons):
              1          2          3          4          5          6
     1  N    6.668468   0.305829  -0.069938   0.008105   0.317017  -0.145974
     2  N    0.305829   6.738366   0.219874  -0.025609  -0.100030  -0.119903
     3  N   -0.069938   0.219874   6.529612   0.348121  -0.064597   0.359633
     4  H    0.008105  -0.025609   0.348121   0.433766   0.008665  -0.032272
     5  N    0.317017  -0.100030  -0.064597   0.008665   6.617290   0.488112
     6  C   -0.145974  -0.119903   0.359633  -0.032272   0.488112   4.806011
     7  H    0.002746   0.003974  -0.031929  -0.000876  -0.020083   0.409611
              7
     1  N    0.002746
     2  N    0.003974
     3  N   -0.031929
     4  H   -0.000876
     5  N   -0.020083
     6  C    0.409611
     7  H    0.485539
 Mulliken atomic charges:
              1
     1  N   -0.086253
     2  N   -0.022502
     3  N   -0.290775
     4  H    0.260101
     5  N   -0.246374
     6  C    0.234784
     7  H    0.151019
 Sum of Mulliken charges=   0.00000
 Atomic charges with hydrogens summed into heavy atoms:
              1
     1  N   -0.086253
     2  N   -0.022502
     3  N   -0.030674
     4  H    0.000000
     5  N   -0.246374
     6  C    0.385803
     7  H    0.000000
 Sum of Mulliken charges=   0.00000
 Electronic spatial extent (au):  <R**2>=   244.0056
 Charge=     0.0000 electrons
 Dipole moment (field-independent basis, Debye):
    X=     2.4475    Y=     4.7344    Z=     0.0000  Tot=     5.3296
 Quadrupole moment (field-independent basis, Debye-Ang):
   XX=   -28.6802   YY=   -26.2721   ZZ=   -27.9298
   XY=     1.7448   XZ=     0.0000   YZ=     0.0000
 Traceless Quadrupole moment (field-independent basis, Debye-Ang):
   XX=    -1.0529   YY=     1.3553   ZZ=    -0.3024
   XY=     1.7448   XZ=     0.0000   YZ=     0.0000
 Octapole moment (field-independent basis, Debye-Ang**2):
  XXX=    11.4438  YYY=    21.8110  ZZZ=     0.0000  XYY=    -0.6123
  XXY=     4.4727  XXZ=     0.0000  XZZ=    -0.7643  YZZ=     0.5098
  YYZ=     0.0000  XYZ=     0.0000
 Hexadecapole moment (field-independent basis, Debye-Ang**3):
 XXXX=  -137.7805 YYYY=  -116.8806 ZZZZ=   -24.6455 XXXY=     6.3181
 XXXZ=     0.0000 YYYX=    -0.4678 YYYZ=     0.0000 ZZZX=     0.0000
 ZZZY=     0.0000 XXYY=   -51.8814 XXZZ=   -29.4158 YYZZ=   -27.7037
 XXYZ=     0.0000 YYXZ=     0.0000 ZZXY=    -0.1246
 N-N= 1.698288291589D+02 E-N=-9.435881595121D+02  KE= 2.579917583038D+02
 Symmetry A'   KE= 2.484377796167D+02
 Symmetry A"   KE= 9.553978687075D+00
 ***** Axes restored to original set *****
 -------------------------------------------------------------------
 Center     Atomic                   Forces (Hartrees/Bohr)
 Number     Number              X              Y              Z
 -------------------------------------------------------------------
    1          7          -0.030204587   -0.004299044    0.000000000
    2          7           0.019083022    0.028933759    0.000000000
    3          7           0.004810050   -0.001917283    0.000000000
    4          1           0.010860776    0.003298584    0.000000000
    5          7          -0.019286370   -0.012153224    0.000000000
    6          6           0.011623245   -0.008633765    0.000000000
    7          1           0.003113865   -0.005229028    0.000000000
 -------------------------------------------------------------------
 Cartesian Forces:  Max     0.030204587 RMS     0.012059610

 GradGradGradGradGradGradGradGradGradGradGradGradGradGradGradGradGradGrad
 Berny optimization.
 Internal  Forces:  Max     0.032954294 RMS     0.009469258
 Search for a local minimum.
 Step number   1 out of a maximum of  36
 All quantities printed in internal units (Hartrees-Bohrs-Radians)
 Second derivative matrix not updated -- first step.
     Eigenvalues ---    0.02505   0.02639   0.02674   0.02834   0.16000
     Eigenvalues ---    0.16000   0.22605   0.24688   0.37515   0.48737
     Eigenvalues ---    0.50885   0.56605   0.58506   0.66912   0.78894
     Eigenvalues --- 1000.000001000.000001000.000001000.000001000.00000
     Eigenvalues --- 1000.000001000.000001000.000001000.000001000.00000
     Eigenvalues --- 1000.00000
 RFO step:  Lambda=-3.38531171D-03.
 Linear search not attempted -- first point.
 Iteration  1 RMS(Cart)=  0.01471024 RMS(Int)=  0.00002649
 Iteration  2 RMS(Cart)=  0.00002518 RMS(Int)=  0.00000875
 Iteration  3 RMS(Cart)=  0.00000000 RMS(Int)=  0.00000875
 Variable       Old X    -DE/DX   Delta X   Delta X   Delta X     New X
                                 (Linear)    (Quad)   (Total)
    R1        2.36623   0.03295   0.00000   0.04107   0.04108   2.40731
    R2        2.53474   0.01308   0.00000   0.02402   0.02402   2.55876
    R3        2.50608   0.01462   0.00000   0.02406   0.02407   2.53015
    R4        1.87862   0.01135   0.00000   0.02313   0.02313   1.90175
    R5        2.51367   0.01468   0.00000   0.02283   0.02281   2.53649
    R6        2.43647   0.02130   0.00000   0.02926   0.02925   2.46572
    R7        2.01777   0.00608   0.00000   0.01606   0.01606   2.03384
    A1        1.94380  -0.00097   0.00000   0.00330   0.00332   1.94712
    A2        1.86179  -0.00284   0.00000  -0.00691  -0.00689   1.85491
    A3        2.10759  -0.00113   0.00000  -0.00286  -0.00285   2.10474
    A4        1.88535   0.00197   0.00000   0.00394   0.00393   1.88928
    A5        2.29025  -0.00084   0.00000  -0.00108  -0.00108   2.28917
    A6        1.84604  -0.00074   0.00000  -0.00438  -0.00439   1.84164
    A7        1.88780   0.00257   0.00000   0.00405   0.00403   1.89183
    A8        2.18241  -0.00137   0.00000  -0.00256  -0.00255   2.17986
    A9        2.21298  -0.00120   0.00000  -0.00150  -0.00149   2.21150
    D1        0.00000   0.00000   0.00000   0.00000   0.00000   0.00000
    D2        0.00000   0.00000   0.00000   0.00000   0.00000   0.00000
    D3        3.14159   0.00000   0.00000   0.00000   0.00000   3.14159
    D4        0.00000   0.00000   0.00000   0.00000   0.00000   0.00000
    D5        0.00000   0.00000   0.00000   0.00000   0.00000   0.00000
    D6        3.14159   0.00000   0.00000   0.00000   0.00000   3.14159
    D7        3.14159   0.00000   0.00000   0.00000   0.00000   3.14159
    D8        0.00000   0.00000   0.00000   0.00000   0.00000   0.00000
    D9        0.00000   0.00000   0.00000   0.00000   0.00000   0.00000
   D10        3.14159   0.00000   0.00000   0.00000   0.00000   3.14159
         Item               Value     Threshold  Converged?
 Maximum Force            0.032954     0.000450     NO 
 RMS     Force            0.009469     0.000300     NO 
 Maximum Displacement     0.034635     0.001800     NO 
 RMS     Displacement     0.014704     0.001200     NO 
 Predicted change in Energy=-1.701197D-03
 GradGradGradGradGradGradGradGradGradGradGradGradGradGradGradGradGradGrad

                          Input orientation:                          
 ---------------------------------------------------------------------
 Center     Atomic     Atomic              Coordinates (Angstroms)
 Number     Number      Type              X           Y           Z
 ---------------------------------------------------------------------
    1          7             0       -1.051473    0.508354    0.000000
    2          7             0        0.049352    1.149440    0.000000
    3          7             0        1.020449    0.227694    0.000000
    4          1             0        1.988306    0.503412    0.000000
    5          7             0       -0.847747   -0.830268    0.000000
    6          6             0        0.447704   -0.986227    0.000000
    7          1             0        0.983305   -1.919751    0.000000
 ---------------------------------------------------------------------
                    Distance matrix (angstroms):
                    1          2          3          4          5
     1  N    0.000000
     2  N    1.273895   0.000000
     3  N    2.090845   1.338897   0.000000
     4  H    3.039783   2.043745   1.006363   0.000000
     5  N    1.354036   2.173483   2.146960   3.133990   0.000000
     6  C    2.116909   2.172500   1.342252   2.143007   1.304805
     7  H    3.167967   3.208146   2.147766   2.623309   2.130663
                    6          7
     6  C    0.000000
     7  H    1.076260   0.000000
 Stoichiometry    CH2N4
 Framework group  CS[SG(CH2N4)]
 Deg. of freedom    11
 Full point group                 CS      NOp   2
 Largest Abelian subgroup         CS      NOp   2
 Largest concise Abelian subgroup C1      NOp   1
                         Standard orientation:                         
 ---------------------------------------------------------------------
 Center     Atomic     Atomic              Coordinates (Angstroms)
 Number     Number      Type              X           Y           Z
 ---------------------------------------------------------------------
    1          7             0       -0.720785   -0.913436    0.000000
    2          7             0       -1.109444    0.299722    0.000000
    3          7             0        0.000000    1.049241    0.000000
    4          1             0       -0.060555    2.053781    0.000000
    5          7             0        0.630278   -1.003120    0.000000
    6          6             0        1.061880    0.228235    0.000000
    7          1             0        2.088928    0.549962    0.000000
 ---------------------------------------------------------------------
 Rotational constants (GHZ):     10.6915135     10.4822659      5.2929279
 Standard basis: 6-311G(d,p) (5D, 7F)
 There are    75 symmetry adapted basis functions of A'  symmetry.
 There are    27 symmetry adapted basis functions of A"  symmetry.
 Integral buffers will be    262144 words long.
 Raffenetti 2 integral format.
 Two-electron integral symmetry is turned on.
   102 basis functions,   176 primitive gaussians,   107 cartesian basis functions
    18 alpha electrons       18 beta electrons
       nuclear repulsion energy       167.9155820759 Hartrees.
 NAtoms=    7 NActive=    7 NUniq=    7 SFac= 1.00D+00 NAtFMM=   60 Big=F
 One-electron integrals computed using PRISM.
 NBasis=   102 RedAO= T  NBF=    75    27
 NBsUse=   102 1.00D-06 NBFU=    75    27
 Initial guess read from the read-write file:
 Initial guess orbital symmetries:
       Occupied  (A') (A') (A') (A') (A') (A') (A') (A') (A') (A')
                 (A') (A") (A') (A') (A") (A") (A') (A')
       Virtual   (A") (A") (A') (A') (A') (A') (A') (A') (A') (A")
                 (A') (A') (A') (A') (A') (A") (A') (A") (A') (A')
                 (A') (A") (A') (A") (A') (A') (A') (A') (A') (A")
                 (A') (A") (A') (A") (A') (A') (A") (A') (A") (A')
                 (A') (A") (A") (A') (A') (A') (A') (A') (A") (A")
                 (A') (A') (A') (A") (A') (A") (A') (A') (A") (A")
                 (A') (A') (A') (A') (A') (A') (A") (A') (A") (A')
                 (A") (A") (A') (A') (A') (A') (A') (A') (A') (A')
                 (A') (A') (A') (A')
 Harris functional with IExCor=  411 diagonalized for initial guess.
 ExpMin= 1.03D-01 ExpMax= 6.29D+03 ExpMxC= 9.49D+02 IAcc=1 IRadAn=         1 AccDes= 1.00D-06
 HarFok:  IExCor= 411 AccDes= 1.00D-06 IRadAn=         1 IDoV=1
 ScaDFX=  1.000000  1.000000  1.000000  1.000000
 Requested convergence on RMS density matrix=1.00D-08 within 128 cycles.
 Requested convergence on MAX density matrix=1.00D-06.
 Requested convergence on             energy=1.00D-06.
 No special actions if energy rises.
 Keep R1 integrals in memory in canonical form, NReq=    17862147.
 Integral accuracy reduced to 1.0D-05 until final iterations.
 Initial convergence to 1.0D-05 achieved.  Increase integral accuracy.
 SCF Done:  E(RB+HF-B95) =  -258.230816781     A.U. after   12 cycles
             Convg  =    0.5844D-08             -V/T =  2.0019
             S**2   =   0.0000
 ***** Axes restored to original set *****
 -------------------------------------------------------------------
 Center     Atomic                   Forces (Hartrees/Bohr)
 Number     Number              X              Y              Z
 -------------------------------------------------------------------
    1          7          -0.005638078   -0.002699155    0.000000000
    2          7           0.004657481    0.004272823    0.000000000
    3          7          -0.001211068   -0.002709019    0.000000000
    4          1          -0.000089549   -0.000035062    0.000000000
    5          7          -0.000337783    0.000596473    0.000000000
    6          6           0.002621777    0.000338910    0.000000000
    7          1          -0.000002779    0.000235030    0.000000000
 -------------------------------------------------------------------
 Cartesian Forces:  Max     0.005638078 RMS     0.002130850

 GradGradGradGradGradGradGradGradGradGradGradGradGradGradGradGradGradGrad
 Berny optimization.
 Internal  Forces:  Max     0.005377847 RMS     0.001258603
 Search for a local minimum.
 Step number   2 out of a maximum of  36
 All quantities printed in internal units (Hartrees-Bohrs-Radians)
 Update second derivatives using D2CorX and points  1  2
 Trust test= 1.05D+00 RLast= 7.17D-02 DXMaxT set to 3.00D-01
     Eigenvalues ---    0.02506   0.02639   0.02674   0.02834   0.15999
     Eigenvalues ---    0.16001   0.22535   0.24762   0.37669   0.48855
     Eigenvalues ---    0.50736   0.55775   0.61069   0.66823   0.71495
     Eigenvalues --- 1000.000001000.000001000.000001000.000001000.00000
     Eigenvalues --- 1000.000001000.000001000.000001000.000001000.00000
     Eigenvalues --- 1000.00000
 RFO step:  Lambda=-5.37981130D-05.
 Quartic linear search produced a step of  0.08666.
 Iteration  1 RMS(Cart)=  0.00220632 RMS(Int)=  0.00000358
 Iteration  2 RMS(Cart)=  0.00000292 RMS(Int)=  0.00000165
 Iteration  3 RMS(Cart)=  0.00000000 RMS(Int)=  0.00000165
 Variable       Old X    -DE/DX   Delta X   Delta X   Delta X     New X
                                 (Linear)    (Quad)   (Total)
    R1        2.40731   0.00538   0.00356   0.00484   0.00840   2.41572
    R2        2.55876   0.00007   0.00208  -0.00099   0.00109   2.55985
    R3        2.53015   0.00116   0.00209   0.00054   0.00262   2.53277
    R4        1.90175  -0.00009   0.00200  -0.00171   0.00030   1.90205
    R5        2.53649  -0.00156   0.00198  -0.00505  -0.00307   2.53341
    R6        2.46572   0.00133   0.00253  -0.00028   0.00225   2.46797
    R7        2.03384  -0.00021   0.00139  -0.00162  -0.00023   2.03361
    A1        1.94712  -0.00134   0.00029  -0.00312  -0.00283   1.94429
    A2        1.85491  -0.00108  -0.00060  -0.00237  -0.00296   1.85194
    A3        2.10474  -0.00062  -0.00025  -0.00190  -0.00215   2.10259
    A4        1.88928   0.00132   0.00034   0.00438   0.00472   1.89400
    A5        2.28917  -0.00069  -0.00009  -0.00248  -0.00257   2.28660
    A6        1.84164   0.00102  -0.00038   0.00398   0.00359   1.84524
    A7        1.89183   0.00009   0.00035  -0.00287  -0.00252   1.88931
    A8        2.17986  -0.00013  -0.00022   0.00087   0.00065   2.18051
    A9        2.21150   0.00004  -0.00013   0.00200   0.00187   2.21337
    D1        0.00000   0.00000   0.00000   0.00000   0.00000   0.00000
    D2        0.00000   0.00000   0.00000   0.00000   0.00000   0.00000
    D3        3.14159   0.00000   0.00000   0.00000   0.00000   3.14159
    D4        0.00000   0.00000   0.00000   0.00000   0.00000   0.00000
    D5        0.00000   0.00000   0.00000   0.00000   0.00000   0.00000
    D6        3.14159   0.00000   0.00000   0.00000   0.00000   3.14159
    D7        3.14159   0.00000   0.00000   0.00000   0.00000   3.14159
    D8        0.00000   0.00000   0.00000   0.00000   0.00000   0.00000
    D9        0.00000   0.00000   0.00000   0.00000   0.00000   0.00000
   D10        3.14159   0.00000   0.00000   0.00000   0.00000   3.14159
         Item               Value     Threshold  Converged?
 Maximum Force            0.005378     0.000450     NO 
 RMS     Force            0.001259     0.000300     NO 
 Maximum Displacement     0.005975     0.001800     NO 
 RMS     Displacement     0.002206     0.001200     NO 
 Predicted change in Energy=-3.726730D-05
 GradGradGradGradGradGradGradGradGradGradGradGradGradGradGradGradGradGrad

                          Input orientation:                          
 ---------------------------------------------------------------------
 Center     Atomic     Atomic              Coordinates (Angstroms)
 Number     Number      Type              X           Y           Z
 ---------------------------------------------------------------------
    1          7             0       -1.054635    0.509113    0.000000
    2          7             0        0.050166    1.152207    0.000000
    3          7             0        1.019339    0.226427    0.000000
    4          1             0        1.987630    0.501200    0.000000
    5          7             0       -0.847313   -0.829542    0.000000
    6          6             0        0.449166   -0.986906    0.000000
    7          1             0        0.985542   -1.919844    0.000000
 ---------------------------------------------------------------------
                    Distance matrix (angstroms):
                    1          2          3          4          5
     1  N    0.000000
     2  N    1.278342   0.000000
     3  N    2.093151   1.340285   0.000000
     4  H    3.042275   2.043912   1.006522   0.000000
     5  N    1.354614   2.175500   2.144636   3.131737   0.000000
     6  C    2.121201   2.176008   1.340625   2.140404   1.305995
     7  H    3.172090   3.211297   2.146537   2.620235   2.132631
                    6          7
     6  C    0.000000
     7  H    1.076138   0.000000
 Stoichiometry    CH2N4
 Framework group  CS[SG(CH2N4)]
 Deg. of freedom    11
 Full point group                 CS      NOp   2
 Largest Abelian subgroup         CS      NOp   2
 Largest concise Abelian subgroup C1      NOp   1
                         Standard orientation:                         
 ---------------------------------------------------------------------
 Center     Atomic     Atomic              Coordinates (Angstroms)
 Number     Number      Type              X           Y           Z
 ---------------------------------------------------------------------
    1          7             0       -0.720475   -0.917155    0.000000
    2          7             0       -1.111930    0.299776    0.000000
    3          7             0        0.000000    1.048092    0.000000
    4          1             0       -0.060933    2.052768    0.000000
    5          7             0        0.631514   -1.001457    0.000000
    6          6             0        1.062997    0.231200    0.000000
    7          1             0        2.089190    0.555236    0.000000
 ---------------------------------------------------------------------
 Rotational constants (GHZ):     10.6653445     10.4736524      5.2843147
 Standard basis: 6-311G(d,p) (5D, 7F)
 There are    75 symmetry adapted basis functions of A'  symmetry.
 There are    27 symmetry adapted basis functions of A"  symmetry.
 Integral buffers will be    262144 words long.
 Raffenetti 2 integral format.
 Two-electron integral symmetry is turned on.
   102 basis functions,   176 primitive gaussians,   107 cartesian basis functions
    18 alpha electrons       18 beta electrons
       nuclear repulsion energy       167.7699727716 Hartrees.
 NAtoms=    7 NActive=    7 NUniq=    7 SFac= 1.00D+00 NAtFMM=   60 Big=F
 One-electron integrals computed using PRISM.
 NBasis=   102 RedAO= T  NBF=    75    27
 NBsUse=   102 1.00D-06 NBFU=    75    27
 Initial guess read from the read-write file:
 Initial guess orbital symmetries:
       Occupied  (A') (A') (A') (A') (A') (A') (A') (A') (A') (A')
                 (A') (A") (A') (A') (A") (A") (A') (A')
       Virtual   (A") (A") (A') (A') (A') (A') (A') (A') (A') (A")
                 (A') (A') (A') (A') (A') (A") (A') (A") (A') (A')
                 (A') (A") (A') (A") (A') (A') (A') (A') (A') (A")
                 (A') (A") (A') (A") (A') (A') (A") (A') (A") (A')
                 (A') (A") (A") (A') (A') (A') (A') (A') (A") (A")
                 (A') (A') (A') (A") (A') (A") (A') (A') (A") (A")
                 (A') (A') (A') (A') (A') (A') (A") (A') (A") (A')
                 (A") (A') (A") (A') (A') (A') (A') (A') (A') (A')
                 (A') (A') (A') (A')
 Requested convergence on RMS density matrix=1.00D-08 within 128 cycles.
 Requested convergence on MAX density matrix=1.00D-06.
 Requested convergence on             energy=1.00D-06.
 No special actions if energy rises.
 Keep R1 integrals in memory in canonical form, NReq=    17862147.
 SCF Done:  E(RB+HF-B95) =  -258.230858838     A.U. after    9 cycles
             Convg  =    0.8169D-08             -V/T =  2.0019
             S**2   =   0.0000
 ***** Axes restored to original set *****
 -------------------------------------------------------------------
 Center     Atomic                   Forces (Hartrees/Bohr)
 Number     Number              X              Y              Z
 -------------------------------------------------------------------
    1          7          -0.000719691   -0.002522825    0.000000000
    2          7           0.001984265    0.000526332    0.000000000
    3          7          -0.000437752   -0.000170689    0.000000000
    4          1          -0.000164269    0.000022587    0.000000000
    5          7          -0.000919566    0.000809367    0.000000000
    6          6           0.000359640    0.001199077    0.000000000
    7          1          -0.000102626    0.000136151    0.000000000
 -------------------------------------------------------------------
 Cartesian Forces:  Max     0.002522825 RMS     0.000829287

 GradGradGradGradGradGradGradGradGradGradGradGradGradGradGradGradGradGrad
 Berny optimization.
 Internal  Forces:  Max     0.001639452 RMS     0.000535319
 Search for a local minimum.
 Step number   3 out of a maximum of  36
 All quantities printed in internal units (Hartrees-Bohrs-Radians)
 Update second derivatives using D2CorX and points  1  2  3
 Trust test= 1.13D+00 RLast= 1.29D-02 DXMaxT set to 3.00D-01
     Eigenvalues ---    0.02505   0.02638   0.02674   0.02834   0.15997
     Eigenvalues ---    0.16021   0.22689   0.27683   0.37671   0.41860
     Eigenvalues ---    0.49398   0.52008   0.62347   0.66529   0.71838
     Eigenvalues --- 1000.000001000.000001000.000001000.000001000.00000
     Eigenvalues --- 1000.000001000.000001000.000001000.000001000.00000
     Eigenvalues --- 1000.00000
 RFO step:  Lambda=-1.64345899D-05.
 Quartic linear search produced a step of  0.10218.
 Iteration  1 RMS(Cart)=  0.00119142 RMS(Int)=  0.00000071
 Iteration  2 RMS(Cart)=  0.00000072 RMS(Int)=  0.00000017
 Variable       Old X    -DE/DX   Delta X   Delta X   Delta X     New X
                                 (Linear)    (Quad)   (Total)
    R1        2.41572   0.00164   0.00086   0.00341   0.00427   2.41999
    R2        2.55985  -0.00149   0.00011  -0.00254  -0.00242   2.55743
    R3        2.53277  -0.00091   0.00027  -0.00120  -0.00093   2.53185
    R4        1.90205  -0.00015   0.00003  -0.00015  -0.00012   1.90193
    R5        2.53341  -0.00060  -0.00031  -0.00140  -0.00172   2.53170
    R6        2.46797   0.00029   0.00023   0.00077   0.00100   2.46897
    R7        2.03361  -0.00017  -0.00002  -0.00042  -0.00044   2.03316
    A1        1.94429   0.00033  -0.00029   0.00180   0.00151   1.94580
    A2        1.85194  -0.00038  -0.00030  -0.00147  -0.00177   1.85018
    A3        2.10259   0.00000  -0.00022  -0.00009  -0.00031   2.10228
    A4        1.89400  -0.00009   0.00048  -0.00033   0.00015   1.89415
    A5        2.28660   0.00008  -0.00026   0.00042   0.00016   2.28676
    A6        1.84524  -0.00053   0.00037  -0.00235  -0.00198   1.84325
    A7        1.88931   0.00067  -0.00026   0.00235   0.00209   1.89140
    A8        2.18051  -0.00028   0.00007  -0.00091  -0.00084   2.17967
    A9        2.21337  -0.00038   0.00019  -0.00144  -0.00125   2.21211
    D1        0.00000   0.00000   0.00000   0.00000   0.00000   0.00000
    D2        0.00000   0.00000   0.00000   0.00000   0.00000   0.00000
    D3        3.14159   0.00000   0.00000   0.00000   0.00000   3.14159
    D4        0.00000   0.00000   0.00000   0.00000   0.00000   0.00000
    D5        0.00000   0.00000   0.00000   0.00000   0.00000   0.00000
    D6        3.14159   0.00000   0.00000   0.00000   0.00000   3.14159
    D7        3.14159   0.00000   0.00000   0.00000   0.00000   3.14159
    D8        0.00000   0.00000   0.00000   0.00000   0.00000   0.00000
    D9        0.00000   0.00000   0.00000   0.00000   0.00000   0.00000
   D10        3.14159   0.00000   0.00000   0.00000   0.00000   3.14159
         Item               Value     Threshold  Converged?
 Maximum Force            0.001639     0.000450     NO 
 RMS     Force            0.000535     0.000300     NO 
 Maximum Displacement     0.003348     0.001800     NO 
 RMS     Displacement     0.001192     0.001200     YES
 Predicted change in Energy=-8.620525D-06
 GradGradGradGradGradGradGradGradGradGradGradGradGradGradGradGradGradGrad

                          Input orientation:                          
 ---------------------------------------------------------------------
 Center     Atomic     Atomic              Coordinates (Angstroms)
 Number     Number      Type              X           Y           Z
 ---------------------------------------------------------------------
    1          7             0       -1.054714    0.507341    0.000000
    2          7             0        0.051433    1.152616    0.000000
    3          7             0        1.019488    0.226375    0.000000
    4          1             0        1.987858    0.500633    0.000000
    5          7             0       -0.848343   -0.830163    0.000000
    6          6             0        0.448881   -0.985751    0.000000
    7          1             0        0.985294   -1.918396    0.000000
 ---------------------------------------------------------------------
                    Distance matrix (angstroms):
                    1          2          3          4          5
     1  N    0.000000
     2  N    1.280602   0.000000
     3  N    2.093145   1.339795   0.000000
     4  H    3.042580   2.043238   1.006458   0.000000
     5  N    1.353332   2.177386   2.145942   3.132899   0.000000
     6  C    2.118991   2.174989   1.339717   2.139576   1.306522
     7  H    3.169516   3.209861   2.145044   2.618556   2.132246
                    6          7
     6  C    0.000000
     7  H    1.075902   0.000000
 Stoichiometry    CH2N4
 Framework group  CS[SG(CH2N4)]
 Deg. of freedom    11
 Full point group                 CS      NOp   2
 Largest Abelian subgroup         CS      NOp   2
 Largest concise Abelian subgroup C1      NOp   1
                         Standard orientation:                         
 ---------------------------------------------------------------------
 Center     Atomic     Atomic              Coordinates (Angstroms)
 Number     Number      Type              X           Y           Z
 ---------------------------------------------------------------------
    1          7             0       -0.719022   -0.917520    0.000000
    2          7             0       -1.112207    0.301229    0.000000
    3          7             0        0.000000    1.048253    0.000000
    4          1             0       -0.060322    2.052902    0.000000
    5          7             0        0.631631   -1.002626    0.000000
    6          6             0        1.061651    0.231100    0.000000
    7          1             0        2.087596    0.555142    0.000000
 ---------------------------------------------------------------------
 Rotational constants (GHZ):     10.6694707     10.4698062      5.2843478
 Standard basis: 6-311G(d,p) (5D, 7F)
 There are    75 symmetry adapted basis functions of A'  symmetry.
 There are    27 symmetry adapted basis functions of A"  symmetry.
 Integral buffers will be    262144 words long.
 Raffenetti 2 integral format.
 Two-electron integral symmetry is turned on.
   102 basis functions,   176 primitive gaussians,   107 cartesian basis functions
    18 alpha electrons       18 beta electrons
       nuclear repulsion energy       167.7664286962 Hartrees.
 NAtoms=    7 NActive=    7 NUniq=    7 SFac= 1.00D+00 NAtFMM=   60 Big=F
 One-electron integrals computed using PRISM.
 NBasis=   102 RedAO= T  NBF=    75    27
 NBsUse=   102 1.00D-06 NBFU=    75    27
 Initial guess read from the read-write file:
 Initial guess orbital symmetries:
       Occupied  (A') (A') (A') (A') (A') (A') (A') (A') (A') (A')
                 (A') (A") (A') (A') (A") (A") (A') (A')
       Virtual   (A") (A") (A') (A') (A') (A') (A') (A') (A') (A")
                 (A') (A') (A') (A') (A') (A") (A') (A") (A') (A')
                 (A') (A") (A') (A") (A') (A') (A') (A') (A') (A")
                 (A') (A") (A') (A") (A') (A') (A") (A') (A") (A')
                 (A') (A") (A") (A') (A') (A') (A') (A') (A") (A")
                 (A') (A') (A') (A") (A') (A") (A') (A') (A") (A")
                 (A') (A') (A') (A') (A') (A') (A") (A') (A") (A')
                 (A") (A') (A") (A') (A') (A') (A') (A') (A') (A')
                 (A') (A') (A') (A')
 Requested convergence on RMS density matrix=1.00D-08 within 128 cycles.
 Requested convergence on MAX density matrix=1.00D-06.
 Requested convergence on             energy=1.00D-06.
 No special actions if energy rises.
 Keep R1 integrals in memory in canonical form, NReq=    17862147.
 SCF Done:  E(RB+HF-B95) =  -258.230866605     A.U. after    9 cycles
             Convg  =    0.4430D-08             -V/T =  2.0019
             S**2   =   0.0000
 ***** Axes restored to original set *****
 -------------------------------------------------------------------
 Center     Atomic                   Forces (Hartrees/Bohr)
 Number     Number              X              Y              Z
 -------------------------------------------------------------------
    1          7          -0.000062345   -0.000566399    0.000000000
    2          7          -0.000012350   -0.000645827    0.000000000
    3          7          -0.000527055    0.000160861    0.000000000
    4          1          -0.000073536   -0.000052762    0.000000000
    5          7           0.000244400    0.001338875    0.000000000
    6          6           0.000409647   -0.000197802    0.000000000
    7          1           0.000021240   -0.000036947    0.000000000
 -------------------------------------------------------------------
 Cartesian Forces:  Max     0.001338875 RMS     0.000385132

 GradGradGradGradGradGradGradGradGradGradGradGradGradGradGradGradGradGrad
 Berny optimization.
 Internal  Forces:  Max     0.000860816 RMS     0.000262455
 Search for a local minimum.
 Step number   4 out of a maximum of  36
 All quantities printed in internal units (Hartrees-Bohrs-Radians)
 Update second derivatives using D2CorX and points  1  2  3  4
 Trust test= 9.01D-01 RLast= 6.73D-03 DXMaxT set to 3.00D-01
     Eigenvalues ---    0.02506   0.02638   0.02675   0.02834   0.15984
     Eigenvalues ---    0.16025   0.22469   0.29013   0.37564   0.40576
     Eigenvalues ---    0.48787   0.52686   0.63550   0.65327   0.71725
     Eigenvalues --- 1000.000001000.000001000.000001000.000001000.00000
     Eigenvalues --- 1000.000001000.000001000.000001000.000001000.00000
     Eigenvalues --- 1000.00000
 RFO step:  Lambda=-3.81117968D-06.
 Quartic linear search produced a step of -0.08481.
 Iteration  1 RMS(Cart)=  0.00051178 RMS(Int)=  0.00000024
 Iteration  2 RMS(Cart)=  0.00000021 RMS(Int)=  0.00000011
 Variable       Old X    -DE/DX   Delta X   Delta X   Delta X     New X
                                 (Linear)    (Quad)   (Total)
    R1        2.41999  -0.00030  -0.00036   0.00084   0.00048   2.42046
    R2        2.55743  -0.00086   0.00021  -0.00210  -0.00189   2.55553
    R3        2.53185  -0.00031   0.00008  -0.00071  -0.00063   2.53121
    R4        1.90193  -0.00008   0.00001  -0.00015  -0.00014   1.90179
    R5        2.53170  -0.00038   0.00015  -0.00094  -0.00080   2.53090
    R6        2.46897   0.00001  -0.00008   0.00036   0.00027   2.46924
    R7        2.03316   0.00004   0.00004   0.00000   0.00003   2.03320
    A1        1.94580  -0.00033  -0.00013  -0.00097  -0.00110   1.94469
    A2        1.85018   0.00024   0.00015   0.00027   0.00042   1.85060
    A3        2.10228   0.00004   0.00003   0.00008   0.00011   2.10239
    A4        1.89415   0.00002  -0.00001   0.00031   0.00029   1.89444
    A5        2.28676  -0.00007  -0.00001  -0.00039  -0.00040   2.28635
    A6        1.84325   0.00051   0.00017   0.00129   0.00146   1.84471
    A7        1.89140  -0.00043  -0.00018  -0.00089  -0.00107   1.89033
    A8        2.17967   0.00024   0.00007   0.00067   0.00074   2.18041
    A9        2.21211   0.00019   0.00011   0.00022   0.00033   2.21244
    D1        0.00000   0.00000   0.00000   0.00000   0.00000   0.00000
    D2        0.00000   0.00000   0.00000   0.00000   0.00000   0.00000
    D3        3.14159   0.00000   0.00000   0.00000   0.00000   3.14159
    D4        0.00000   0.00000   0.00000   0.00000   0.00000   0.00000
    D5        0.00000   0.00000   0.00000   0.00000   0.00000   0.00000
    D6        3.14159   0.00000   0.00000   0.00000   0.00000   3.14159
    D7        3.14159   0.00000   0.00000   0.00000   0.00000   3.14159
    D8        0.00000   0.00000   0.00000   0.00000   0.00000   0.00000
    D9        0.00000   0.00000   0.00000   0.00000   0.00000   0.00000
   D10        3.14159   0.00000   0.00000   0.00000   0.00000   3.14159
         Item               Value     Threshold  Converged?
 Maximum Force            0.000861     0.000450     NO 
 RMS     Force            0.000262     0.000300     YES
 Maximum Displacement     0.001869     0.001800     NO 
 RMS     Displacement     0.000512     0.001200     YES
 Predicted change in Energy=-1.973167D-06
 GradGradGradGradGradGradGradGradGradGradGradGradGradGradGradGradGradGrad

                          Input orientation:                          
 ---------------------------------------------------------------------
 Center     Atomic     Atomic              Coordinates (Angstroms)
 Number     Number      Type              X           Y           Z
 ---------------------------------------------------------------------
    1          7             0       -1.055170    0.507185    0.000000
    2          7             0        0.051423    1.152196    0.000000
    3          7             0        1.019298    0.226254    0.000000
    4          1             0        1.987609    0.500449    0.000000
    5          7             0       -0.847949   -0.829174    0.000000
    6          6             0        0.449308   -0.985696    0.000000
    7          1             0        0.985378   -1.918560    0.000000
 ---------------------------------------------------------------------
                    Distance matrix (angstroms):
                    1          2          3          4          5
     1  N    0.000000
     2  N    1.280854   0.000000
     3  N    2.093404   1.339460   0.000000
     4  H    3.042787   2.042937   1.006385   0.000000
     5  N    1.352330   2.175936   2.144887   3.131819   0.000000
     6  C    2.119469   2.174603   1.339295   2.138924   1.306666
     7  H    3.169870   3.209644   2.145081   2.618410   2.132569
                    6          7
     6  C    0.000000
     7  H    1.075920   0.000000
 Stoichiometry    CH2N4
 Framework group  CS[SG(CH2N4)]
 Deg. of freedom    11
 Full point group                 CS      NOp   2
 Largest Abelian subgroup         CS      NOp   2
 Largest concise Abelian subgroup C1      NOp   1
                         Standard orientation:                         
 ---------------------------------------------------------------------
 Center     Atomic     Atomic              Coordinates (Angstroms)
 Number     Number      Type              X           Y           Z
 ---------------------------------------------------------------------
    1          7             0       -0.718802   -0.918114    0.000000
    2          7             0       -1.111785    0.300963    0.000000
    3          7             0        0.000000    1.048015    0.000000
    4          1             0       -0.060399    2.052585    0.000000
    5          7             0        0.630926   -1.001979    0.000000
    6          6             0        1.061712    0.231634    0.000000
    7          1             0        2.087756    0.555421    0.000000
 ---------------------------------------------------------------------
 Rotational constants (GHZ):     10.6663481     10.4810607      5.2864463
 Standard basis: 6-311G(d,p) (5D, 7F)
 There are    75 symmetry adapted basis functions of A'  symmetry.
 There are    27 symmetry adapted basis functions of A"  symmetry.
 Integral buffers will be    262144 words long.
 Raffenetti 2 integral format.
 Two-electron integral symmetry is turned on.
   102 basis functions,   176 primitive gaussians,   107 cartesian basis functions
    18 alpha electrons       18 beta electrons
       nuclear repulsion energy       167.7975462338 Hartrees.
 NAtoms=    7 NActive=    7 NUniq=    7 SFac= 1.00D+00 NAtFMM=   60 Big=F
 One-electron integrals computed using PRISM.
 NBasis=   102 RedAO= T  NBF=    75    27
 NBsUse=   102 1.00D-06 NBFU=    75    27
 Initial guess read from the read-write file:
 Initial guess orbital symmetries:
       Occupied  (A') (A') (A') (A') (A') (A') (A') (A') (A') (A')
                 (A') (A") (A') (A') (A") (A") (A') (A')
       Virtual   (A") (A") (A') (A') (A') (A') (A') (A') (A') (A")
                 (A') (A') (A') (A') (A') (A") (A') (A") (A') (A')
                 (A') (A") (A') (A") (A') (A') (A') (A') (A') (A")
                 (A') (A") (A') (A") (A') (A') (A") (A') (A") (A')
                 (A') (A") (A") (A') (A') (A') (A') (A') (A") (A")
                 (A') (A') (A') (A") (A') (A") (A') (A') (A") (A")
                 (A') (A') (A') (A') (A') (A') (A") (A') (A") (A')
                 (A") (A') (A") (A') (A') (A') (A') (A') (A') (A')
                 (A') (A') (A') (A')
 Requested convergence on RMS density matrix=1.00D-08 within 128 cycles.
 Requested convergence on MAX density matrix=1.00D-06.
 Requested convergence on             energy=1.00D-06.
 No special actions if energy rises.
 Keep R1 integrals in memory in canonical form, NReq=    17862147.
 SCF Done:  E(RB+HF-B95) =  -258.230868875     A.U. after    8 cycles
             Convg  =    0.9836D-08             -V/T =  2.0019
             S**2   =   0.0000
 ***** Axes restored to original set *****
 -------------------------------------------------------------------
 Center     Atomic                   Forces (Hartrees/Bohr)
 Number     Number              X              Y              Z
 -------------------------------------------------------------------
    1          7           0.000451951   -0.000385408    0.000000000
    2          7          -0.000058214   -0.000087731    0.000000000
    3          7          -0.000313565    0.000324412    0.000000000
    4          1          -0.000023349    0.000027244    0.000000000
    5          7          -0.000107204    0.000381772    0.000000000
    6          6           0.000056818   -0.000251520    0.000000000
    7          1          -0.000006437   -0.000008770    0.000000000
 -------------------------------------------------------------------
 Cartesian Forces:  Max     0.000451951 RMS     0.000194274

 GradGradGradGradGradGradGradGradGradGradGradGradGradGradGradGradGradGrad
 Berny optimization.
 Internal  Forces:  Max     0.000365060 RMS     0.000127455
 Search for a local minimum.
 Step number   5 out of a maximum of  36
 All quantities printed in internal units (Hartrees-Bohrs-Radians)
 Update second derivatives using D2CorX and points  1  2  3  4  5

 Trust test= 1.15D+00 RLast= 3.24D-03 DXMaxT set to 3.00D-01
     Eigenvalues ---    0.02505   0.02638   0.02675   0.02834   0.14625
     Eigenvalues ---    0.16046   0.17151   0.36981   0.39127   0.41261
     Eigenvalues ---    0.48879   0.54367   0.59529   0.68129   0.72946
     Eigenvalues --- 1000.000001000.000001000.000001000.000001000.00000
     Eigenvalues --- 1000.000001000.000001000.000001000.000001000.00000
     Eigenvalues --- 1000.00000
 RFO step:  Lambda=-1.10449414D-06.
 Quartic linear search produced a step of  0.12860.
 Iteration  1 RMS(Cart)=  0.00036376 RMS(Int)=  0.00000008
 Iteration  2 RMS(Cart)=  0.00000008 RMS(Int)=  0.00000002
 Variable       Old X    -DE/DX   Delta X   Delta X   Delta X     New X
                                 (Linear)    (Quad)   (Total)
    R1        2.42046  -0.00024   0.00006  -0.00006   0.00000   2.42046
    R2        2.55553  -0.00037  -0.00024  -0.00107  -0.00132   2.55422
    R3        2.53121  -0.00025  -0.00008  -0.00054  -0.00063   2.53059
    R4        1.90179  -0.00001  -0.00002  -0.00006  -0.00008   1.90171
    R5        2.53090   0.00016  -0.00010   0.00014   0.00004   2.53094
    R6        2.46924  -0.00005   0.00004   0.00004   0.00007   2.46932
    R7        2.03320   0.00000   0.00000  -0.00003  -0.00002   2.03317
    A1        1.94469   0.00026  -0.00014   0.00072   0.00058   1.94528
    A2        1.85060  -0.00013   0.00005  -0.00080  -0.00074   1.84985
    A3        2.10239  -0.00004   0.00001  -0.00035  -0.00033   2.10205
    A4        1.89444   0.00007   0.00004   0.00068   0.00072   1.89516
    A5        2.28635  -0.00003  -0.00005  -0.00033  -0.00038   2.28597
    A6        1.84471  -0.00004   0.00019   0.00005   0.00023   1.84494
    A7        1.89033  -0.00016  -0.00014  -0.00065  -0.00079   1.88955
    A8        2.18041   0.00012   0.00009   0.00061   0.00070   2.18111
    A9        2.21244   0.00004   0.00004   0.00004   0.00008   2.21253
    D1        0.00000   0.00000   0.00000   0.00000   0.00000   0.00000
    D2        0.00000   0.00000   0.00000   0.00000   0.00000   0.00000
    D3        3.14159   0.00000   0.00000   0.00000   0.00000   3.14159
    D4        0.00000   0.00000   0.00000   0.00000   0.00000   0.00000
    D5        0.00000   0.00000   0.00000   0.00000   0.00000   0.00000
    D6        3.14159   0.00000   0.00000   0.00000   0.00000   3.14159
    D7        3.14159   0.00000   0.00000   0.00000   0.00000   3.14159
    D8        0.00000   0.00000   0.00000   0.00000   0.00000   0.00000
    D9        0.00000   0.00000   0.00000   0.00000   0.00000   0.00000
   D10        3.14159   0.00000   0.00000   0.00000   0.00000   3.14159
         Item               Value     Threshold  Converged?
 Maximum Force            0.000365     0.000450     YES
 RMS     Force            0.000127     0.000300     YES
 Maximum Displacement     0.000841     0.001800     YES
 RMS     Displacement     0.000364     0.001200     YES
 Predicted change in Energy=-5.980978D-07
 Optimization completed.
    -- Stationary point found.
                           ----------------------------
                           !   Optimized Parameters   !
                           ! (Angstroms and Degrees)  !
 --------------------------                            --------------------------
 ! Name  Definition              Value          Derivative Info.                !
 --------------------------------------------------------------------------------
 ! R1    R(1,2)                  1.2809         -DE/DX =   -0.0002              !
 ! R2    R(1,5)                  1.3523         -DE/DX =   -0.0004              !
 ! R3    R(2,3)                  1.3395         -DE/DX =   -0.0003              !
 ! R4    R(3,4)                  1.0064         -DE/DX =    0.0                 !
 ! R5    R(3,6)                  1.3393         -DE/DX =    0.0002              !
 ! R6    R(5,6)                  1.3067         -DE/DX =    0.0                 !
 ! R7    R(6,7)                  1.0759         -DE/DX =    0.0                 !
 ! A1    A(2,1,5)              111.4228         -DE/DX =    0.0003              !
 ! A2    A(1,2,3)              106.0314         -DE/DX =   -0.0001              !
 ! A3    A(2,3,4)              120.458          -DE/DX =    0.0                 !
 ! A4    A(2,3,6)              108.5436         -DE/DX =    0.0001              !
 ! A5    A(4,3,6)              130.9984         -DE/DX =    0.0                 !
 ! A6    A(1,5,6)              105.6941         -DE/DX =    0.0                 !
 ! A7    A(3,6,5)              108.3082         -DE/DX =   -0.0002              !
 ! A8    A(3,6,7)              124.9282         -DE/DX =    0.0001              !
 ! A9    A(5,6,7)              126.7636         -DE/DX =    0.0                 !
 ! D1    D(5,1,2,3)              0.0            -DE/DX =    0.0                 !
 ! D2    D(2,1,5,6)              0.0            -DE/DX =    0.0                 !
 ! D3    D(1,2,3,4)            180.0            -DE/DX =    0.0                 !
 ! D4    D(1,2,3,6)              0.0            -DE/DX =    0.0                 !
 ! D5    D(2,3,6,5)              0.0            -DE/DX =    0.0                 !
 ! D6    D(2,3,6,7)            180.0            -DE/DX =    0.0                 !
 ! D7    D(4,3,6,5)            180.0            -DE/DX =    0.0                 !
 ! D8    D(4,3,6,7)              0.0            -DE/DX =    0.0                 !
 ! D9    D(1,5,6,3)              0.0            -DE/DX =    0.0                 !
 ! D10   D(1,5,6,7)            180.0            -DE/DX =    0.0                 !
 --------------------------------------------------------------------------------
 GradGradGradGradGradGradGradGradGradGradGradGradGradGradGradGradGradGrad

                          Input orientation:                          
 ---------------------------------------------------------------------
 Center     Atomic     Atomic              Coordinates (Angstroms)
 Number     Number      Type              X           Y           Z
 ---------------------------------------------------------------------
    1          7             0       -1.055170    0.507185    0.000000
    2          7             0        0.051423    1.152196    0.000000
    3          7             0        1.019298    0.226254    0.000000
    4          1             0        1.987609    0.500449    0.000000
    5          7             0       -0.847949   -0.829174    0.000000
    6          6             0        0.449308   -0.985696    0.000000
    7          1             0        0.985378   -1.918560    0.000000
 ---------------------------------------------------------------------
                    Distance matrix (angstroms):
                    1          2          3          4          5
     1  N    0.000000
     2  N    1.280854   0.000000
     3  N    2.093404   1.339460   0.000000
     4  H    3.042787   2.042937   1.006385   0.000000
     5  N    1.352330   2.175936   2.144887   3.131819   0.000000
     6  C    2.119469   2.174603   1.339295   2.138924   1.306666
     7  H    3.169870   3.209644   2.145081   2.618410   2.132569
                    6          7
     6  C    0.000000
     7  H    1.075920   0.000000
 Stoichiometry    CH2N4
 Framework group  CS[SG(CH2N4)]
 Deg. of freedom    11
 Full point group                 CS      NOp   2
 Largest Abelian subgroup         CS      NOp   2
 Largest concise Abelian subgroup C1      NOp   1
                         Standard orientation:                         
 ---------------------------------------------------------------------
 Center     Atomic     Atomic              Coordinates (Angstroms)
 Number     Number      Type              X           Y           Z
 ---------------------------------------------------------------------
    1          7             0       -0.718802   -0.918114    0.000000
    2          7             0       -1.111785    0.300963    0.000000
    3          7             0        0.000000    1.048015    0.000000
    4          1             0       -0.060399    2.052585    0.000000
    5          7             0        0.630926   -1.001979    0.000000
    6          6             0        1.061712    0.231634    0.000000
    7          1             0        2.087756    0.555421    0.000000
 ---------------------------------------------------------------------
 Rotational constants (GHZ):     10.6663481     10.4810607      5.2864463

 **********************************************************************

            Population analysis using the SCF density.

 **********************************************************************

 Orbital symmetries:
       Occupied  (A') (A') (A') (A') (A') (A') (A') (A') (A') (A')
                 (A') (A") (A') (A') (A") (A") (A') (A')
       Virtual   (A") (A") (A') (A') (A') (A') (A') (A') (A') (A")
                 (A') (A') (A') (A') (A') (A") (A') (A") (A') (A')
                 (A') (A") (A') (A") (A') (A') (A') (A') (A') (A")
                 (A') (A") (A') (A") (A') (A') (A") (A') (A") (A')
                 (A') (A") (A") (A') (A') (A') (A') (A') (A") (A")
                 (A') (A') (A') (A") (A') (A") (A') (A') (A") (A")
                 (A') (A') (A') (A') (A') (A') (A") (A') (A") (A')
                 (A") (A') (A") (A') (A') (A') (A') (A') (A') (A')
                 (A') (A') (A') (A')
 The electronic state is 1-A'.
 Alpha  occ. eigenvalues --  -14.50102 -14.46428 -14.44603 -14.41741 -10.32102
 Alpha  occ. eigenvalues --   -1.17201  -0.96887  -0.91451  -0.69670  -0.68260
 Alpha  occ. eigenvalues --   -0.61308  -0.51719  -0.51171  -0.39380  -0.34613
 Alpha  occ. eigenvalues --   -0.32352  -0.31583  -0.30081
 Alpha virt. eigenvalues --   -0.01497   0.02284   0.03507   0.07832   0.18072
 Alpha virt. eigenvalues --    0.19570   0.23024   0.28794   0.33830   0.39763
 Alpha virt. eigenvalues --    0.41745   0.44390   0.50224   0.55545   0.56858
 Alpha virt. eigenvalues --    0.57825   0.60747   0.61364   0.62550   0.65792
 Alpha virt. eigenvalues --    0.68798   0.70402   0.74349   0.74811   0.83649
 Alpha virt. eigenvalues --    0.85754   0.93355   0.97378   1.01559   1.04510
 Alpha virt. eigenvalues --    1.17696   1.20371   1.22613   1.34958   1.35737
 Alpha virt. eigenvalues --    1.49564   1.58290   1.61246   1.62650   1.74910
 Alpha virt. eigenvalues --    1.77600   1.78985   1.86325   1.87582   2.05479
 Alpha virt. eigenvalues --    2.11973   2.21755   2.24139   2.31886   2.33333
 Alpha virt. eigenvalues --    2.38287   2.45367   2.50485   2.51294   2.57442
 Alpha virt. eigenvalues --    2.60828   2.65141   2.75572   2.76556   2.77628
 Alpha virt. eigenvalues --    2.81965   2.85947   3.09372   3.13409   3.32330
 Alpha virt. eigenvalues --    3.46669   3.53639   3.55456   3.65131   3.78560
 Alpha virt. eigenvalues --    3.84470   3.92942   3.93182   3.97326   4.43237
 Alpha virt. eigenvalues --    4.59258   4.81059   4.96124   5.71988  23.91894
 Alpha virt. eigenvalues --   35.28952  35.53192  35.58313  35.63972
          Condensed to atoms (all electrons):
              1          2          3          4          5          6
     1  N    6.678044   0.295152  -0.065474   0.007627   0.311634  -0.142212
     2  N    0.295152   6.747642   0.216730  -0.024239  -0.093515  -0.119566
     3  N   -0.065474   0.216730   6.534041   0.344499  -0.060491   0.356467
     4  H    0.007627  -0.024239   0.344499   0.432445   0.008005  -0.030681
     5  N    0.311634  -0.093515  -0.060491   0.008005   6.623941   0.474816
     6  C   -0.142212  -0.119566   0.356467  -0.030681   0.474816   4.818920
     7  H    0.002726   0.003939  -0.030792  -0.000775  -0.019497   0.405926
              7
     1  N    0.002726
     2  N    0.003939
     3  N   -0.030792
     4  H   -0.000775
     5  N   -0.019497
     6  C    0.405926
     7  H    0.484408
 Mulliken atomic charges:
              1
     1  N   -0.087497
     2  N   -0.026144
     3  N   -0.294980
     4  H    0.263118
     5  N   -0.244892
     6  C    0.236330
     7  H    0.154065
 Sum of Mulliken charges=   0.00000
 Atomic charges with hydrogens summed into heavy atoms:
              1
     1  N   -0.087497
     2  N   -0.026144
     3  N   -0.031862
     4  H    0.000000
     5  N   -0.244892
     6  C    0.390394
     7  H    0.000000
 Sum of Mulliken charges=   0.00000
 Electronic spatial extent (au):  <R**2>=   248.4340
 Charge=     0.0000 electrons
 Dipole moment (field-independent basis, Debye):
    X=     2.4823    Y=     4.7637    Z=     0.0000  Tot=     5.3716
 Quadrupole moment (field-independent basis, Debye-Ang):
   XX=   -28.7091   YY=   -26.2285   ZZ=   -28.1242
   XY=     1.7823   XZ=     0.0000   YZ=     0.0000
 Traceless Quadrupole moment (field-independent basis, Debye-Ang):
   XX=    -1.0218   YY=     1.4588   ZZ=    -0.4370
   XY=     1.7823   XZ=     0.0000   YZ=     0.0000
 Octapole moment (field-independent basis, Debye-Ang**2):
  XXX=    11.7132  YYY=    22.3075  ZZZ=     0.0000  XYY=    -0.5802
  XXY=     4.5588  XXZ=     0.0000  XZZ=    -0.7467  YZZ=     0.5025
  YYZ=     0.0000  XYZ=     0.0000
 Hexadecapole moment (field-independent basis, Debye-Ang**3):
 XXXX=  -140.1981 YYYY=  -119.0886 ZZZZ=   -24.9654 XXXY=     6.7428
 XXXZ=     0.0000 YYYX=    -0.4101 YYYZ=     0.0000 ZZZX=     0.0000
 ZZZY=     0.0000 XXYY=   -52.9656 XXZZ=   -30.0367 YYZZ=   -28.3574
 XXYZ=     0.0000 YYXZ=     0.0000 ZZXY=    -0.1122
 N-N= 1.677975462338D+02 E-N=-9.393709599417D+02  KE= 2.577329922089D+02
 Symmetry A'   KE= 2.482166259626D+02
 Symmetry A"   KE= 9.516366246259D+00
 1|1|UNPC-UNK|FOpt|RB1B95|6-311G(d,p)|C1H2N4|PCUSER|08-Sep-2006|0||#B1B
 95/6-311G** OPT FREQ||1H tetrazole c CH-NH-N=N-N= casno=288948 method=
 55 basis=7||0,1|N,-1.0507823822,0.5054368812,0.|N,0.0558102391,1.15044
 79581,0.|N,1.0236854971,0.2245054213,0.|H,1.9919968083,0.4987009858,0.
 |N,-0.8435618004,-0.8309226445,0.|C,0.4536960831,-0.9874444155,0.|H,0.
 9897658183,-1.920307806,0.||Version=x86-Win32-G03RevB.05|State=1-A'|HF
 =-258.2308689|RMSD=9.836e-009|RMSF=1.943e-004|Dipole=2.0398759,-0.5524
 425,0.|PG=CS [SG(C1H2N4)]||@


 IF MATHEMATICALLY YOU END UP WITH THE INCORRECT ANSWER,
 TRY MULTIPLYING BY THE PAGE NUMBER.
 Job cpu time:  0 days  0 hours  3 minutes 58.0 seconds.
 File lengths (MBytes):  RWF=     16 Int=      0 D2E=      0 Chk=      5 Scr=      1
 Normal termination of Gaussian 03 at Fri Sep 08 12:36:58 2006.
 Link1:  Proceeding to internal job step number  2.
 ---------------------------------------------------------------------
 #N Geom=AllCheck Guess=Read SCRF=Check GenChk RB1B95/6-311G(d,p) Freq
 ---------------------------------------------------------------------
 1/10=4,29=7,30=1,38=1,40=1,46=1/1,3;
 2/40=1/2;
 3/5=4,6=6,7=101,11=2,16=1,25=1,30=1,70=2,71=2,74=-17/1,2,3;
 4/5=1,7=1/1;
 5/5=2,38=6/2;
 8/6=4,10=90,11=11,27=786432000/1;
 11/6=1,8=1,9=11,15=111,16=1/1,2,10;
 10/6=1/2;
 6/7=2,8=2,9=2,10=2,18=1,28=1/1;
 7/8=1,10=1,25=1/1,2,3,16;
 1/10=4,30=1,46=1/3;
 99//99;
 ----------------------------------------------------------
 1H tetrazole c CH-NH-N=N-N= casno=288948 method=55 basis=7
 ----------------------------------------------------------
 Redundant internal coordinates taken from checkpoint file:
 gxx.chk
 Charge =  0 Multiplicity = 1
 N,0,-1.0507823822,0.5054368812,0.
 N,0,0.0558102391,1.1504479581,0.
 N,0,1.0236854971,0.2245054213,0.
 H,0,1.9919968083,0.4987009858,0.
 N,0,-0.8435618004,-0.8309226445,0.
 C,0,0.4536960831,-0.9874444155,0.
 H,0,0.9897658183,-1.920307806,0.
 Recover connectivity data from disk.

 GradGradGradGradGradGradGradGradGradGradGradGradGradGradGradGradGradGrad
 Berny optimization.
 Initialization pass.
                           ----------------------------
                           !    Initial Parameters    !
                           ! (Angstroms and Degrees)  !
 --------------------------                            --------------------------
 ! Name  Definition              Value          Derivative Info.                !
 --------------------------------------------------------------------------------
 ! R1    R(1,2)                  1.2809         calculate D2E/DX2 analytically  !
 ! R2    R(1,5)                  1.3523         calculate D2E/DX2 analytically  !
 ! R3    R(2,3)                  1.3395         calculate D2E/DX2 analytically  !
 ! R4    R(3,4)                  1.0064         calculate D2E/DX2 analytically  !
 ! R5    R(3,6)                  1.3393         calculate D2E/DX2 analytically  !
 ! R6    R(5,6)                  1.3067         calculate D2E/DX2 analytically  !
 ! R7    R(6,7)                  1.0759         calculate D2E/DX2 analytically  !
 ! A1    A(2,1,5)              111.4228         calculate D2E/DX2 analytically  !
 ! A2    A(1,2,3)              106.0314         calculate D2E/DX2 analytically  !
 ! A3    A(2,3,4)              120.458          calculate D2E/DX2 analytically  !
 ! A4    A(2,3,6)              108.5436         calculate D2E/DX2 analytically  !
 ! A5    A(4,3,6)              130.9984         calculate D2E/DX2 analytically  !
 ! A6    A(1,5,6)              105.6941         calculate D2E/DX2 analytically  !
 ! A7    A(3,6,5)              108.3082         calculate D2E/DX2 analytically  !
 ! A8    A(3,6,7)              124.9282         calculate D2E/DX2 analytically  !
 ! A9    A(5,6,7)              126.7636         calculate D2E/DX2 analytically  !
 ! D1    D(5,1,2,3)              0.0            calculate D2E/DX2 analytically  !
 ! D2    D(2,1,5,6)              0.0            calculate D2E/DX2 analytically  !
 ! D3    D(1,2,3,4)            180.0            calculate D2E/DX2 analytically  !
 ! D4    D(1,2,3,6)              0.0            calculate D2E/DX2 analytically  !
 ! D5    D(2,3,6,5)              0.0            calculate D2E/DX2 analytically  !
 ! D6    D(2,3,6,7)            180.0            calculate D2E/DX2 analytically  !
 ! D7    D(4,3,6,5)            180.0            calculate D2E/DX2 analytically  !
 ! D8    D(4,3,6,7)              0.0            calculate D2E/DX2 analytically  !
 ! D9    D(1,5,6,3)              0.0            calculate D2E/DX2 analytically  !
 ! D10   D(1,5,6,7)            180.0            calculate D2E/DX2 analytically  !
 --------------------------------------------------------------------------------
 Trust Radius=3.00D-01 FncErr=1.00D-07 GrdErr=1.00D-07
 Number of steps in this run=   2 maximum allowed number of steps=   2.
 GradGradGradGradGradGradGradGradGradGradGradGradGradGradGradGradGradGrad

                          Input orientation:                          
 ---------------------------------------------------------------------
 Center     Atomic     Atomic              Coordinates (Angstroms)
 Number     Number      Type              X           Y           Z
 ---------------------------------------------------------------------
    1          7             0       -1.050782    0.505437    0.000000
    2          7             0        0.055810    1.150448    0.000000
    3          7             0        1.023685    0.224505    0.000000
    4          1             0        1.991997    0.498701    0.000000
    5          7             0       -0.843562   -0.830923    0.000000
    6          6             0        0.453696   -0.987444    0.000000
    7          1             0        0.989766   -1.920308    0.000000
 ---------------------------------------------------------------------
                    Distance matrix (angstroms):
                    1          2          3          4          5
     1  N    0.000000
     2  N    1.280854   0.000000
     3  N    2.093404   1.339460   0.000000
     4  H    3.042787   2.042937   1.006385   0.000000
     5  N    1.352330   2.175936   2.144887   3.131819   0.000000
     6  C    2.119469   2.174603   1.339295   2.138924   1.306666
     7  H    3.169870   3.209644   2.145081   2.618410   2.132569
                    6          7
     6  C    0.000000
     7  H    1.075920   0.000000
 Stoichiometry    CH2N4
 Framework group  CS[SG(CH2N4)]
 Deg. of freedom    11
 Full point group                 CS      NOp   2
 Largest Abelian subgroup         CS      NOp   2
 Largest concise Abelian subgroup C1      NOp   1
                         Standard orientation:                         
 ---------------------------------------------------------------------
 Center     Atomic     Atomic              Coordinates (Angstroms)
 Number     Number      Type              X           Y           Z
 ---------------------------------------------------------------------
    1          7             0       -0.718802   -0.918114    0.000000
    2          7             0       -1.111785    0.300963    0.000000
    3          7             0        0.000000    1.048015    0.000000
    4          1             0       -0.060399    2.052585    0.000000
    5          7             0        0.630926   -1.001979    0.000000
    6          6             0        1.061712    0.231634    0.000000
    7          1             0        2.087756    0.555421    0.000000
 ---------------------------------------------------------------------
 Rotational constants (GHZ):     10.6663481     10.4810607      5.2864463
 Standard basis: 6-311G(d,p) (5D, 7F)
 There are    75 symmetry adapted basis functions of A'  symmetry.
 There are    27 symmetry adapted basis functions of A"  symmetry.
 Integral buffers will be    262144 words long.
 Raffenetti 2 integral format.
 Two-electron integral symmetry is turned on.
   102 basis functions,   176 primitive gaussians,   107 cartesian basis functions
    18 alpha electrons       18 beta electrons
       nuclear repulsion energy       167.7975462338 Hartrees.
 NAtoms=    7 NActive=    7 NUniq=    7 SFac= 1.00D+00 NAtFMM=   60 Big=F
 One-electron integrals computed using PRISM.
 NBasis=   102 RedAO= T  NBF=    75    27
 NBsUse=   102 1.00D-06 NBFU=    75    27
 Initial guess read from the checkpoint file:
 gxx.chk
 Initial guess orbital symmetries:
       Occupied  (A') (A') (A') (A') (A') (A') (A') (A') (A') (A')
                 (A') (A") (A') (A') (A") (A") (A') (A')
       Virtual   (A") (A") (A') (A') (A') (A') (A') (A') (A') (A")
                 (A') (A') (A') (A') (A') (A") (A') (A") (A') (A')
                 (A') (A") (A') (A") (A') (A') (A') (A') (A') (A")
                 (A') (A") (A') (A") (A') (A') (A") (A') (A") (A')
                 (A') (A") (A") (A') (A') (A') (A') (A') (A") (A")
                 (A') (A') (A') (A") (A') (A") (A') (A') (A") (A")
                 (A') (A') (A') (A') (A') (A') (A") (A') (A") (A')
                 (A") (A') (A") (A') (A') (A') (A') (A') (A') (A')
                 (A') (A') (A') (A')
 Requested convergence on RMS density matrix=1.00D-08 within 128 cycles.
 Requested convergence on MAX density matrix=1.00D-06.
 Requested convergence on             energy=1.00D-06.
 No special actions if energy rises.
 Keep R1 integrals in memory in canonical form, NReq=    17862147.
 SCF Done:  E(RB+HF-B95) =  -258.230868875     A.U. after    1 cycles
             Convg  =    0.3927D-08             -V/T =  2.0019
             S**2   =   0.0000
 Range of M.O.s used for correlation:     1   102
 NBasis=   102 NAE=    18 NBE=    18 NFC=     0 NFV=     0
 NROrb=    102 NOA=    18 NOB=    18 NVA=    84 NVB=    84
 Symmetrizing basis deriv contribution to polar:
 IMax=3 JMax=2 DiffMx= 0.00D+00
 G2DrvN: will do    8 centers at a time, making    1 passes doing MaxLOS=2.
 FoFDir/FoFCou used for L=0 through L=2.
          Differentiating once with respect to electric field.
                with respect to dipole field.
          Differentiating once with respect to nuclear coordinates.
          Store integrals in memory, NReq=    17126762.
          There are  24 degrees of freedom in the 1st order CPHF.
    21 vectors were produced by pass  0.
 AX will form  21 AO Fock derivatives at one time.
    21 vectors were produced by pass  1.
    21 vectors were produced by pass  2.
    21 vectors were produced by pass  3.
    21 vectors were produced by pass  4.
    21 vectors were produced by pass  5.
    11 vectors were produced by pass  6.
     3 vectors were produced by pass  7.
 Inv2:  IOpt= 1 Iter= 1 AM= 1.77D-15 Conv= 1.00D-12.
 Inverted reduced A of dimension  140 with in-core refinement.
[...]
  XXX=    11.7132  YYY=    22.3075  ZZZ=     0.0000  XYY=    -0.5802
  XXY=     4.5588  XXZ=     0.0000  XZZ=    -0.7467  YZZ=     0.5025
  YYZ=     0.0000  XYZ=     0.0000
 Hexadecapole moment (field-independent basis, Debye-Ang**3):
 XXXX=  -140.1981 YYYY=  -119.0886 ZZZZ=   -24.9654 XXXY=     6.7428
 XXXZ=     0.0000 YYYX=    -0.4101 YYYZ=     0.0000 ZZZX=     0.0000
 ZZZY=     0.0000 XXYY=   -52.9656 XXZZ=   -30.0367 YYZZ=   -28.3574
 XXYZ=     0.0000 YYXZ=     0.0000 ZZXY=    -0.1122
 N-N= 1.677975462338D+02 E-N=-9.393709598893D+02  KE= 2.577329923790D+02
 Symmetry A'   KE= 2.482166260191D+02
 Symmetry A"   KE= 9.516366359807D+00
  Exact polarizability:  38.526   0.980  37.963   0.000   0.000  17.644
 Approx polarizability:  63.641   0.508  67.310   0.000   0.000  25.862
 Full mass-weighted force constant matrix:
 Low frequencies ---   -9.7677   -0.0006    0.0004    0.0008   17.7545   20.5982
 Low frequencies ---  624.9520  703.2605  747.8989
 Diagonal vibrational polarizability:
        1.1489891       1.1528505       7.2917333
 Harmonic frequencies (cm**-1), IR intensities (KM/Mole), Raman scattering
 activities (A**4/AMU), depolarization ratios for plane and unpolarized
 incident light, reduced masses (AMU), force constants (mDyne/A),
 and normal coordinates:
                     1                      2                      3
                    A"                     A"                     A"
 Frequencies --   624.9519               703.2602               747.8989
 Red. masses --     2.0935                 1.7389                 6.9112
 Frc consts  --     0.4817                 0.5067                 2.2777
 IR Inten    --    75.5959                17.0973                11.3304
 Atom AN      X      Y      Z        X      Y      Z        X      Y      Z
   1   7     0.00   0.00   0.01     0.00   0.00   0.04     0.00   0.00   0.45
   2   7     0.00   0.00  -0.11     0.00   0.00   0.07     0.00   0.00  -0.39
   3   7     0.00   0.00   0.24     0.00   0.00  -0.06     0.00   0.00   0.10
   4   1     0.00   0.00  -0.89     0.00   0.00  -0.86     0.00   0.00   0.73
   5   7     0.00   0.00   0.05     0.00   0.00  -0.16     0.00   0.00  -0.29
   6   6     0.00   0.00  -0.11     0.00   0.00   0.15     0.00   0.00   0.08
   7   1     0.00   0.00  -0.34     0.00   0.00   0.45     0.00   0.00   0.08
                     4                      5                      6
                    A"                     A'                     A'
 Frequencies --   871.9888               983.3397              1019.6081
 Red. masses --     1.3690                 4.2826                 5.7752
 Frc consts  --     0.6133                 2.4399                 3.5374
 IR Inten    --    17.1646                 3.8211                 1.0517
 Atom AN      X      Y      Z        X      Y      Z        X      Y      Z
   1   7     0.00   0.00   0.02     0.00   0.18   0.00     0.19  -0.08   0.00
   2   7     0.00   0.00   0.00    -0.13   0.13   0.00     0.13  -0.07   0.00
   3   7     0.00   0.00   0.03    -0.09  -0.03   0.00     0.02   0.40   0.00
   4   1     0.00   0.00   0.04     0.44   0.01   0.00     0.09   0.43   0.00
   5   7     0.00   0.00   0.03     0.32  -0.24   0.00    -0.04  -0.19   0.00
   6   6     0.00   0.00  -0.17    -0.12  -0.11   0.00    -0.34  -0.05   0.00
   7   1     0.00   0.00   0.98    -0.36   0.65   0.00    -0.18  -0.63   0.00
                     7                      8                      9
                    A'                     A'                     A'
 Frequencies --  1074.8674              1089.4588              1157.2136
 Red. masses --     3.7735                 3.9736                 1.9766
 Frc consts  --     2.5687                 2.7788                 1.5595
 IR Inten    --    22.0888                26.3187                13.4621
 Atom AN      X      Y      Z        X      Y      Z        X      Y      Z
   1   7     0.07  -0.02   0.00     0.34   0.03   0.00    -0.13  -0.12   0.00
   2   7     0.33   0.18   0.00    -0.14   0.05   0.00     0.07  -0.05   0.00
   3   7    -0.17  -0.12   0.00     0.05  -0.16   0.00     0.14   0.03   0.00
   4   1    -0.64  -0.15   0.00     0.82  -0.12   0.00     0.46   0.04   0.00
   5   7    -0.11  -0.06   0.00    -0.22   0.02   0.00    -0.02   0.00   0.00
   6   6    -0.07  -0.02   0.00    -0.09   0.05   0.00    -0.07   0.10   0.00
   7   1    -0.26   0.54   0.00    -0.16   0.25   0.00    -0.29   0.79   0.00
                    10                     11                     12
                    A'                     A'                     A'
 Frequencies --  1284.5954              1327.1803              1481.9960
 Red. masses --     2.4326                10.1319                 3.3801
 Frc consts  --     2.3651                10.5148                 4.3739
 IR Inten    --     1.8005                16.7895                 9.2540
 Atom AN      X      Y      Z        X      Y      Z        X      Y      Z
   1   7    -0.06  -0.06   0.00    -0.03   0.57   0.00    -0.01  -0.02   0.00
   2   7     0.10   0.07   0.00     0.19  -0.48   0.00    -0.07   0.10   0.00
   3   7    -0.06  -0.11   0.00     0.14  -0.15   0.00     0.21  -0.14   0.00
   4   1     0.68  -0.08   0.00    -0.33  -0.21   0.00    -0.72  -0.22   0.00
   5   7     0.12   0.18   0.00    -0.03   0.12   0.00     0.07  -0.12   0.00
   6   6    -0.17  -0.02   0.00    -0.25  -0.07   0.00    -0.17   0.27   0.00
   7   1    -0.01  -0.65   0.00    -0.35   0.08   0.00     0.04  -0.48   0.00
                    13                     14                     15
                    A'                     A'                     A'
 Frequencies --  1533.6279              3297.6769              3679.9989
 Red. masses --     3.5842                 1.1014                 1.0839
 Frc consts  --     4.9669                 7.0570                 8.6484
 IR Inten    --    16.6613                 1.3256                97.2822
 Atom AN      X      Y      Z        X      Y      Z        X      Y      Z
   1   7     0.06  -0.10   0.00     0.00   0.00   0.00     0.00   0.00   0.00
   2   7    -0.11   0.08   0.00     0.00   0.00   0.00     0.00   0.00   0.00
   3   7     0.17   0.03   0.00     0.00   0.00   0.00     0.01  -0.08   0.00
   4   1    -0.73  -0.03   0.00     0.01   0.02   0.00    -0.06   1.00   0.00
   5   7     0.05   0.22   0.00     0.00   0.00   0.00     0.00   0.00   0.00
   6   6    -0.12  -0.30   0.00     0.09   0.03   0.00     0.00   0.00   0.00
   7   1    -0.36   0.35   0.00    -0.95  -0.30   0.00     0.02   0.00   0.00

 -------------------
 - Thermochemistry -
 -------------------
 Temperature   298.150 Kelvin.  Pressure   1.00000 Atm.
 Atom  1 has atomic number  7 and mass  14.00307
 Atom  2 has atomic number  7 and mass  14.00307
 Atom  3 has atomic number  7 and mass  14.00307
 Atom  4 has atomic number  1 and mass   1.00783
 Atom  5 has atomic number  7 and mass  14.00307
 Atom  6 has atomic number  6 and mass  12.00000
 Atom  7 has atomic number  1 and mass   1.00783
 Molecular mass:    70.02795 amu.
 Principal axes and moments of inertia in atomic units:
                           1         2         3
     EIGENVALUES --   169.19954 172.19070 341.39024
           X            0.84816   0.52974   0.00000
           Y           -0.52974   0.84816   0.00000
           Z            0.00000   0.00000   1.00000
 This molecule is an asymmetric top.
 Rotational symmetry number  1.
 Rotational temperatures (Kelvin)      0.51190     0.50301     0.25371
 Rotational constants (GHZ):          10.66635    10.48106     5.28645
 Zero-point vibrational energy     124876.2 (Joules/Mol)
                                   29.84612 (Kcal/Mol)
 Vibrational temperatures:    899.17  1011.83  1076.06  1254.60  1414.80
          (Kelvin)           1466.99  1546.49  1567.49  1664.97  1848.24
                             1909.51  2132.26  2206.55  4744.62  5294.69
 
 Zero-point correction=                           0.047563 (Hartree/Particle)
 Thermal correction to Energy=                    0.050987
 Thermal correction to Enthalpy=                  0.051931
 Thermal correction to Gibbs Free Energy=         0.021505
 Sum of electronic and zero-point Energies=           -258.183306
 Sum of electronic and thermal Energies=              -258.179882
 Sum of electronic and thermal Enthalpies=            -258.178938
 Sum of electronic and thermal Free Energies=         -258.209364
 
                     E (Thermal)             CV                S
                      KCal/Mol        Cal/Mol-Kelvin    Cal/Mol-Kelvin
 Total                   31.995             11.059             64.036
 Electronic               0.000              0.000              0.000
 Translational            0.889              2.981             38.656
 Rotational               0.889              2.981             23.813
 Vibrational             30.217              5.097              1.567
                       Q            Log10(Q)             Ln(Q)
 Total Bot       0.128326D-09         -9.891687        -22.776451
 Total V=0       0.967484D+12         11.985644         27.597965
 Vib (Bot)       0.156054D-21        -21.806725        -50.211841
 Vib (V=0)       0.117654D+01          0.070605          0.162575
 Electronic      0.100000D+01          0.000000          0.000000
 Translational   0.230336D+08          7.362362         16.952466
 Rotational      0.357007D+05          4.552676         10.482925
 ***** Axes restored to original set *****
 -------------------------------------------------------------------
 Center     Atomic                   Forces (Hartrees/Bohr)
 Number     Number              X              Y              Z
 -------------------------------------------------------------------
    1          7           0.000451964   -0.000385396    0.000000000
    2          7          -0.000058206   -0.000087604    0.000000000
    3          7          -0.000313626    0.000324320    0.000000000
    4          1          -0.000023312    0.000027268    0.000000000
    5          7          -0.000107034    0.000381684    0.000000000
    6          6           0.000056681   -0.000251568    0.000000000
    7          1          -0.000006466   -0.000008704    0.000000000
 -------------------------------------------------------------------
 Cartesian Forces:  Max     0.000451964 RMS     0.000194257

 GradGradGradGradGradGradGradGradGradGradGradGradGradGradGradGradGradGrad
 Berny optimization.
 Internal  Forces:  Max     0.000364997 RMS     0.000127454
 Search for a local minimum.
 Step number   1 out of a maximum of   2
 All quantities printed in internal units (Hartrees-Bohrs-Radians)
 Second derivative matrix not updated -- analytic derivatives used.
     Eigenvalues ---    0.00946   0.02591   0.07293   0.07862   0.10086
     Eigenvalues ---    0.10538   0.20539   0.25653   0.35804   0.37986
     Eigenvalues ---    0.44678   0.47857   0.48850   0.58975   0.64632
     Eigenvalues --- 1000.000001000.000001000.000001000.000001000.00000
     Eigenvalues --- 1000.000001000.000001000.000001000.000001000.00000
     Eigenvalues --- 1000.00000
 Angle between quadratic step and forces=  28.05 degrees.
 Linear search not attempted -- first point.
 Iteration  1 RMS(Cart)=  0.00030683 RMS(Int)=  0.00000006
 Iteration  2 RMS(Cart)=  0.00000006 RMS(Int)=  0.00000000
 Variable       Old X    -DE/DX   Delta X   Delta X   Delta X     New X
                                 (Linear)    (Quad)   (Total)
    R1        2.42046  -0.00024   0.00000  -0.00016  -0.00016   2.42030
    R2        2.55553  -0.00036   0.00000  -0.00130  -0.00130   2.55423
    R3        2.53121  -0.00025   0.00000  -0.00066  -0.00066   2.53055
    R4        1.90179  -0.00001   0.00000  -0.00001  -0.00001   1.90178
    R5        2.53090   0.00016   0.00000   0.00036   0.00036   2.53126
    R6        2.46924  -0.00005   0.00000   0.00021   0.00021   2.46945
    R7        2.03320   0.00000   0.00000  -0.00004  -0.00004   2.03315
    A1        1.94469   0.00026   0.00000   0.00046   0.00046   1.94515
    A2        1.85060  -0.00013   0.00000  -0.00033  -0.00033   1.85026
    A3        2.10239  -0.00004   0.00000  -0.00007  -0.00007   2.10232
    A4        1.89444   0.00007   0.00000   0.00034   0.00034   1.89478
    A5        2.28635  -0.00003   0.00000  -0.00026  -0.00026   2.28609
    A6        1.84471  -0.00004   0.00000   0.00021   0.00021   1.84492
    A7        1.89033  -0.00016   0.00000  -0.00068  -0.00068   1.88966
    A8        2.18041   0.00012   0.00000   0.00061   0.00061   2.18102
    A9        2.21244   0.00004   0.00000   0.00006   0.00006   2.21251
    D1        0.00000   0.00000   0.00000   0.00000   0.00000   0.00000
    D2        0.00000   0.00000   0.00000   0.00000   0.00000   0.00000
    D3        3.14159   0.00000   0.00000   0.00000   0.00000   3.14159
    D4        0.00000   0.00000   0.00000   0.00000   0.00000   0.00000
    D5        0.00000   0.00000   0.00000   0.00000   0.00000   0.00000
    D6        3.14159   0.00000   0.00000   0.00000   0.00000   3.14159
    D7        3.14159   0.00000   0.00000   0.00000   0.00000   3.14159
    D8        0.00000   0.00000   0.00000   0.00000   0.00000   0.00000
    D9        0.00000   0.00000   0.00000   0.00000   0.00000   0.00000
   D10        3.14159   0.00000   0.00000   0.00000   0.00000   3.14159
         Item               Value     Threshold  Converged?
 Maximum Force            0.000365     0.000450     YES
 RMS     Force            0.000127     0.000300     YES
 Maximum Displacement     0.000678     0.001800     YES
 RMS     Displacement     0.000307     0.001200     YES
 Predicted change in Energy=-5.539092D-07
 Optimization completed.
    -- Stationary point found.
                           ----------------------------
                           !   Optimized Parameters   !
                           ! (Angstroms and Degrees)  !
 --------------------------                            --------------------------
 ! Name  Definition              Value          Derivative Info.                !
 --------------------------------------------------------------------------------
 ! R1    R(1,2)                  1.2809         -DE/DX =   -0.0002              !
 ! R2    R(1,5)                  1.3523         -DE/DX =   -0.0004              !
 ! R3    R(2,3)                  1.3395         -DE/DX =   -0.0003              !
 ! R4    R(3,4)                  1.0064         -DE/DX =    0.0                 !
 ! R5    R(3,6)                  1.3393         -DE/DX =    0.0002              !
 ! R6    R(5,6)                  1.3067         -DE/DX =    0.0                 !
 ! R7    R(6,7)                  1.0759         -DE/DX =    0.0                 !
 ! A1    A(2,1,5)              111.4228         -DE/DX =    0.0003              !
 ! A2    A(1,2,3)              106.0314         -DE/DX =   -0.0001              !
 ! A3    A(2,3,4)              120.458          -DE/DX =    0.0                 !
 ! A4    A(2,3,6)              108.5436         -DE/DX =    0.0001              !
 ! A5    A(4,3,6)              130.9984         -DE/DX =    0.0                 !
 ! A6    A(1,5,6)              105.6941         -DE/DX =    0.0                 !
 ! A7    A(3,6,5)              108.3082         -DE/DX =   -0.0002              !
 ! A8    A(3,6,7)              124.9282         -DE/DX =    0.0001              !
 ! A9    A(5,6,7)              126.7636         -DE/DX =    0.0                 !
 ! D1    D(5,1,2,3)              0.0            -DE/DX =    0.0                 !
 ! D2    D(2,1,5,6)              0.0            -DE/DX =    0.0                 !
 ! D3    D(1,2,3,4)            180.0            -DE/DX =    0.0                 !
 ! D4    D(1,2,3,6)              0.0            -DE/DX =    0.0                 !
 ! D5    D(2,3,6,5)              0.0            -DE/DX =    0.0                 !
 ! D6    D(2,3,6,7)            180.0            -DE/DX =    0.0                 !
 ! D7    D(4,3,6,5)            180.0            -DE/DX =    0.0                 !
 ! D8    D(4,3,6,7)              0.0            -DE/DX =    0.0                 !
 ! D9    D(1,5,6,3)              0.0            -DE/DX =    0.0                 !
 ! D10   D(1,5,6,7)            180.0            -DE/DX =    0.0                 !
 --------------------------------------------------------------------------------
 GradGradGradGradGradGradGradGradGradGradGradGradGradGradGradGradGradGrad

 1|1|UNPC-UNK|Freq|RB1B95|6-311G(d,p)|C1H2N4|PCUSER|08-Sep-2006|0||#N G
 EOM=ALLCHECK GUESS=READ SCRF=CHECK GENCHK RB1B95/6-311G(D,P) FREQ||1H 
 tetrazole c CH-NH-N=N-N= casno=288948 method=55 basis=7||0,1|N,-1.0507
 823822,0.5054368812,0.|N,0.0558102391,1.1504479581,0.|N,1.0236854971,0
 .2245054213,0.|H,1.9919968083,0.4987009858,0.|N,-0.8435618004,-0.83092
 26445,0.|C,0.4536960831,-0.9874444155,0.|H,0.9897658183,-1.920307806,0
 .||Version=x86-Win32-G03RevB.05|State=1-A'|HF=-258.2308689|RMSD=3.927e
 -009|RMSF=1.943e-004|Dipole=2.0398764,-0.5524442,0.|DipoleDeriv=-0.178
 0216,0.0539148,0.,0.0029358,0.2065617,0.,0.,0.,-0.155392,0.2767754,-0.
 2042921,0.,-0.2474227,-0.3407636,0.,0.,0.,-0.0981255,-0.5514048,-0.047
 1129,0.,0.0463707,-0.0252565,0.,0.,0.,-0.1331974,0.2790094,0.0395566,0
 .,0.0217845,0.2105811,0.,0.,0.,0.3388445,-0.2888163,0.073138,0.,-0.046
 3993,-0.4054247,0.,0.,0.,-0.2076975,0.3737088,0.0532318,0.,0.185155,0.
 2696653,0.,0.,0.,0.0832153,0.088749,0.0315638,0.,0.037576,0.0846366,0.
 ,0.,0.,0.1723526|Polar=38.399052,-1.0077255,38.0900105,0.,0.,17.643538
 |PG=CS [SG(C1H2N4)]|NImag=0||0.63338119,-0.01267967,0.43285593,0.,0.,0
 .12732269,-0.30248068,-0.14243118,0.,0.48698690,-0.08539790,-0.1757495
 7,0.,0.08393192,0.58755215,0.,0.,-0.09903663,0.,0.,0.11751385,-0.16582
 369,-0.03105296,0.,-0.14219245,0.04405307,0.,0.97336809,0.05079671,-0.
 01335107,0.,0.07748327,-0.20461694,0.,0.17458664,0.64223365,0.,0.,0.02
 680278,0.,0.,-0.07076781,0.,0.,0.09961979,-0.00283278,0.00267224,0.,-0
 .01475630,-0.01137213,0.,-0.43459040,-0.10684659,0.,0.44933375,0.01172
 508,-0.00629872,0.,0.02296178,0.01981930,0.,-0.11480689,-0.10589059,0.
 ,0.11047454,0.09032164,0.,0.,0.00819300,0.,0.,-0.01182089,0.,0.,-0.010
 05728,0.,0.,0.01553843,-0.11072755,0.04825228,0.,-0.01364711,0.0030291
 0,0.,-0.09110936,-0.10995389,0.,0.00154727,-0.00689827,0.,0.62471306,0
 .01407254,-0.19442298,0.,-0.10840914,-0.11402478,0.,0.00938538,0.00268
 723,0.,0.00292149,-0.00789809,0.,0.03884069,0.42499630,0.,0.,-0.091778
 63,0.,0.,0.03627337,0.,0.,0.02152732,0.,0.,0.00761327,0.,0.,0.11166282
 ,-0.04581609,0.13206749,0.,-0.00924087,-0.02914004,0.,-0.15441238,-0.0
 6682458,0.,0.00139269,-0.02390947,0.,-0.40446270,0.01588019,0.,0.74212
 652,0.02426047,-0.04435755,0.,0.06846275,-0.11133178,0.,-0.09835106,-0
 .30657891,0.,0.00236055,0.01046731,0.,0.02675364,-0.11690415,0.,-0.158
 85498,0.85910250,0.,0.,0.01933240,0.,0.,0.02163435,0.,0.,-0.06499332,0
 .,0.,-0.00843619,0.,0.,-0.08037122,0.,0.,0.14377327,-0.00570040,0.0031
 7179,0.,-0.00466949,-0.00510402,0.,0.01476020,-0.01924156,0.,-0.000094
 23,0.00045323,0.,-0.00631360,0.02730885,0.,-0.12958716,0.13536864,0.,0
 .13160467,-0.00277722,0.00132396,0.,-0.00199940,-0.00164838,0.,0.01618
 582,-0.01448336,0.,-0.00021010,-0.00052085,0.,-0.00002355,0.00556646,0
 .,0.13078138,-0.29039742,0.,-0.14195692,0.30015958,0.,0.,0.00916439,0.
 ,0.,0.00620377,0.,0.,-0.00213148,0.,0.,-0.00103034,0.,0.,-0.00492694,0
 .,0.,-0.03093930,0.,0.,0.02365990||-0.00045196,0.00038540,0.,0.0000582
 1,0.00008760,0.,0.00031363,-0.00032432,0.,0.00002331,-0.00002727,0.,0.
 00010703,-0.00038168,0.,-0.00005668,0.00025157,0.,0.00000647,0.0000087
 0,0.|||@


     SCHOPENHAUER'S LAW OF ENTROPY
 IF YOU PUT A SPOONFUL OF WINE IN A BARREL FULL
 OF SEWAGE, YOU GET SEWAGE.
 IF YOU PUT A SPOONFUL OF SEWAGE IN A BARREL FULL
 OF WINE, YOU GET SEWAGE.
 Job cpu time:  0 days  0 hours  6 minutes  0.0 seconds.
 File lengths (MBytes):  RWF=     17 Int=      0 D2E=      0 Chk=      5 Scr=      1
 Normal termination of Gaussian 03 at Fri Sep 08 12:42:58 2006.
