 host = p2231 (kernel = 2.6.18-128.el5)
 Running revision A02

 Current disk usage on p2231

 START DATE Sat Jul 31 12:57:16 EDT 2010
 GAUSS_LFLAGS = '-nodelist "p2231"'
 Entering Gaussian System, Link 0=/usr/local/gaussian09-A02-64/g09/g09
 Initial command:
 /usr/local/gaussian09-A02-64/g09/l1.exe /gaussian/Gau-16219.inp -scrdir=/gaussian/
 Entering Link 1 = /usr/local/gaussian09-A02-64/g09/l1.exe PID=     16231.
  
 Copyright (c) 1988,1990,1992,1993,1995,1998,2003,2009, Gaussian, Inc.
                  All Rights Reserved.
  
 This is part of the Gaussian(R) 09 program.  It is based on
 the Gaussian(R) 03 system (copyright 2003, Gaussian, Inc.),
 the Gaussian(R) 98 system (copyright 1998, Gaussian, Inc.),
 the Gaussian(R) 94 system (copyright 1995, Gaussian, Inc.),
 the Gaussian 92(TM) system (copyright 1992, Gaussian, Inc.),
 the Gaussian 90(TM) system (copyright 1990, Gaussian, Inc.),
 the Gaussian 88(TM) system (copyright 1988, Gaussian, Inc.),
 the Gaussian 86(TM) system (copyright 1986, Carnegie Mellon
 University), and the Gaussian 82(TM) system (copyright 1983,
 Carnegie Mellon University). Gaussian is a federally registered
 trademark of Gaussian, Inc.
  
 This software contains proprietary and confidential information,
 including trade secrets, belonging to Gaussian, Inc.
  
 This software is provided under written license and may be
 used, copied, transmitted, or stored only in accord with that
 written license.
  
 The following legend is applicable only to US Government
 contracts under FAR:
  
                    RESTRICTED RIGHTS LEGEND
  
 Use, reproduction and disclosure by the US Government is
 subject to restrictions as set forth in subparagraphs (a)
 and (c) of the Commercial Computer Software - Restricted
 Rights clause in FAR 52.227-19.
  
 Gaussian, Inc.
 340 Quinnipiac St., Bldg. 40, Wallingford CT 06492
  
  
 ---------------------------------------------------------------
 Warning -- This program may not be used in any manner that
 competes with the business of Gaussian, Inc. or will provide
 assistance to any competitor of Gaussian, Inc.  The licensee
 of this program is prohibited from giving any competitor of
 Gaussian, Inc. access to this program.  By using this program,
 the user acknowledges that Gaussian, Inc. is engaged in the
 business of creating and licensing software in the field of
 computational chemistry and represents and warrants to the
 licensee that it is not a competitor of Gaussian, Inc. and that
 it will not use this program in any manner prohibited above.
 ---------------------------------------------------------------
  

 Cite this work as:
 Gaussian 09, Revision A.02,
 M. J. Frisch, G. W. Trucks, H. B. Schlegel, G. E. Scuseria, 
 M. A. Robb, J. R. Cheeseman, G. Scalmani, V. Barone, B. Mennucci, 
 G. A. Petersson, H. Nakatsuji, M. Caricato, X. Li, H. P. Hratchian, 
 A. F. Izmaylov, J. Bloino, G. Zheng, J. L. Sonnenberg, M. Hada, 
 M. Ehara, K. Toyota, R. Fukuda, J. Hasegawa, M. Ishida, T. Nakajima, 
 Y. Honda, O. Kitao, H. Nakai, T. Vreven, J. A. Montgomery, Jr., 
 J. E. Peralta, F. Ogliaro, M. Bearpark, J. J. Heyd, E. Brothers, 
 K. N. Kudin, V. N. Staroverov, R. Kobayashi, J. Normand, 
 K. Raghavachari, A. Rendell, J. C. Burant, S. S. Iyengar, J. Tomasi, 
 M. Cossi, N. Rega, J. M. Millam, M. Klene, J. E. Knox, J. B. Cross, 
 V. Bakken, C. Adamo, J. Jaramillo, R. Gomperts, R. E. Stratmann, 
 O. Yazyev, A. J. Austin, R. Cammi, C. Pomelli, J. W. Ochterski, 
 R. L. Martin, K. Morokuma, V. G. Zakrzewski, G. A. Voth, 
 P. Salvador, J. J. Dannenberg, S. Dapprich, A. D. Daniels, 
 O. Farkas, J. B. Foresman, J. V. Ortiz, J. Cioslowski, 
 and D. J. Fox, Gaussian, Inc., Wallingford CT, 2009.
 
 ******************************************
 Gaussian 09:  AM64L-G09RevA.02 11-Jun-2009
                31-Jul-2010 
 ******************************************
 %mem=24000000
 ----------------------
 #M062X/6-31G* opt freq
 ----------------------
 1/14=-1,18=20,19=15,26=3,38=1/1,3;
 2/9=110,12=2,17=6,18=5,40=1/2;
 3/5=1,6=6,7=1,11=2,16=1,25=1,30=1,71=1,74=-55/1,2,3;
 4//1;
 5/5=2,38=5/2;
 6/7=2,8=2,9=2,10=2,28=1/1;
 7//1,2,3,16;
 1/14=-1,18=20,19=15/3(2);
 2/9=110/2;
 99//99;
 2/9=110/2;
 3/5=1,6=6,7=1,11=2,16=1,25=1,30=1,71=1,74=-55/1,2,3;
 4/5=5,16=3/1;
 5/5=2,38=5/2;
 7//1,2,3,16;
 1/14=-1,18=20,19=15/3(-5);
 2/9=110/2;
 6/7=2,8=2,9=2,10=2,19=2,28=1/1;
 99/9=1/99;
 ----------------------------------------------------------
 1H tetrazole c CH-NH-N=N-N= casno=288948 method=58 basis=1
 ----------------------------------------------------------
 Symbolic Z-matrix:
 Charge =  0 Multiplicity = 1
 7                    -1.12329  -0.25456   0. 
 7                    -0.67158   0.91328   0. 
 7                     0.65055   0.80984   0. 
 1                     1.224     1.62189   0. 
 7                    -0.13465  -1.16105   0. 
 6                     0.96218  -0.48332   0. 
 1                     1.95569  -0.87454   0. 
 

 GradGradGradGradGradGradGradGradGradGradGradGradGradGradGradGradGradGrad
 Berny optimization.
 Initialization pass.
                           ----------------------------
                           !    Initial Parameters    !
                           ! (Angstroms and Degrees)  !
 --------------------------                            --------------------------
 ! Name  Definition              Value          Derivative Info.                !
 --------------------------------------------------------------------------------
 ! R1    R(1,2)                  1.2522         estimate D2E/DX2                !
 ! R2    R(1,5)                  1.3413         estimate D2E/DX2                !
 ! R3    R(2,3)                  1.3262         estimate D2E/DX2                !
 ! R4    R(3,4)                  0.9941         estimate D2E/DX2                !
 ! R5    R(3,6)                  1.3302         estimate D2E/DX2                !
 ! R6    R(5,6)                  1.2893         estimate D2E/DX2                !
 ! R7    R(6,7)                  1.0678         estimate D2E/DX2                !
 ! A1    A(2,1,5)              111.3714         estimate D2E/DX2                !
 ! A2    A(1,2,3)              106.673          estimate D2E/DX2                !
 ! A3    A(2,3,4)              120.7559         estimate D2E/DX2                !
 ! A4    A(2,3,6)              108.0227         estimate D2E/DX2                !
 ! A5    A(4,3,6)              131.2214         estimate D2E/DX2                !
 ! A6    A(1,5,6)              105.77           estimate D2E/DX2                !
 ! A7    A(3,6,5)              108.1628         estimate D2E/DX2                !
 ! A8    A(3,6,7)              125.0426         estimate D2E/DX2                !
 ! A9    A(5,6,7)              126.7945         estimate D2E/DX2                !
 ! D1    D(5,1,2,3)              0.0            estimate D2E/DX2                !
 ! D2    D(2,1,5,6)              0.0            estimate D2E/DX2                !
 ! D3    D(1,2,3,4)            180.0            estimate D2E/DX2                !
 ! D4    D(1,2,3,6)              0.0            estimate D2E/DX2                !
 ! D5    D(2,3,6,5)              0.0            estimate D2E/DX2                !
 ! D6    D(2,3,6,7)            180.0            estimate D2E/DX2                !
 ! D7    D(4,3,6,5)            180.0            estimate D2E/DX2                !
 ! D8    D(4,3,6,7)              0.0            estimate D2E/DX2                !
 ! D9    D(1,5,6,3)              0.0            estimate D2E/DX2                !
 ! D10   D(1,5,6,7)            180.0            estimate D2E/DX2                !
 --------------------------------------------------------------------------------
 Trust Radius=3.00D-01 FncErr=1.00D-07 GrdErr=1.00D-06
 Number of steps in this run=  36 maximum allowed number of steps= 100.
 GradGradGradGradGradGradGradGradGradGradGradGradGradGradGradGradGradGrad

                          Input orientation:                          
 ---------------------------------------------------------------------
 Center     Atomic      Atomic             Coordinates (Angstroms)
 Number     Number       Type             X           Y           Z
 ---------------------------------------------------------------------
      1          7           0       -1.123293   -0.254560    0.000000
      2          7           0       -0.671576    0.913277    0.000000
      3          7           0        0.650545    0.809842    0.000000
      4          1           0        1.224004    1.621891    0.000000
      5          7           0       -0.134646   -1.161053    0.000000
      6          6           0        0.962183   -0.483316    0.000000
      7          1           0        1.955691   -0.874535    0.000000
 ---------------------------------------------------------------------
                    Distance matrix (angstroms):
                    1          2          3          4          5
     1  N    0.000000
     2  N    1.252155   0.000000
     3  N    2.068684   1.326161   0.000000
     4  H    3.005141   2.023699   0.994122   0.000000
     5  N    1.341325   2.142694   2.121545   3.096887   0.000000
     6  C    2.097985   2.149335   1.330179   2.121426   1.289326
     7  H    3.140782   3.177861   2.130852   2.601444   2.109882
                    6          7
     6  C    0.000000
     7  H    1.067760   0.000000
 Stoichiometry    CH2N4
 Framework group  CS[SG(CH2N4)]
 Deg. of freedom    11
 Full point group                 CS      NOp   2
 Largest Abelian subgroup         CS      NOp   2
 Largest concise Abelian subgroup C1      NOp   1
                         Standard orientation:                         
 ---------------------------------------------------------------------
 Center     Atomic      Atomic             Coordinates (Angstroms)
 Number     Number       Type             X           Y           Z
 ---------------------------------------------------------------------
      1          7           0       -0.716312   -0.901934    0.000000
      2          7           0       -1.095520    0.291420    0.000000
      3          7           0        0.000000    1.038775    0.000000
      4          1           0       -0.061479    2.030994    0.000000
      5          7           0        0.622151   -0.989495    0.000000
      6          6           0        1.052813    0.225779    0.000000
      7          1           0        2.072370    0.542976    0.000000
 ---------------------------------------------------------------------
 Rotational constants (GHZ):     10.9198664     10.7343935      5.4131678
 Standard basis: 6-31G(d) (6D, 7F)
 There are    59 symmetry adapted basis functions of A'  symmetry.
 There are    20 symmetry adapted basis functions of A"  symmetry.
 Integral buffers will be    131072 words long.
 Raffenetti 2 integral format.
 Two-electron integral symmetry is turned on.
    79 basis functions,   148 primitive gaussians,    79 cartesian basis functions
    18 alpha electrons       18 beta electrons
       nuclear repulsion energy       169.8288292541 Hartrees.
 NAtoms=    7 NActive=    7 NUniq=    7 SFac= 7.50D-01 NAtFMM=   80 NAOKFM=F Big=F
 One-electron integrals computed using PRISM.
 NBasis=    79 RedAO= T  NBF=    59    20
 NBsUse=    79 1.00D-06 NBFU=    59    20
 Harris functional with IExCor= 1009 diagonalized for initial guess.
 ExpMin= 1.61D-01 ExpMax= 4.17D+03 ExpMxC= 6.27D+02 IAcc=1 IRadAn=         1 AccDes= 0.00D+00
 HarFok:  IExCor= 1009 AccDes= 0.00D+00 IRadAn=         1 IDoV= 1
 ScaDFX=  1.000000  1.000000  1.000000  1.000000
 FoFCou: FMM=F IPFlag=           0 FMFlag=      100000 FMFlg1=           0
         NFxFlg=           0 DoJE=T BraDBF=F KetDBF=T FulRan=T
         Omega=  0.000000  0.000000  1.000000  0.000000  0.000000 ICntrl=     500 IOpCl=  0
         NMat0=    1 NMatS0=    1 NMatT0=    0 NMatD0=    1 NMtDS0=    0 NMtDT0=    0
         I1Cent=           4 NGrid=           0.
 Petite list used in FoFCou.
 Initial guess orbital symmetries:
       Occupied  (A') (A') (A') (A') (A') (A') (A') (A') (A') (A')
                 (A') (A') (A") (A') (A") (A') (A") (A')
       Virtual   (A") (A") (A') (A') (A') (A') (A') (A') (A') (A')
                 (A") (A') (A') (A') (A') (A') (A") (A") (A') (A")
                 (A') (A") (A') (A') (A') (A') (A') (A') (A') (A")
                 (A") (A") (A') (A') (A") (A") (A') (A') (A') (A')
                 (A') (A') (A") (A") (A') (A') (A") (A") (A') (A')
                 (A") (A') (A') (A') (A') (A') (A') (A') (A') (A')
                 (A')
 The electronic state of the initial guess is 1-A'.
 Requested convergence on RMS density matrix=1.00D-08 within 128 cycles.
 Requested convergence on MAX density matrix=1.00D-06.
 Requested convergence on             energy=1.00D-06.
 No special actions if energy rises.
 Keep R1 ints in memory in canonical form, NReq=5987227.
 Integral accuracy reduced to 1.0D-05 until final iterations.
 Initial convergence to 1.0D-05 achieved.  Increase integral accuracy.
 SCF Done:  E(RM062X) =  -258.148394277     A.U. after   16 cycles
             Convg  =    0.4477D-08             -V/T =  2.0067

 **********************************************************************

            Population analysis using the SCF density.

 **********************************************************************

 Orbital symmetries:
       Occupied  (A') (A') (A') (A') (A') (A') (A') (A') (A') (A')
                 (A') (A") (A') (A') (A") (A") (A') (A')
       Virtual   (A") (A") (A') (A') (A') (A') (A') (A') (A') (A")
                 (A') (A') (A') (A') (A") (A') (A') (A") (A') (A")
                 (A') (A") (A') (A') (A') (A') (A') (A') (A') (A")
                 (A") (A") (A') (A') (A") (A") (A') (A') (A') (A')
                 (A') (A') (A") (A") (A') (A') (A") (A") (A') (A')
                 (A") (A') (A') (A') (A') (A') (A') (A') (A') (A')
                 (A')
 The electronic state is 1-A'.
 Alpha  occ. eigenvalues --  -14.87382 -14.84030 -14.82002 -14.78771 -10.63701
 Alpha  occ. eigenvalues --   -1.28899  -1.06623  -1.01335  -0.77468  -0.75890
 Alpha  occ. eigenvalues --   -0.68799  -0.59254  -0.57497  -0.46112  -0.39713
 Alpha  occ. eigenvalues --   -0.37534  -0.37337  -0.35798
 Alpha virt. eigenvalues --    0.03759   0.07940   0.10681   0.16326   0.24929
 Alpha virt. eigenvalues --    0.25584   0.35336   0.37888   0.49906   0.56951
 Alpha virt. eigenvalues --    0.58038   0.65426   0.66034   0.72313   0.72819
 Alpha virt. eigenvalues --    0.73904   0.75282   0.76959   0.78630   0.85540
 Alpha virt. eigenvalues --    0.88442   0.89974   0.90225   0.92895   0.98643
 Alpha virt. eigenvalues --    1.05390   1.09929   1.13461   1.28223   1.32958
 Alpha virt. eigenvalues --    1.39224   1.42933   1.45041   1.50456   1.61771
 Alpha virt. eigenvalues --    1.63634   1.70420   1.92727   2.01142   2.09807
 Alpha virt. eigenvalues --    2.13603   2.23881   2.24932   2.30157   2.38075
 Alpha virt. eigenvalues --    2.42562   2.43925   2.50933   2.59723   2.60866
 Alpha virt. eigenvalues --    2.70212   2.71941   2.76419   3.01440   3.04244
 Alpha virt. eigenvalues --    3.08738   3.52683   3.65320   4.00375   4.07818
 Alpha virt. eigenvalues --    4.19673
          Condensed to atoms (all electrons):
              1          2          3          4          5          6
     1  N    6.696541   0.296560  -0.098319   0.006414   0.283535  -0.108961
     2  N    0.296560   6.761168   0.197897  -0.024627  -0.086421  -0.117293
     3  N   -0.098319   0.197897   6.851336   0.315350  -0.077143   0.310258
     4  H    0.006414  -0.024627   0.315350   0.329133   0.005208  -0.024120
     5  N    0.283535  -0.086421  -0.077143   0.005208   6.782486   0.440671
     6  C   -0.108961  -0.117293   0.310258  -0.024120   0.440671   4.847854
     7  H    0.004493   0.002322  -0.042701   0.000945  -0.028962   0.386278
              7
     1  N    0.004493
     2  N    0.002322
     3  N   -0.042701
     4  H    0.000945
     5  N   -0.028962
     6  C    0.386278
     7  H    0.448714
 Mulliken atomic charges:
              1
     1  N   -0.080264
     2  N   -0.029605
     3  N   -0.456678
     4  H    0.391698
     5  N   -0.319374
     6  C    0.265314
     7  H    0.228909
 Sum of Mulliken atomic charges =   0.00000
 Mulliken charges with hydrogens summed into heavy atoms:
              1
     1  N   -0.080264
     2  N   -0.029605
     3  N   -0.064980
     5  N   -0.319374
     6  C    0.494223
 Sum of Mulliken charges with hydrogens summed into heavy atoms =   0.00000
 Electronic spatial extent (au):  <R**2>=            243.9026
 Charge=              0.0000 electrons
 Dipole moment (field-independent basis, Debye):
    X=              2.4622    Y=              4.7734    Z=              0.0000  Tot=              5.3710
 Quadrupole moment (field-independent basis, Debye-Ang):
   XX=            -28.5522   YY=            -26.0677   ZZ=            -28.1238
   XY=              1.7503   XZ=              0.0000   YZ=              0.0000
 Traceless Quadrupole moment (field-independent basis, Debye-Ang):
   XX=             -0.9709   YY=              1.5135   ZZ=             -0.5426
   XY=              1.7503   XZ=              0.0000   YZ=              0.0000
 Octapole moment (field-independent basis, Debye-Ang**2):
  XXX=             11.4527  YYY=             21.9479  ZZZ=              0.0000  XYY=             -0.6137
  XXY=              4.4793  XXZ=              0.0000  XZZ=             -0.6248  YZZ=              0.5253
  YYZ=              0.0000  XYZ=              0.0000
 Hexadecapole moment (field-independent basis, Debye-Ang**3):
 XXXX=           -137.0309 YYYY=           -115.1348 ZZZZ=            -24.4961 XXXY=              6.1674
 XXXZ=              0.0000 YYYX=             -0.4810 YYYZ=              0.0000 ZZZX=              0.0000
 ZZZY=              0.0000 XXYY=            -51.4715 XXZZ=            -29.2106 YYZZ=            -27.6233
 XXYZ=              0.0000 YYXZ=              0.0000 ZZXY=             -0.1077
 N-N= 1.698288292541D+02 E-N=-9.415408059874D+02  KE= 2.564323495675D+02
 Symmetry A'   KE= 2.471018636948D+02
 Symmetry A"   KE= 9.330485872715D+00
 Calling FoFJK, ICntrl=      2127 FMM=F ISym2X=1 I1Cent= 0 IOpClX= 0 NMat=1 NMatS=1 NMatT=0.
 ***** Axes restored to original set *****
 -------------------------------------------------------------------
 Center     Atomic                   Forces (Hartrees/Bohr)
 Number     Number              X              Y              Z
 -------------------------------------------------------------------
      1        7          -0.025223898   -0.025133813    0.000000000
      2        7          -0.003364046    0.038711722    0.000000000
      3        7           0.004069107    0.002254928    0.000000000
      4        1           0.008141631    0.012419479    0.000000000
      5        7          -0.010397064   -0.024978117    0.000000000
      6        6           0.018723200   -0.000353352    0.000000000
      7        1           0.008051069   -0.002920847    0.000000000
 -------------------------------------------------------------------
 Cartesian Forces:  Max     0.038711722 RMS     0.014101805

 GradGradGradGradGradGradGradGradGradGradGradGradGradGradGradGradGradGrad
 Berny optimization.
 Internal  Forces:  Max     0.037592242 RMS     0.011308611
 Search for a local minimum.
 Step number   1 out of a maximum of   36
 All quantities printed in internal units (Hartrees-Bohrs-Radians)
 Mixed Optimization -- RFO/linear search
 Second derivative matrix not updated -- first step.
     Eigenvalues ---    0.02505   0.02639   0.02674   0.02834   0.16000
     Eigenvalues ---    0.16000   0.22605   0.24688   0.37515   0.48737
     Eigenvalues ---    0.50885   0.56605   0.58506   0.66912   0.78894
     Eigenvalues --- 1000.000001000.000001000.000001000.000001000.00000
     Eigenvalues --- 1000.000001000.000001000.000001000.000001000.00000
     Eigenvalues --- 1000.00000
 RFO step:  Lambda=-4.87664721D-03 EMin= 2.50523105D-02
 Linear search not attempted -- first point.
 Iteration  1 RMS(Cart)=  0.01833937 RMS(Int)=  0.00001960
 Iteration  2 RMS(Cart)=  0.00001793 RMS(Int)=  0.00000780
 Iteration  3 RMS(Cart)=  0.00000000 RMS(Int)=  0.00000780
 ClnCor:  largest displacement from symmetrization is 6.28D-16 for atom     7.
 Variable       Old X    -DE/DX   Delta X   Delta X   Delta X     New X
                                 (Linear)    (Quad)   (Total)
    R1        2.36623   0.03759   0.00000   0.04649   0.04650   2.41273
    R2        2.53474   0.01550   0.00000   0.02822   0.02823   2.56297
    R3        2.50608   0.01697   0.00000   0.02773   0.02773   2.53382
    R4        1.87862   0.01485   0.00000   0.03016   0.03016   1.90878
    R5        2.51367   0.01880   0.00000   0.02969   0.02968   2.54335
    R6        2.43647   0.02679   0.00000   0.03710   0.03710   2.47357
    R7        2.01777   0.00855   0.00000   0.02250   0.02250   2.04028
    A1        1.94380  -0.00165   0.00000   0.00046   0.00048   1.94428
    A2        1.86179  -0.00206   0.00000  -0.00459  -0.00458   1.85722
    A3        2.10759  -0.00153   0.00000  -0.00499  -0.00499   2.10260
    A4        1.88535   0.00218   0.00000   0.00469   0.00468   1.89003
    A5        2.29025  -0.00065   0.00000   0.00031   0.00031   2.29056
    A6        1.84604  -0.00012   0.00000  -0.00112  -0.00113   1.84491
    A7        1.88780   0.00166   0.00000   0.00056   0.00054   1.88834
    A8        2.18241  -0.00101   0.00000  -0.00139  -0.00139   2.18102
    A9        2.21298  -0.00065   0.00000   0.00083   0.00084   2.21382
    D1        0.00000   0.00000   0.00000   0.00000   0.00000   0.00000
    D2        0.00000   0.00000   0.00000   0.00000   0.00000   0.00000
    D3        3.14159   0.00000   0.00000   0.00000   0.00000   3.14159
    D4        0.00000   0.00000   0.00000   0.00000   0.00000   0.00000
    D5        0.00000   0.00000   0.00000   0.00000   0.00000   0.00000
    D6        3.14159   0.00000   0.00000   0.00000   0.00000   3.14159
    D7        3.14159   0.00000   0.00000   0.00000   0.00000   3.14159
    D8        0.00000   0.00000   0.00000   0.00000   0.00000   0.00000
    D9        0.00000   0.00000   0.00000   0.00000   0.00000   0.00000
   D10        3.14159   0.00000   0.00000   0.00000   0.00000   3.14159
         Item               Value     Threshold  Converged?
 Maximum Force            0.037592     0.000450     NO 
 RMS     Force            0.011309     0.000300     NO 
 Maximum Displacement     0.040246     0.001800     NO 
 RMS     Displacement     0.018335     0.001200     NO 
 Predicted change in Energy=-2.456408D-03
 GradGradGradGradGradGradGradGradGradGradGradGradGradGradGradGradGradGrad

                          Input orientation:                          
 ---------------------------------------------------------------------
 Center     Atomic      Atomic             Coordinates (Angstroms)
 Number     Number       Type             X           Y           Z
 ---------------------------------------------------------------------
      1          7           0       -1.143163   -0.262794    0.000000
      2          7           0       -0.682851    0.928103    0.000000
      3          7           0        0.653435    0.817723    0.000000
      4          1           0        1.235566    1.643188    0.000000
      5          7           0       -0.143731   -1.179630    0.000000
      6          6           0        0.969192   -0.490596    0.000000
      7          1           0        1.974461   -0.884448    0.000000
 ---------------------------------------------------------------------
                    Distance matrix (angstroms):
                    1          2          3          4          5
     1  N    0.000000
     2  N    1.276762   0.000000
     3  N    2.096492   1.340837   0.000000
     4  H    3.048133   2.047357   1.010084   0.000000
     5  N    1.356264   2.175589   2.150557   3.141778   0.000000
     6  C    2.124603   2.177602   1.345883   2.150346   1.308957
     7  H    3.178998   3.216620   2.154645   2.633422   2.138661
                    6          7
     6  C    0.000000
     7  H    1.079669   0.000000
 Stoichiometry    CH2N4
 Framework group  CS[SG(CH2N4)]
 Deg. of freedom    11
 Full point group                 CS      NOp   2
 Largest Abelian subgroup         CS      NOp   2
 Largest concise Abelian subgroup C1      NOp   1
                         Standard orientation:                         
 ---------------------------------------------------------------------
 Center     Atomic      Atomic             Coordinates (Angstroms)
 Number     Number       Type             X           Y           Z
 ---------------------------------------------------------------------
      1          7           0       -0.723311   -0.916427    0.000000
      2          7           0       -1.110663    0.300158    0.000000
      3          7           0        0.000000    1.051338    0.000000
      4          1           0       -0.063455    2.059427    0.000000
      5          7           0        0.630067   -1.004850    0.000000
      6          6           0        1.065791    0.229456    0.000000
      7          1           0        2.096059    0.552307    0.000000
 ---------------------------------------------------------------------
 Rotational constants (GHZ):     10.6285644     10.4479937      5.2687528
 Standard basis: 6-31G(d) (6D, 7F)
 There are    59 symmetry adapted basis functions of A'  symmetry.
 There are    20 symmetry adapted basis functions of A"  symmetry.
 Integral buffers will be    131072 words long.
 Raffenetti 2 integral format.
 Two-electron integral symmetry is turned on.
    79 basis functions,   148 primitive gaussians,    79 cartesian basis functions
    18 alpha electrons       18 beta electrons
       nuclear repulsion energy       167.5272671005 Hartrees.
 NAtoms=    7 NActive=    7 NUniq=    7 SFac= 7.50D-01 NAtFMM=   80 NAOKFM=F Big=F
 One-electron integrals computed using PRISM.
 NBasis=    79 RedAO= T  NBF=    59    20
 NBsUse=    79 1.00D-06 NBFU=    59    20
 Initial guess read from the read-write file.
 B after Tr=     0.000000    0.000000    0.000000
         Rot=    1.000000    0.000000    0.000000    0.000000 Ang=   0.00 deg.
 Initial guess orbital symmetries:
       Occupied  (A') (A') (A') (A') (A') (A') (A') (A') (A') (A')
                 (A') (A") (A') (A') (A") (A") (A') (A')
       Virtual   (A") (A") (A') (A') (A') (A') (A') (A') (A') (A")
                 (A') (A') (A') (A') (A") (A') (A') (A") (A') (A")
                 (A') (A") (A') (A') (A') (A') (A') (A') (A') (A")
                 (A") (A") (A') (A') (A") (A") (A') (A') (A') (A')
                 (A') (A') (A") (A") (A') (A') (A") (A") (A') (A')
                 (A") (A') (A') (A') (A') (A') (A') (A') (A') (A')
                 (A')
 Harris functional with IExCor= 1009 diagonalized for initial guess.
 ExpMin= 1.61D-01 ExpMax= 4.17D+03 ExpMxC= 6.27D+02 IAcc=1 IRadAn=         1 AccDes= 0.00D+00
 HarFok:  IExCor= 1009 AccDes= 0.00D+00 IRadAn=         1 IDoV= 1
 ScaDFX=  1.000000  1.000000  1.000000  1.000000
 FoFCou: FMM=F IPFlag=           0 FMFlag=      100000 FMFlg1=           0
         NFxFlg=           0 DoJE=T BraDBF=F KetDBF=T FulRan=T
         Omega=  0.000000  0.000000  1.000000  0.000000  0.000000 ICntrl=     500 IOpCl=  0
         NMat0=    1 NMatS0=    1 NMatT0=    0 NMatD0=    1 NMtDS0=    0 NMtDT0=    0
         I1Cent=           4 NGrid=           0.
 Petite list used in FoFCou.
 Requested convergence on RMS density matrix=1.00D-08 within 128 cycles.
 Requested convergence on MAX density matrix=1.00D-06.
 Requested convergence on             energy=1.00D-06.
 No special actions if energy rises.
 Keep R1 ints in memory in canonical form, NReq=5987373.
 Integral accuracy reduced to 1.0D-05 until final iterations.
 Initial convergence to 1.0D-05 achieved.  Increase integral accuracy.
 SCF Done:  E(RM062X) =  -258.150845858     A.U. after   14 cycles
             Convg  =    0.5025D-08             -V/T =  2.0079
 Calling FoFJK, ICntrl=      2127 FMM=F ISym2X=1 I1Cent= 0 IOpClX= 0 NMat=1 NMatS=1 NMatT=0.
 ***** Axes restored to original set *****
 -------------------------------------------------------------------
 Center     Atomic                   Forces (Hartrees/Bohr)
 Number     Number              X              Y              Z
 -------------------------------------------------------------------
      1        7          -0.000780748   -0.004928264    0.000000000
      2        7           0.001393840    0.005841425    0.000000000
      3        7          -0.000285134   -0.003455240    0.000000000
      4        1          -0.000350855   -0.000143489    0.000000000
      5        7          -0.000510662    0.000570194    0.000000000
      6        6           0.001134780    0.001753360    0.000000000
      7        1          -0.000601221    0.000362013    0.000000000
 -------------------------------------------------------------------
 Cartesian Forces:  Max     0.005841425 RMS     0.001934234

 GradGradGradGradGradGradGradGradGradGradGradGradGradGradGradGradGradGrad
 Berny optimization.
 Using GEDIIS/GDIIS optimizer.
 Internal  Forces:  Max     0.004332669 RMS     0.001080131
 Search for a local minimum.
 Step number   2 out of a maximum of   36
 All quantities printed in internal units (Hartrees-Bohrs-Radians)
 Mixed Optimization -- RFO/linear search
 Update second derivatives using D2CorX and points    1    2
 DE= -2.45D-03 DEPred=-2.46D-03 R= 9.98D-01
 SS=  1.41D+00  RLast= 8.65D-02 DXNew= 5.0454D-01 2.5935D-01
 Trust test= 9.98D-01 RLast= 8.65D-02 DXMaxT set to 3.00D-01
 Use linear search instead of GDIIS.
     Eigenvalues ---    0.02506   0.02639   0.02674   0.02834   0.15993
     Eigenvalues ---    0.16000   0.22502   0.24633   0.37786   0.48921
     Eigenvalues ---    0.50928   0.56644   0.61125   0.67951   0.73066
     Eigenvalues --- 1000.000001000.000001000.000001000.000001000.00000
     Eigenvalues --- 1000.000001000.000001000.000001000.000001000.00000
     Eigenvalues --- 1000.00000
 RFO step:  Lambda=-5.47453026D-05 EMin= 2.50579915D-02
 Quartic linear search produced a step of  0.02815.
 Iteration  1 RMS(Cart)=  0.00190990 RMS(Int)=  0.00000449
 Iteration  2 RMS(Cart)=  0.00000397 RMS(Int)=  0.00000197
 Iteration  3 RMS(Cart)=  0.00000000 RMS(Int)=  0.00000197
 ClnCor:  largest displacement from symmetrization is 4.97D-16 for atom     7.
 Variable       Old X    -DE/DX   Delta X   Delta X   Delta X     New X
                                 (Linear)    (Quad)   (Total)
    R1        2.41273   0.00433   0.00131   0.00512   0.00643   2.41916
    R2        2.56297  -0.00067   0.00079  -0.00122  -0.00043   2.56254
    R3        2.53382  -0.00019   0.00078  -0.00075   0.00003   2.53384
    R4        1.90878  -0.00032   0.00085  -0.00111  -0.00026   1.90852
    R5        2.54335  -0.00187   0.00084  -0.00429  -0.00345   2.53990
    R6        2.47357   0.00025   0.00104  -0.00052   0.00052   2.47409
    R7        2.04028  -0.00070   0.00063  -0.00223  -0.00160   2.03868
    A1        1.94428  -0.00043   0.00001   0.00078   0.00079   1.94507
    A2        1.85722  -0.00167  -0.00013  -0.00533  -0.00545   1.85176
    A3        2.10260  -0.00095  -0.00014  -0.00377  -0.00391   2.09869
    A4        1.89003   0.00158   0.00013   0.00551   0.00565   1.89567
    A5        2.29056  -0.00063   0.00001  -0.00174  -0.00174   2.28882
    A6        1.84491   0.00033  -0.00003   0.00085   0.00081   1.84572
    A7        1.88834   0.00019   0.00002  -0.00181  -0.00180   1.88654
    A8        2.18102  -0.00018  -0.00004   0.00038   0.00034   2.18136
    A9        2.21382  -0.00001   0.00002   0.00143   0.00146   2.21528
    D1        0.00000   0.00000   0.00000   0.00000   0.00000   0.00000
    D2        0.00000   0.00000   0.00000   0.00000   0.00000   0.00000
    D3        3.14159   0.00000   0.00000   0.00000   0.00000   3.14159
    D4        0.00000   0.00000   0.00000   0.00000   0.00000   0.00000
    D5        0.00000   0.00000   0.00000   0.00000   0.00000   0.00000
    D6        3.14159   0.00000   0.00000   0.00000   0.00000   3.14159
    D7        3.14159   0.00000   0.00000   0.00000   0.00000   3.14159
    D8        0.00000   0.00000   0.00000   0.00000   0.00000   0.00000
    D9        0.00000   0.00000   0.00000   0.00000   0.00000   0.00000
   D10        3.14159   0.00000   0.00000   0.00000   0.00000   3.14159
         Item               Value     Threshold  Converged?
 Maximum Force            0.004333     0.000450     NO 
 RMS     Force            0.001080     0.000300     NO 
 Maximum Displacement     0.006277     0.001800     NO 
 RMS     Displacement     0.001910     0.001200     NO 
 Predicted change in Energy=-2.899339D-05
 GradGradGradGradGradGradGradGradGradGradGradGradGradGradGradGradGradGrad

                          Input orientation:                          
 ---------------------------------------------------------------------
 Center     Atomic      Atomic             Coordinates (Angstroms)
 Number     Number       Type             X           Y           Z
 ---------------------------------------------------------------------
      1          7           0       -1.143111   -0.263252    0.000000
      2          7           0       -0.683145    0.931424    0.000000
      3          7           0        0.652688    0.815516    0.000000
      4          1           0        1.234926    1.640736    0.000000
      5          7           0       -0.143367   -1.179410    0.000000
      6          6           0        0.969988   -0.490550    0.000000
      7          1           0        1.974929   -0.882917    0.000000
 ---------------------------------------------------------------------
                    Distance matrix (angstroms):
                    1          2          3          4          5
     1  N    0.000000
     2  N    1.280164   0.000000
     3  N    2.094907   1.340853   0.000000
     4  H    3.046347   2.045023   1.009945   0.000000
     5  N    1.356036   2.178758   2.147891   3.138935   0.000000
     6  C    2.125289   2.180565   1.344056   2.147690   1.309232
     7  H    3.179018   3.218260   2.152440   2.629911   2.138945
                    6          7
     6  C    0.000000
     7  H    1.078822   0.000000
 Stoichiometry    CH2N4
 Framework group  CS[SG(CH2N4)]
 Deg. of freedom    11
 Full point group                 CS      NOp   2
 Largest Abelian subgroup         CS      NOp   2
 Largest concise Abelian subgroup C1      NOp   1
                         Standard orientation:                         
 ---------------------------------------------------------------------
 Center     Atomic      Atomic             Coordinates (Angstroms)
 Number     Number       Type             X           Y           Z
 ---------------------------------------------------------------------
      1          7           0       -0.722114   -0.917489    0.000000
      2          7           0       -1.113140    0.301494    0.000000
      3          7           0        0.000000    1.049027    0.000000
      4          1           0       -0.064074    2.056938    0.000000
      5          7           0        0.631157   -1.004037    0.000000
      6          6           0        1.066278    0.230774    0.000000
      7          1           0        2.095084    0.555451    0.000000
 ---------------------------------------------------------------------
 Rotational constants (GHZ):     10.6372753     10.4333951      5.2671744
 Standard basis: 6-31G(d) (6D, 7F)
 There are    59 symmetry adapted basis functions of A'  symmetry.
 There are    20 symmetry adapted basis functions of A"  symmetry.
 Integral buffers will be    131072 words long.
 Raffenetti 2 integral format.
 Two-electron integral symmetry is turned on.
    79 basis functions,   148 primitive gaussians,    79 cartesian basis functions
    18 alpha electrons       18 beta electrons
       nuclear repulsion energy       167.4945959286 Hartrees.
 NAtoms=    7 NActive=    7 NUniq=    7 SFac= 7.50D-01 NAtFMM=   80 NAOKFM=F Big=F
 One-electron integrals computed using PRISM.
 NBasis=    79 RedAO= T  NBF=    59    20
 NBsUse=    79 1.00D-06 NBFU=    59    20
 Initial guess read from the read-write file.
 B after Tr=     0.000000    0.000000    0.000000
         Rot=    1.000000    0.000000    0.000000    0.000000 Ang=   0.00 deg.
 Initial guess orbital symmetries:
       Occupied  (A') (A') (A') (A') (A') (A') (A') (A') (A') (A')
                 (A') (A") (A') (A') (A") (A') (A") (A')
       Virtual   (A") (A") (A') (A') (A') (A') (A') (A') (A') (A")
                 (A') (A') (A') (A') (A') (A") (A') (A") (A') (A")
                 (A') (A") (A') (A') (A') (A') (A') (A') (A') (A")
                 (A") (A") (A') (A') (A") (A") (A') (A') (A') (A')
                 (A') (A') (A") (A") (A') (A') (A") (A") (A') (A')
                 (A") (A') (A') (A') (A') (A') (A') (A') (A') (A')
                 (A')
 Requested convergence on RMS density matrix=1.00D-08 within 128 cycles.
 Requested convergence on MAX density matrix=1.00D-06.
 Requested convergence on             energy=1.00D-06.
 No special actions if energy rises.
 Keep R1 ints in memory in canonical form, NReq=5987373.
 SCF Done:  E(RM062X) =  -258.150878748     A.U. after   10 cycles
             Convg  =    0.4035D-08             -V/T =  2.0079
 Calling FoFJK, ICntrl=      2127 FMM=F ISym2X=1 I1Cent= 0 IOpClX= 0 NMat=1 NMatS=1 NMatT=0.
 ***** Axes restored to original set *****
 -------------------------------------------------------------------
 Center     Atomic                   Forces (Hartrees/Bohr)
 Number     Number              X              Y              Z
 -------------------------------------------------------------------
      1        7          -0.000315977   -0.002676865    0.000000000
      2        7           0.001691024    0.000769801    0.000000000
      3        7           0.000130895   -0.000176344    0.000000000
      4        1          -0.000039702   -0.000069176    0.000000000
      5        7          -0.001401248    0.000772312    0.000000000
      6        6          -0.000004544    0.001284292    0.000000000
      7        1          -0.000060448    0.000095979    0.000000000
 -------------------------------------------------------------------
 Cartesian Forces:  Max     0.002676865 RMS     0.000844998

 GradGradGradGradGradGradGradGradGradGradGradGradGradGradGradGradGradGrad
 Berny optimization.
 Using GEDIIS/GDIIS optimizer.
 Internal  Forces:  Max     0.001660506 RMS     0.000571483
 Search for a local minimum.
 Step number   3 out of a maximum of   36
 All quantities printed in internal units (Hartrees-Bohrs-Radians)
 Mixed Optimization -- En-DIIS/RFO-DIIS
 Update second derivatives using D2CorX and points    1    2    3
 DE= -3.29D-05 DEPred=-2.90D-05 R= 1.13D+00
 SS=  1.41D+00  RLast= 1.20D-02 DXNew= 5.0454D-01 3.5875D-02
 Trust test= 1.13D+00 RLast= 1.20D-02 DXMaxT set to 3.00D-01
 Use linear search instead of GDIIS.
     Eigenvalues ---    0.02506   0.02638   0.02674   0.02834   0.15927
     Eigenvalues ---    0.16016   0.22913   0.32684   0.35278   0.39164
     Eigenvalues ---    0.49117   0.52685   0.61608   0.67667   0.71165
     Eigenvalues --- 1000.000001000.000001000.000001000.000001000.00000
     Eigenvalues --- 1000.000001000.000001000.000001000.000001000.00000
     Eigenvalues --- 1000.00000
 RFO step:  Lambda=-2.02708397D-05 EMin= 2.50590809D-02
 Quartic linear search produced a step of  0.12577.
 Iteration  1 RMS(Cart)=  0.00138448 RMS(Int)=  0.00000082
 Iteration  2 RMS(Cart)=  0.00000058 RMS(Int)=  0.00000041
 ClnCor:  largest displacement from symmetrization is 4.44D-16 for atom     4.
 Variable       Old X    -DE/DX   Delta X   Delta X   Delta X     New X
                                 (Linear)    (Quad)   (Total)
    R1        2.41916   0.00166   0.00081   0.00399   0.00479   2.42395
    R2        2.56254  -0.00148  -0.00005  -0.00279  -0.00284   2.55969
    R3        2.53384  -0.00062   0.00000  -0.00098  -0.00097   2.53287
    R4        1.90852  -0.00008  -0.00003  -0.00007  -0.00010   1.90842
    R5        2.53990  -0.00096  -0.00043  -0.00253  -0.00296   2.53694
    R6        2.47409   0.00080   0.00007   0.00149   0.00156   2.47565
    R7        2.03868  -0.00010  -0.00020  -0.00050  -0.00071   2.03797
    A1        1.94507  -0.00081   0.00010  -0.00284  -0.00274   1.94233
    A2        1.85176   0.00059  -0.00069   0.00198   0.00129   1.85306
    A3        2.09869   0.00025  -0.00049   0.00069   0.00020   2.09888
    A4        1.89567  -0.00043   0.00071  -0.00133  -0.00062   1.89506
    A5        2.28882   0.00018  -0.00022   0.00064   0.00042   2.28924
    A6        1.84572   0.00025   0.00010   0.00113   0.00123   1.84696
    A7        1.88654   0.00040  -0.00023   0.00106   0.00084   1.88738
    A8        2.18136  -0.00024   0.00004  -0.00090  -0.00086   2.18050
    A9        2.21528  -0.00016   0.00018  -0.00016   0.00002   2.21531
    D1        0.00000   0.00000   0.00000   0.00000   0.00000   0.00000
    D2        0.00000   0.00000   0.00000   0.00000   0.00000   0.00000
    D3        3.14159   0.00000   0.00000   0.00000   0.00000   3.14159
    D4        0.00000   0.00000   0.00000   0.00000   0.00000   0.00000
    D5        0.00000   0.00000   0.00000   0.00000   0.00000   0.00000
    D6        3.14159   0.00000   0.00000   0.00000   0.00000   3.14159
    D7        3.14159   0.00000   0.00000   0.00000   0.00000   3.14159
    D8        0.00000   0.00000   0.00000   0.00000   0.00000   0.00000
    D9        0.00000   0.00000   0.00000   0.00000   0.00000   0.00000
   D10        3.14159   0.00000   0.00000   0.00000   0.00000   3.14159
         Item               Value     Threshold  Converged?
 Maximum Force            0.001661     0.000450     NO 
 RMS     Force            0.000571     0.000300     NO 
 Maximum Displacement     0.003829     0.001800     NO 
 RMS     Displacement     0.001385     0.001200     NO 
 Predicted change in Energy=-1.060780D-05
 GradGradGradGradGradGradGradGradGradGradGradGradGradGradGradGradGradGrad

                          Input orientation:                          
 ---------------------------------------------------------------------
 Center     Atomic      Atomic             Coordinates (Angstroms)
 Number     Number       Type             X           Y           Z
 ---------------------------------------------------------------------
      1          7           0       -1.144257   -0.265278    0.000000
      2          7           0       -0.681812    0.931161    0.000000
      3          7           0        0.653506    0.815273    0.000000
      4          1           0        1.235890    1.640325    0.000000
      5          7           0       -0.144311   -1.178986    0.000000
      6          6           0        0.969606   -0.489471    0.000000
      7          1           0        1.974287   -0.881478    0.000000
 ---------------------------------------------------------------------
                    Distance matrix (angstroms):
                    1          2          3          4          5
     1  N    0.000000
     2  N    1.282701   0.000000
     3  N    2.097509   1.340338   0.000000
     4  H    3.049004   2.044626   1.009892   0.000000
     5  N    1.354531   2.177528   2.147926   3.139024   0.000000
     6  C    2.125719   2.178389   1.342489   2.146378   1.310055
     7  H    3.178839   3.215668   2.150215   2.627683   2.139385
                    6          7
     6  C    0.000000
     7  H    1.078449   0.000000
 Stoichiometry    CH2N4
 Framework group  CS[SG(CH2N4)]
 Deg. of freedom    11
 Full point group                 CS      NOp   2
 Largest Abelian subgroup         CS      NOp   2
 Largest concise Abelian subgroup C1      NOp   1
                         Standard orientation:                         
 ---------------------------------------------------------------------
 Center     Atomic      Atomic             Coordinates (Angstroms)
 Number     Number       Type             X           Y           Z
 ---------------------------------------------------------------------
      1          7           0       -0.721219   -0.920081    0.000000
      2          7           0       -1.112229    0.301571    0.000000
      3          7           0        0.000000    1.049536    0.000000
      4          1           0       -0.064524    2.057364    0.000000
      5          7           0        0.630729   -1.003697    0.000000
      6          6           0        1.065057    0.232266    0.000000
      7          1           0        2.093219    0.557742    0.000000
 ---------------------------------------------------------------------
 Rotational constants (GHZ):     10.6190584     10.4526667      5.2676028
 Standard basis: 6-31G(d) (6D, 7F)
 There are    59 symmetry adapted basis functions of A'  symmetry.
 There are    20 symmetry adapted basis functions of A"  symmetry.
 Integral buffers will be    131072 words long.
 Raffenetti 2 integral format.
 Two-electron integral symmetry is turned on.
    79 basis functions,   148 primitive gaussians,    79 cartesian basis functions
    18 alpha electrons       18 beta electrons
       nuclear repulsion energy       167.4950470880 Hartrees.
 NAtoms=    7 NActive=    7 NUniq=    7 SFac= 7.50D-01 NAtFMM=   80 NAOKFM=F Big=F
 One-electron integrals computed using PRISM.
 NBasis=    79 RedAO= T  NBF=    59    20
 NBsUse=    79 1.00D-06 NBFU=    59    20
 Initial guess read from the read-write file.
 B after Tr=     0.000000    0.000000    0.000000
         Rot=    1.000000    0.000000    0.000000    0.000000 Ang=   0.00 deg.
 Initial guess orbital symmetries:
       Occupied  (A') (A') (A') (A') (A') (A') (A') (A') (A') (A')
                 (A') (A") (A') (A') (A") (A') (A") (A')
       Virtual   (A") (A") (A') (A') (A') (A') (A') (A') (A') (A")
                 (A') (A') (A') (A') (A') (A") (A') (A") (A') (A")
                 (A') (A") (A') (A') (A') (A') (A') (A') (A') (A")
                 (A") (A") (A') (A') (A") (A") (A') (A') (A') (A')
                 (A') (A') (A") (A") (A') (A') (A") (A") (A') (A')
                 (A") (A') (A') (A') (A') (A') (A') (A') (A') (A')
                 (A')
 Requested convergence on RMS density matrix=1.00D-08 within 128 cycles.
 Requested convergence on MAX density matrix=1.00D-06.
 Requested convergence on             energy=1.00D-06.
 No special actions if energy rises.
 Keep R1 ints in memory in canonical form, NReq=5987373.
 SCF Done:  E(RM062X) =  -258.150886808     A.U. after   10 cycles
             Convg  =    0.4254D-08             -V/T =  2.0079
 Calling FoFJK, ICntrl=      2127 FMM=F ISym2X=1 I1Cent= 0 IOpClX= 0 NMat=1 NMatS=1 NMatT=0.
 ***** Axes restored to original set *****
 -------------------------------------------------------------------
 Center     Atomic                   Forces (Hartrees/Bohr)
 Number     Number              X              Y              Z
 -------------------------------------------------------------------
      1        7           0.001527361    0.000105849    0.000000000
      2        7          -0.000117961   -0.000034841    0.000000000
      3        7          -0.000999240    0.000087693    0.000000000
      4        1          -0.000060291   -0.000004410    0.000000000
      5        7          -0.000617355    0.000285555    0.000000000
      6        6           0.000116522   -0.000298748    0.000000000
      7        1           0.000150964   -0.000141099    0.000000000
 -------------------------------------------------------------------
 Cartesian Forces:  Max     0.001527361 RMS     0.000435189

 GradGradGradGradGradGradGradGradGradGradGradGradGradGradGradGradGradGrad
 Berny optimization.
 Using GEDIIS/GDIIS optimizer.
 Internal  Forces:  Max     0.000815589 RMS     0.000317329
 Search for a local minimum.
 Step number   4 out of a maximum of   36
 All quantities printed in internal units (Hartrees-Bohrs-Radians)
 Mixed Optimization -- En-DIIS/RFO-DIIS
 Swaping is turned off.
 Update second derivatives using D2CorX and points    1    2    3    4
 DE= -8.06D-06 DEPred=-1.06D-05 R= 7.60D-01
 SS=  1.41D+00  RLast= 7.52D-03 DXNew= 5.0454D-01 2.2546D-02
 Trust test= 7.60D-01 RLast= 7.52D-03 DXMaxT set to 3.00D-01
     Eigenvalues ---    0.02506   0.02638   0.02675   0.02835   0.15968
     Eigenvalues ---    0.16088   0.22703   0.25459   0.37985   0.47580
     Eigenvalues ---    0.49743   0.53463   0.62861   0.69713   0.71937
     Eigenvalues --- 1000.000001000.000001000.000001000.000001000.00000
     Eigenvalues --- 1000.000001000.000001000.000001000.000001000.00000
     Eigenvalues --- 1000.00000
 En-DIIS/RFO-DIIS IScMMF=        0 using points:     4    3
 RFO step:  Lambda=-3.44327438D-06.
 DIIS coeffs:      0.79027      0.20973
 Iteration  1 RMS(Cart)=  0.00059373 RMS(Int)=  0.00000034
 Iteration  2 RMS(Cart)=  0.00000024 RMS(Int)=  0.00000018
 ClnCor:  largest displacement from symmetrization is 1.88D-15 for atom     4.
 Variable       Old X    -DE/DX   Delta X   Delta X   Delta X     New X
                                  (DIIS)     (GDIIS)  (Total)
    R1        2.42395  -0.00054  -0.00101   0.00090  -0.00010   2.42385
    R2        2.55969  -0.00072   0.00060  -0.00211  -0.00151   2.55818
    R3        2.53287  -0.00057   0.00020  -0.00110  -0.00090   2.53198
    R4        1.90842  -0.00003   0.00002  -0.00007  -0.00005   1.90837
    R5        2.53694   0.00044   0.00062  -0.00023   0.00040   2.53733
    R6        2.47565  -0.00022  -0.00033   0.00036   0.00003   2.47568
    R7        2.03797   0.00019   0.00015   0.00022   0.00037   2.03834
    A1        1.94233   0.00082   0.00058   0.00114   0.00171   1.94404
    A2        1.85306  -0.00050  -0.00027  -0.00113  -0.00140   1.85165
    A3        2.09888  -0.00013  -0.00004  -0.00040  -0.00044   2.09845
    A4        1.89506   0.00023   0.00013   0.00063   0.00076   1.89582
    A5        2.28924  -0.00010  -0.00009  -0.00024  -0.00032   2.28892
    A6        1.84696  -0.00028  -0.00026  -0.00044  -0.00070   1.84625
    A7        1.88738  -0.00027  -0.00018  -0.00020  -0.00037   1.88701
    A8        2.18050   0.00024   0.00018   0.00050   0.00069   2.18118
    A9        2.21531   0.00003  -0.00001  -0.00031  -0.00031   2.21499
    D1        0.00000   0.00000   0.00000   0.00000   0.00000   0.00000
    D2        0.00000   0.00000   0.00000   0.00000   0.00000   0.00000
    D3        3.14159   0.00000   0.00000   0.00000   0.00000   3.14159
    D4        0.00000   0.00000   0.00000   0.00000   0.00000   0.00000
    D5        0.00000   0.00000   0.00000   0.00000   0.00000   0.00000
    D6        3.14159   0.00000   0.00000   0.00000   0.00000   3.14159
    D7        3.14159   0.00000   0.00000   0.00000   0.00000   3.14159
    D8        0.00000   0.00000   0.00000   0.00000   0.00000   0.00000
    D9        0.00000   0.00000   0.00000   0.00000   0.00000   0.00000
   D10        3.14159   0.00000   0.00000   0.00000   0.00000   3.14159
         Item               Value     Threshold  Converged?
 Maximum Force            0.000816     0.000450     NO 
 RMS     Force            0.000317     0.000300     NO 
 Maximum Displacement     0.002243     0.001800     NO 
 RMS     Displacement     0.000594     0.001200     YES
 Predicted change in Energy=-2.354952D-06
 GradGradGradGradGradGradGradGradGradGradGradGradGradGradGradGradGradGrad

                          Input orientation:                          
 ---------------------------------------------------------------------
 Center     Atomic      Atomic             Coordinates (Angstroms)
 Number     Number       Type             X           Y           Z
 ---------------------------------------------------------------------
      1          7           0       -1.143070   -0.265153    0.000000
      2          7           0       -0.681820    0.931688    0.000000
      3          7           0        0.652977    0.815281    0.000000
      4          1           0        1.235333    1.640322    0.000000
      5          7           0       -0.144383   -1.179050    0.000000
      6          6           0        0.969572   -0.489559    0.000000
      7          1           0        1.974299   -0.881983    0.000000
 ---------------------------------------------------------------------
                    Distance matrix (angstroms):
                    1          2          3          4          5
     1  N    0.000000
     2  N    1.282645   0.000000
     3  N    2.095978   1.339864   0.000000
     4  H    3.047562   2.043927   1.009866   0.000000
     5  N    1.353731   2.178086   2.147822   3.138865   0.000000
     6  C    2.124527   2.178770   1.342698   2.146397   1.310073
     7  H    3.177810   3.216267   2.150953   2.628325   2.139407
                    6          7
     6  C    0.000000
     7  H    1.078645   0.000000
 Stoichiometry    CH2N4
 Framework group  CS[SG(CH2N4)]
 Deg. of freedom    11
 Full point group                 CS      NOp   2
 Largest Abelian subgroup         CS      NOp   2
 Largest concise Abelian subgroup C1      NOp   1
                         Standard orientation:                         
 ---------------------------------------------------------------------
 Center     Atomic      Atomic             Coordinates (Angstroms)
 Number     Number       Type             X           Y           Z
 ---------------------------------------------------------------------
      1          7           0       -0.720770   -0.919066    0.000000
      2          7           0       -1.112458    0.302310    0.000000
      3          7           0        0.000000    1.049084    0.000000
      4          1           0       -0.064123    2.056913    0.000000
      5          7           0        0.630283   -1.004177    0.000000
      6          6           0        1.065164    0.231610    0.000000
      7          1           0        2.093759    0.556367    0.000000
 ---------------------------------------------------------------------
 Rotational constants (GHZ):     10.6308669     10.4480435      5.2693312
 Standard basis: 6-31G(d) (6D, 7F)
 There are    59 symmetry adapted basis functions of A'  symmetry.
 There are    20 symmetry adapted basis functions of A"  symmetry.
 Integral buffers will be    131072 words long.
 Raffenetti 2 integral format.
 Two-electron integral symmetry is turned on.
    79 basis functions,   148 primitive gaussians,    79 cartesian basis functions
    18 alpha electrons       18 beta electrons
       nuclear repulsion energy       167.5222149753 Hartrees.
 NAtoms=    7 NActive=    7 NUniq=    7 SFac= 7.50D-01 NAtFMM=   80 NAOKFM=F Big=F
 One-electron integrals computed using PRISM.
 NBasis=    79 RedAO= T  NBF=    59    20
 NBsUse=    79 1.00D-06 NBFU=    59    20
 Initial guess read from the read-write file.
 B after Tr=     0.000000    0.000000    0.000000
         Rot=    1.000000    0.000000    0.000000    0.000000 Ang=   0.00 deg.
 Initial guess orbital symmetries:
       Occupied  (A') (A') (A') (A') (A') (A') (A') (A') (A') (A')
                 (A') (A") (A') (A') (A") (A') (A") (A')
       Virtual   (A") (A") (A') (A') (A') (A') (A') (A') (A') (A")
                 (A') (A') (A') (A') (A') (A") (A') (A") (A') (A")
                 (A') (A") (A') (A') (A') (A') (A') (A') (A') (A")
                 (A") (A") (A') (A') (A") (A") (A') (A') (A') (A')
                 (A') (A') (A") (A") (A') (A') (A") (A") (A') (A')
                 (A") (A') (A') (A') (A') (A') (A') (A') (A') (A')
                 (A')
 Requested convergence on RMS density matrix=1.00D-08 within 128 cycles.
 Requested convergence on MAX density matrix=1.00D-06.
 Requested convergence on             energy=1.00D-06.
 No special actions if energy rises.
 Keep R1 ints in memory in canonical form, NReq=5987373.
 SCF Done:  E(RM062X) =  -258.150888924     A.U. after    9 cycles
             Convg  =    0.5577D-08             -V/T =  2.0079
 Calling FoFJK, ICntrl=      2127 FMM=F ISym2X=1 I1Cent= 0 IOpClX= 0 NMat=1 NMatS=1 NMatT=0.
 ***** Axes restored to original set *****
 -------------------------------------------------------------------
 Center     Atomic                   Forces (Hartrees/Bohr)
 Number     Number              X              Y              Z
 -------------------------------------------------------------------
      1        7           0.000078600    0.000008775    0.000000000
      2        7           0.000031311   -0.000483447    0.000000000
      3        7          -0.000222341    0.000200103    0.000000000
      4        1           0.000017077   -0.000008805    0.000000000
      5        7          -0.000291251    0.000425072    0.000000000
      6        6           0.000342770   -0.000138875    0.000000000
      7        1           0.000043834   -0.000002824    0.000000000
 -------------------------------------------------------------------
 Cartesian Forces:  Max     0.000483447 RMS     0.000187086

 GradGradGradGradGradGradGradGradGradGradGradGradGradGradGradGradGradGrad
 Berny optimization.
 Using GEDIIS/GDIIS optimizer.
 Internal  Forces:  Max     0.000293163 RMS     0.000123187
 Search for a local minimum.
 Step number   5 out of a maximum of   36
 All quantities printed in internal units (Hartrees-Bohrs-Radians)
 Mixed Optimization -- En-DIIS/RFO-DIIS
 Swaping is turned off.
 Update second derivatives using D2CorX and points    1    2    3    4    5
 DE= -2.12D-06 DEPred=-2.35D-06 R= 8.98D-01
 SS=  1.41D+00  RLast= 3.22D-03 DXNew= 5.0454D-01 9.6595D-03
 Trust test= 8.98D-01 RLast= 3.22D-03 DXMaxT set to 3.00D-01
     Eigenvalues ---    0.02506   0.02638   0.02674   0.02835   0.15554
     Eigenvalues ---    0.16066   0.18379   0.37506   0.39292   0.47407
     Eigenvalues ---    0.50639   0.52105   0.58268   0.67229   0.78285
     Eigenvalues --- 1000.000001000.000001000.000001000.000001000.00000
     Eigenvalues --- 1000.000001000.000001000.000001000.000001000.00000
     Eigenvalues --- 1000.00000
 En-DIIS/RFO-DIIS IScMMF=        0 using points:     5    4    3
 RFO step:  Lambda=-5.95282593D-07.
 DIIS coeffs:      0.96256      0.02386      0.01358
 Iteration  1 RMS(Cart)=  0.00030961 RMS(Int)=  0.00000009
 Iteration  2 RMS(Cart)=  0.00000008 RMS(Int)=  0.00000004
 ClnCor:  largest displacement from symmetrization is 1.60D-15 for atom     4.
 Variable       Old X    -DE/DX   Delta X   Delta X   Delta X     New X
                                  (DIIS)     (GDIIS)  (Total)
    R1        2.42385  -0.00029  -0.00006  -0.00025  -0.00031   2.42354
    R2        2.55818  -0.00027   0.00010  -0.00091  -0.00082   2.55736
    R3        2.53198  -0.00003   0.00005  -0.00030  -0.00025   2.53172
    R4        1.90837   0.00001   0.00000  -0.00003  -0.00002   1.90835
    R5        2.53733   0.00007   0.00003   0.00015   0.00017   2.53750
    R6        2.47568   0.00011  -0.00002   0.00018   0.00016   2.47584
    R7        2.03834   0.00004   0.00000   0.00013   0.00012   2.03847
    A1        1.94404  -0.00013  -0.00003  -0.00031  -0.00034   1.94371
    A2        1.85165   0.00020   0.00003   0.00014   0.00018   1.85183
    A3        2.09845   0.00008   0.00001   0.00011   0.00012   2.09857
    A4        1.89582  -0.00007  -0.00002   0.00026   0.00024   1.89605
    A5        2.28892  -0.00001   0.00001  -0.00036  -0.00036   2.28856
    A6        1.84625   0.00024   0.00001   0.00080   0.00081   1.84707
    A7        1.88701  -0.00025   0.00000  -0.00089  -0.00089   1.88612
    A8        2.18118   0.00014  -0.00001   0.00067   0.00066   2.18184
    A9        2.21499   0.00010   0.00001   0.00022   0.00024   2.21523
    D1        0.00000   0.00000   0.00000   0.00000   0.00000   0.00000
    D2        0.00000   0.00000   0.00000   0.00000   0.00000   0.00000
    D3        3.14159   0.00000   0.00000   0.00000   0.00000   3.14159
    D4        0.00000   0.00000   0.00000   0.00000   0.00000   0.00000
    D5        0.00000   0.00000   0.00000   0.00000   0.00000   0.00000
    D6        3.14159   0.00000   0.00000   0.00000   0.00000   3.14159
    D7        3.14159   0.00000   0.00000   0.00000   0.00000   3.14159
    D8        0.00000   0.00000   0.00000   0.00000   0.00000   0.00000
    D9        0.00000   0.00000   0.00000   0.00000   0.00000   0.00000
   D10        3.14159   0.00000   0.00000   0.00000   0.00000   3.14159
         Item               Value     Threshold  Converged?
 Maximum Force            0.000293     0.000450     YES
 RMS     Force            0.000123     0.000300     YES
 Maximum Displacement     0.001063     0.001800     YES
 RMS     Displacement     0.000310     0.001200     YES
 Predicted change in Energy=-4.814759D-07
 Optimization completed.
    -- Stationary point found.
                           ----------------------------
                           !   Optimized Parameters   !
                           ! (Angstroms and Degrees)  !
 --------------------------                            --------------------------
 ! Name  Definition              Value          Derivative Info.                !
 --------------------------------------------------------------------------------
 ! R1    R(1,2)                  1.2826         -DE/DX =   -0.0003              !
 ! R2    R(1,5)                  1.3537         -DE/DX =   -0.0003              !
 ! R3    R(2,3)                  1.3399         -DE/DX =    0.0                 !
 ! R4    R(3,4)                  1.0099         -DE/DX =    0.0                 !
 ! R5    R(3,6)                  1.3427         -DE/DX =    0.0001              !
 ! R6    R(5,6)                  1.3101         -DE/DX =    0.0001              !
 ! R7    R(6,7)                  1.0786         -DE/DX =    0.0                 !
 ! A1    A(2,1,5)              111.3854         -DE/DX =   -0.0001              !
 ! A2    A(1,2,3)              106.092          -DE/DX =    0.0002              !
 ! A3    A(2,3,4)              120.2322         -DE/DX =    0.0001              !
 ! A4    A(2,3,6)              108.6223         -DE/DX =   -0.0001              !
 ! A5    A(4,3,6)              131.1455         -DE/DX =    0.0                 !
 ! A6    A(1,5,6)              105.7826         -DE/DX =    0.0002              !
 ! A7    A(3,6,5)              108.1176         -DE/DX =   -0.0002              !
 ! A8    A(3,6,7)              124.9727         -DE/DX =    0.0001              !
 ! A9    A(5,6,7)              126.9097         -DE/DX =    0.0001              !
 ! D1    D(5,1,2,3)              0.0            -DE/DX =    0.0                 !
 ! D2    D(2,1,5,6)              0.0            -DE/DX =    0.0                 !
 ! D3    D(1,2,3,4)            180.0            -DE/DX =    0.0                 !
 ! D4    D(1,2,3,6)              0.0            -DE/DX =    0.0                 !
 ! D5    D(2,3,6,5)              0.0            -DE/DX =    0.0                 !
 ! D6    D(2,3,6,7)            180.0            -DE/DX =    0.0                 !
 ! D7    D(4,3,6,5)            180.0            -DE/DX =    0.0                 !
 ! D8    D(4,3,6,7)              0.0            -DE/DX =    0.0                 !
 ! D9    D(1,5,6,3)              0.0            -DE/DX =    0.0                 !
 ! D10   D(1,5,6,7)            180.0            -DE/DX =    0.0                 !
 --------------------------------------------------------------------------------
 GradGradGradGradGradGradGradGradGradGradGradGradGradGradGradGradGradGrad

                          Input orientation:                          
 ---------------------------------------------------------------------
 Center     Atomic      Atomic             Coordinates (Angstroms)
 Number     Number       Type             X           Y           Z
 ---------------------------------------------------------------------
      1          7           0       -1.143070   -0.265153    0.000000
      2          7           0       -0.681820    0.931688    0.000000
      3          7           0        0.652977    0.815281    0.000000
      4          1           0        1.235333    1.640322    0.000000
      5          7           0       -0.144383   -1.179050    0.000000
      6          6           0        0.969572   -0.489559    0.000000
      7          1           0        1.974299   -0.881983    0.000000
 ---------------------------------------------------------------------
                    Distance matrix (angstroms):
                    1          2          3          4          5
     1  N    0.000000
     2  N    1.282645   0.000000
     3  N    2.095978   1.339864   0.000000
     4  H    3.047562   2.043927   1.009866   0.000000
     5  N    1.353731   2.178086   2.147822   3.138865   0.000000
     6  C    2.124527   2.178770   1.342698   2.146397   1.310073
     7  H    3.177810   3.216267   2.150953   2.628325   2.139407
                    6          7
     6  C    0.000000
     7  H    1.078645   0.000000
 Stoichiometry    CH2N4
 Framework group  CS[SG(CH2N4)]
 Deg. of freedom    11
 Full point group                 CS      NOp   2
 Largest Abelian subgroup         CS      NOp   2
 Largest concise Abelian subgroup C1      NOp   1
                         Standard orientation:                         
 ---------------------------------------------------------------------
 Center     Atomic      Atomic             Coordinates (Angstroms)
 Number     Number       Type             X           Y           Z
 ---------------------------------------------------------------------
      1          7           0       -0.720770   -0.919066    0.000000
      2          7           0       -1.112458    0.302310    0.000000
      3          7           0        0.000000    1.049084    0.000000
      4          1           0       -0.064123    2.056913    0.000000
      5          7           0        0.630283   -1.004177    0.000000
      6          6           0        1.065164    0.231610    0.000000
      7          1           0        2.093759    0.556367    0.000000
 ---------------------------------------------------------------------
 Rotational constants (GHZ):     10.6308669     10.4480435      5.2693312

 **********************************************************************

            Population analysis using the SCF density.

 **********************************************************************

 Orbital symmetries:
       Occupied  (A') (A') (A') (A') (A') (A') (A') (A') (A') (A')
                 (A') (A") (A') (A') (A") (A') (A") (A')
       Virtual   (A") (A") (A') (A') (A') (A') (A') (A') (A') (A")
                 (A') (A') (A') (A') (A') (A") (A') (A") (A') (A")
                 (A') (A") (A') (A') (A') (A') (A') (A') (A') (A")
                 (A") (A") (A') (A') (A") (A") (A') (A') (A') (A')
                 (A') (A') (A") (A") (A') (A') (A") (A") (A') (A')
                 (A") (A') (A') (A') (A') (A') (A') (A') (A') (A')
                 (A')
 The electronic state is 1-A'.
 Alpha  occ. eigenvalues --  -14.87790 -14.84456 -14.82510 -14.79361 -10.64256
 Alpha  occ. eigenvalues --   -1.27137  -1.05962  -1.00286  -0.76982  -0.75303
 Alpha  occ. eigenvalues --   -0.68030  -0.58279  -0.57068  -0.45817  -0.39477
 Alpha  occ. eigenvalues --   -0.37660  -0.37010  -0.36216
 Alpha virt. eigenvalues --    0.02984   0.07085   0.10160   0.15754   0.24086
 Alpha virt. eigenvalues --    0.24722   0.33952   0.36974   0.48283   0.57138
 Alpha virt. eigenvalues --    0.57362   0.65073   0.65596   0.71211   0.72653
 Alpha virt. eigenvalues --    0.73034   0.74935   0.77173   0.78812   0.85369
 Alpha virt. eigenvalues --    0.87805   0.89746   0.89954   0.92194   0.98081
 Alpha virt. eigenvalues --    1.05173   1.09155   1.12796   1.26922   1.33916
 Alpha virt. eigenvalues --    1.38792   1.42250   1.44211   1.49672   1.60470
 Alpha virt. eigenvalues --    1.62496   1.69828   1.90839   1.98315   2.06855
 Alpha virt. eigenvalues --    2.10889   2.21029   2.24463   2.28374   2.34854
 Alpha virt. eigenvalues --    2.39509   2.42101   2.48617   2.59584   2.60817
 Alpha virt. eigenvalues --    2.66755   2.70023   2.74046   2.97406   3.01237
 Alpha virt. eigenvalues --    3.05154   3.51426   3.63828   3.97935   4.05873
 Alpha virt. eigenvalues --    4.19360
          Condensed to atoms (all electrons):
              1          2          3          4          5          6
     1  N    6.713855   0.278742  -0.091759   0.005923   0.270704  -0.101920
     2  N    0.278742   6.779663   0.190342  -0.023360  -0.078128  -0.114876
     3  N   -0.091759   0.190342   6.855183   0.310690  -0.073975   0.308575
     4  H    0.005923  -0.023360   0.310690   0.327582   0.004682  -0.022336
     5  N    0.270704  -0.078128  -0.073975   0.004682   6.792380   0.426897
     6  C   -0.101920  -0.114876   0.308575  -0.022336   0.426897   4.860636
     7  H    0.004237   0.002263  -0.040873   0.001006  -0.027691   0.382863
              7
     1  N    0.004237
     2  N    0.002263
     3  N   -0.040873
     4  H    0.001006
     5  N   -0.027691
     6  C    0.382863
     7  H    0.446689
 Mulliken atomic charges:
              1
     1  N   -0.079782
     2  N   -0.034648
     3  N   -0.458182
     4  H    0.395813
     5  N   -0.314869
     6  C    0.260161
     7  H    0.231506
 Sum of Mulliken atomic charges =   0.00000
 Mulliken charges with hydrogens summed into heavy atoms:
              1
     1  N   -0.079782
     2  N   -0.034648
     3  N   -0.062369
     5  N   -0.314869
     6  C    0.491667
 Sum of Mulliken charges with hydrogens summed into heavy atoms =   0.00000
 Electronic spatial extent (au):  <R**2>=            248.9592
 Charge=              0.0000 electrons
 Dipole moment (field-independent basis, Debye):
    X=              2.5053    Y=              4.8102    Z=              0.0000  Tot=              5.4235
 Quadrupole moment (field-independent basis, Debye-Ang):
   XX=            -28.5511   YY=            -26.0160   ZZ=            -28.3484
   XY=              1.7882   XZ=              0.0000   YZ=              0.0000
 Traceless Quadrupole moment (field-independent basis, Debye-Ang):
   XX=             -0.9126   YY=              1.6225   ZZ=             -0.7099
   XY=              1.7882   XZ=              0.0000   YZ=              0.0000
 Octapole moment (field-independent basis, Debye-Ang**2):
  XXX=             11.8311  YYY=             22.5432  ZZZ=              0.0000  XYY=             -0.6115
  XXY=              4.5898  XXZ=              0.0000  XZZ=             -0.6196  YZZ=              0.5154
  YYZ=              0.0000  XYZ=              0.0000
 Hexadecapole moment (field-independent basis, Debye-Ang**3):
 XXXX=           -139.6133 YYYY=           -117.5033 ZZZZ=            -24.8500 XXXY=              6.6662
 XXXZ=              0.0000 YYYX=             -0.4868 YYYZ=              0.0000 ZZZX=              0.0000
 ZZZY=              0.0000 XXYY=            -52.7030 XXZZ=            -29.9309 YYZZ=            -28.3707
 XXYZ=              0.0000 YYXZ=              0.0000 ZZXY=             -0.0974
 N-N= 1.675222149753D+02 E-N=-9.367372766417D+02  KE= 2.561176826548D+02
 Symmetry A'   KE= 2.468349488040D+02
 Symmetry A"   KE= 9.282733850784D+00
 1\1\GINC-P2231\FOpt\RM062X\6-31G(d)\C1H2N4\RDJ3\31-Jul-2010\0\\#M062X/
 6-31G* opt freq\\1H tetrazole c CH-NH-N=N-N= casno=288948 method=58 ba
 sis=1\\0,1\N,-1.1430703235,-0.2651525108,0.\N,-0.6818203028,0.93168814
 63,0.\N,0.6529774831,0.8152809531,0.\H,1.2353327997,1.6403217763,0.\N,
 -0.1443825076,-1.1790503825,0.\C,0.9695715254,-0.4895587199,0.\H,1.974
 2993258,-0.8819832625,0.\\Version=AM64L-G09RevA.02\State=1-A'\HF=-258.
 1508889\RMSD=5.577e-09\RMSF=1.871e-04\Dipole=1.9548389,0.8553106,0.\Qu
 adrupole=1.3624139,-0.8346334,-0.5277805,1.2037503,0.,0.\PG=CS [SG(C1H
 2N4)]\\@


 ALMOST ANYTHING IS EASIER TO GET INTO THAN OUT OF.

                         -- AGNES ALLEN'S LAW FROM
                PAUL DICKSON'S "THE OFFICIAL RULES"
 Job cpu time:  0 days  0 hours  1 minutes  5.4 seconds.
 File lengths (MBytes):  RWF=      9 Int=      0 D2E=      0 Chk=      2 Scr=      1
 Normal termination of Gaussian 09 at Sat Jul 31 12:58:26 2010.
 Link1:  Proceeding to internal job step number  2.
 --------------------------------------------------------------------
 #N Geom=AllCheck Guess=TCheck SCRF=Check GenChk RM062X/6-31G(d) Freq
 --------------------------------------------------------------------
 1/10=4,29=7,30=1,38=1,40=1/1,3;
 2/12=2,40=1/2;
 3/5=1,6=6,7=1,11=2,14=-4,16=1,25=1,30=1,70=2,71=2,74=-55,116=1/1,2,3;
 4/5=101/1;
 5/5=2,98=1/2;
 8/6=4,10=90,11=11/1;
 11/6=1,8=1,9=11,15=111,16=1/1,2,10;
 10/6=1/2;
 6/7=2,8=2,9=2,10=2,18=1,28=1/1;
 7/8=1,10=1,25=1/1,2,3,16;
 1/10=4,30=1/3;
 99//99;
 ----------------------------------------------------------
 1H tetrazole c CH-NH-N=N-N= casno=288948 method=58 basis=1
 ----------------------------------------------------------
 Redundant internal coordinates taken from checkpoint file:
 /gaussian/Gau-16231.chk
 Charge =  0 Multiplicity = 1
 N,0,-1.1430703235,-0.2651525108,0.
 N,0,-0.6818203028,0.9316881463,0.
 N,0,0.6529774831,0.8152809531,0.
 H,0,1.2353327997,1.6403217763,0.
 N,0,-0.1443825076,-1.1790503825,0.
 C,0,0.9695715254,-0.4895587199,0.
 H,0,1.9742993258,-0.8819832625,0.
 Recover connectivity data from disk.

 GradGradGradGradGradGradGradGradGradGradGradGradGradGradGradGradGradGrad
 Berny optimization.
 Initialization pass.
                           ----------------------------
                           !    Initial Parameters    !
                           ! (Angstroms and Degrees)  !
 --------------------------                            --------------------------
 ! Name  Definition              Value          Derivative Info.                !
 --------------------------------------------------------------------------------
 ! R1    R(1,2)                  1.2826         calculate D2E/DX2 analytically  !
 ! R2    R(1,5)                  1.3537         calculate D2E/DX2 analytically  !
 ! R3    R(2,3)                  1.3399         calculate D2E/DX2 analytically  !
 ! R4    R(3,4)                  1.0099         calculate D2E/DX2 analytically  !
 ! R5    R(3,6)                  1.3427         calculate D2E/DX2 analytically  !
 ! R6    R(5,6)                  1.3101         calculate D2E/DX2 analytically  !
 ! R7    R(6,7)                  1.0786         calculate D2E/DX2 analytically  !
 ! A1    A(2,1,5)              111.3854         calculate D2E/DX2 analytically  !
 ! A2    A(1,2,3)              106.092          calculate D2E/DX2 analytically  !
 ! A3    A(2,3,4)              120.2322         calculate D2E/DX2 analytically  !
 ! A4    A(2,3,6)              108.6223         calculate D2E/DX2 analytically  !
 ! A5    A(4,3,6)              131.1455         calculate D2E/DX2 analytically  !
 ! A6    A(1,5,6)              105.7826         calculate D2E/DX2 analytically  !
 ! A7    A(3,6,5)              108.1176         calculate D2E/DX2 analytically  !
 ! A8    A(3,6,7)              124.9727         calculate D2E/DX2 analytically  !
 ! A9    A(5,6,7)              126.9097         calculate D2E/DX2 analytically  !
 ! D1    D(5,1,2,3)              0.0            calculate D2E/DX2 analytically  !
 ! D2    D(2,1,5,6)              0.0            calculate D2E/DX2 analytically  !
 ! D3    D(1,2,3,4)            180.0            calculate D2E/DX2 analytically  !
 ! D4    D(1,2,3,6)              0.0            calculate D2E/DX2 analytically  !
 ! D5    D(2,3,6,5)              0.0            calculate D2E/DX2 analytically  !
 ! D6    D(2,3,6,7)            180.0            calculate D2E/DX2 analytically  !
 ! D7    D(4,3,6,5)            180.0            calculate D2E/DX2 analytically  !
 ! D8    D(4,3,6,7)              0.0            calculate D2E/DX2 analytically  !
 ! D9    D(1,5,6,3)              0.0            calculate D2E/DX2 analytically  !
 ! D10   D(1,5,6,7)            180.0            calculate D2E/DX2 analytically  !
 --------------------------------------------------------------------------------
 Trust Radius=3.00D-01 FncErr=1.00D-07 GrdErr=1.00D-07
 Number of steps in this run=   2 maximum allowed number of steps=   2.
 GradGradGradGradGradGradGradGradGradGradGradGradGradGradGradGradGradGrad

                          Input orientation:                          
 ---------------------------------------------------------------------
 Center     Atomic      Atomic             Coordinates (Angstroms)
 Number     Number       Type             X           Y           Z
 ---------------------------------------------------------------------
      1          7           0       -1.143070   -0.265153    0.000000
      2          7           0       -0.681820    0.931688    0.000000
      3          7           0        0.652977    0.815281    0.000000
      4          1           0        1.235333    1.640322    0.000000
      5          7           0       -0.144383   -1.179050    0.000000
      6          6           0        0.969572   -0.489559    0.000000
      7          1           0        1.974299   -0.881983    0.000000
 ---------------------------------------------------------------------
                    Distance matrix (angstroms):
                    1          2          3          4          5
     1  N    0.000000
     2  N    1.282645   0.000000
     3  N    2.095978   1.339864   0.000000
     4  H    3.047562   2.043927   1.009866   0.000000
     5  N    1.353731   2.178086   2.147822   3.138865   0.000000
     6  C    2.124527   2.178770   1.342698   2.146397   1.310073
     7  H    3.177810   3.216267   2.150953   2.628325   2.139407
                    6          7
     6  C    0.000000
     7  H    1.078645   0.000000
 Stoichiometry    CH2N4
 Framework group  CS[SG(CH2N4)]
 Deg. of freedom    11
 Full point group                 CS      NOp   2
 Largest Abelian subgroup         CS      NOp   2
 Largest concise Abelian subgroup C1      NOp   1
                         Standard orientation:                         
 ---------------------------------------------------------------------
 Center     Atomic      Atomic             Coordinates (Angstroms)
 Number     Number       Type             X           Y           Z
 ---------------------------------------------------------------------
      1          7           0       -0.720770   -0.919066    0.000000
      2          7           0       -1.112458    0.302310    0.000000
      3          7           0        0.000000    1.049084    0.000000
      4          1           0       -0.064123    2.056913    0.000000
      5          7           0        0.630283   -1.004177    0.000000
      6          6           0        1.065164    0.231610    0.000000
      7          1           0        2.093759    0.556367    0.000000
 ---------------------------------------------------------------------
 Rotational constants (GHZ):     10.6308669     10.4480435      5.2693312
 Standard basis: 6-31G(d) (6D, 7F)
 There are    59 symmetry adapted basis functions of A'  symmetry.
 There are    20 symmetry adapted basis functions of A"  symmetry.
 Integral buffers will be    131072 words long.
 Raffenetti 2 integral format.
 Two-electron integral symmetry is turned on.
    79 basis functions,   148 primitive gaussians,    79 cartesian basis functions
    18 alpha electrons       18 beta electrons
       nuclear repulsion energy       167.5222149753 Hartrees.
 NAtoms=    7 NActive=    7 NUniq=    7 SFac= 7.50D-01 NAtFMM=   80 NAOKFM=F Big=F
 One-electron integrals computed using PRISM.
 NBasis=    79 RedAO= T  NBF=    59    20
 NBsUse=    79 1.00D-06 NBFU=    59    20
 Initial guess read from the checkpoint file:  /gaussian/Gau-16231.chk
 B after Tr=     0.000000    0.000000    0.000000
         Rot=    1.000000    0.000000    0.000000    0.000000 Ang=   0.00 deg.
 Initial guess orbital symmetries:
       Occupied  (A') (A') (A') (A') (A') (A') (A') (A') (A') (A')
[...]
 Symmetry A"   KE= 9.282733886861D+00
  Exact polarizability:  36.738   0.907  36.232   0.000   0.000  15.465
 Approx polarizability:  51.440   0.357  54.247   0.000   0.000  20.694
 Calling FoFJK, ICntrl=    100127 FMM=F ISym2X=1 I1Cent= 0 IOpClX= 0 NMat=1 NMatS=1 NMatT=0.
 Full mass-weighted force constant matrix:
 Low frequencies ---   -0.0015   -0.0011   -0.0010   15.2638   38.0367   41.5658
 Low frequencies ---  596.8495  703.5346  756.5354
 Diagonal vibrational polarizability:
        1.2283417       1.1277427       9.0561970
 Harmonic frequencies (cm**-1), IR intensities (KM/Mole), Raman scattering
 activities (A**4/AMU), depolarization ratios for plane and unpolarized
 incident light, reduced masses (AMU), force constants (mDyne/A),
 and normal coordinates:
                     1                      2                      3
                    A"                     A"                     A"
 Frequencies --   596.8164               703.5309               756.5345
 Red. masses --     1.6588                 2.1199                 8.7055
 Frc consts  --     0.3481                 0.6182                 2.9356
 IR Inten    --   101.9284                 7.6586                 7.8723
  Atom  AN      X      Y      Z        X      Y      Z        X      Y      Z
     1   7     0.00   0.00   0.00     0.00   0.00   0.04     0.00   0.00   0.51
     2   7     0.00   0.00  -0.07     0.00   0.00   0.11     0.00   0.00  -0.44
     3   7     0.00   0.00   0.20     0.00   0.00  -0.11     0.00   0.00   0.14
     4   1     0.00   0.00  -0.95     0.00   0.00  -0.78     0.00   0.00   0.63
     5   7     0.00   0.00   0.02     0.00   0.00  -0.18     0.00   0.00  -0.34
     6   6     0.00   0.00  -0.08     0.00   0.00   0.19     0.00   0.00   0.09
     7   1     0.00   0.00  -0.19     0.00   0.00   0.55     0.00   0.00   0.10
                     4                      5                      6
                    A"                     A'                     A'
 Frequencies --   881.3999              1001.8552              1034.4991
 Red. masses --     1.3546                 4.3768                 5.6366
 Frc consts  --     0.6200                 2.5883                 3.5541
 IR Inten    --    16.4155                 2.7896                 1.9568
  Atom  AN      X      Y      Z        X      Y      Z        X      Y      Z
     1   7     0.00   0.00   0.02     0.05   0.18   0.00     0.16  -0.11   0.00
     2   7     0.00   0.00   0.00    -0.13   0.13   0.00     0.20  -0.07   0.00
     3   7     0.00   0.00   0.03    -0.08   0.01   0.00     0.01   0.40   0.00
     4   1     0.00   0.00   0.06     0.47   0.05   0.00    -0.11   0.41   0.00
     5   7     0.00   0.00   0.03     0.29  -0.26   0.00    -0.08  -0.16   0.00
     6   6     0.00   0.00  -0.17    -0.16  -0.11   0.00    -0.32  -0.04   0.00
     7   1     0.00   0.00   0.98    -0.39   0.60   0.00    -0.15  -0.66   0.00
                     7                      8                      9
                    A'                     A'                     A'
 Frequencies --  1106.4508              1118.5198              1172.3690
 Red. masses --     3.0599                 3.9184                 2.0166
 Frc consts  --     2.2071                 2.8884                 1.6330
 IR Inten    --    24.8801                27.2290                10.2146
  Atom  AN      X      Y      Z        X      Y      Z        X      Y      Z
     1   7     0.05  -0.01   0.00     0.34   0.02   0.00    -0.15  -0.13   0.00
     2   7     0.29   0.15   0.00    -0.12   0.03   0.00     0.05  -0.06   0.00
     3   7    -0.13  -0.13   0.00     0.07  -0.13   0.00     0.14   0.04   0.00
     4   1    -0.55  -0.17   0.00     0.85  -0.09   0.00     0.51   0.06   0.00
     5   7    -0.10  -0.05   0.00    -0.24   0.04   0.00    -0.01   0.00   0.00
     6   6    -0.05   0.00   0.00    -0.11   0.06   0.00    -0.06   0.10   0.00
     7   1    -0.27   0.66   0.00    -0.16   0.16   0.00    -0.27   0.76   0.00
                    10                     11                     12
                    A'                     A'                     A'
 Frequencies --  1310.8344              1369.5704              1507.3318
 Red. masses --     2.5822                 9.5375                 3.4706
 Frc consts  --     2.6142                10.5403                 4.6459
 IR Inten    --     1.1569                21.2109                10.3673
  Atom  AN      X      Y      Z        X      Y      Z        X      Y      Z
     1   7    -0.07  -0.05   0.00    -0.05   0.54   0.00    -0.01  -0.03   0.00
     2   7     0.12   0.07   0.00     0.16  -0.47   0.00    -0.07   0.11   0.00
     3   7    -0.08  -0.12   0.00     0.17  -0.12   0.00     0.22  -0.14   0.00
     4   1     0.67  -0.09   0.00    -0.40  -0.20   0.00    -0.72  -0.22   0.00
     5   7     0.13   0.17   0.00    -0.02   0.12   0.00     0.07  -0.11   0.00
     6   6    -0.18  -0.02   0.00    -0.25  -0.07   0.00    -0.18   0.26   0.00
     7   1    -0.01  -0.64   0.00    -0.35   0.12   0.00     0.03  -0.47   0.00
                    13                     14                     15
                    A'                     A'                     A'
 Frequencies --  1563.8714              3340.3978              3681.5820
 Red. masses --     3.9889                 1.1020                 1.0846
 Frc consts  --     5.7478                 7.2446                 8.6611
 IR Inten    --    19.4472                 2.3771               118.1150
  Atom  AN      X      Y      Z        X      Y      Z        X      Y      Z
     1   7     0.07  -0.12   0.00     0.00   0.00   0.00     0.00   0.00   0.00
     2   7    -0.11   0.10   0.00     0.00   0.00   0.00     0.00   0.00   0.00
     3   7     0.17   0.03   0.00     0.00   0.00   0.00     0.01  -0.08   0.00
     4   1    -0.69  -0.02   0.00     0.01   0.02   0.00    -0.07   0.99   0.00
     5   7     0.06   0.24   0.00     0.00   0.00   0.00     0.00   0.00   0.00
     6   6    -0.12  -0.32   0.00     0.09   0.03   0.00     0.00   0.00   0.00
     7   1    -0.38   0.36   0.00    -0.95  -0.30   0.00     0.02   0.00   0.00

 -------------------
 - Thermochemistry -
 -------------------
 Temperature   298.150 Kelvin.  Pressure   1.00000 Atm.
 Atom     1 has atomic number  7 and mass  14.00307
 Atom     2 has atomic number  7 and mass  14.00307
 Atom     3 has atomic number  7 and mass  14.00307
 Atom     4 has atomic number  1 and mass   1.00783
 Atom     5 has atomic number  7 and mass  14.00307
 Atom     6 has atomic number  6 and mass  12.00000
 Atom     7 has atomic number  1 and mass   1.00783
 Molecular mass:    70.02795 amu.
 Principal axes and moments of inertia in atomic units:
                           1         2         3
     Eigenvalues --   169.76426 172.73485 342.49910
           X            0.85453   0.51940   0.00000
           Y           -0.51940   0.85453   0.00000
           Z            0.00000   0.00000   1.00000
 This molecule is an asymmetric top.
 Rotational symmetry number  1.
 Rotational temperatures (Kelvin)      0.51020     0.50143     0.25289
 Rotational constants (GHZ):          10.63087    10.44804     5.26933
 Zero-point vibrational energy     126478.6 (Joules/Mol)
                                   30.22910 (Kcal/Mol)
 Warning -- explicit consideration of   1 degrees of freedom as
           vibrations may cause significant error
 Vibrational temperatures:    858.68  1012.22  1088.48  1268.14  1441.44
          (Kelvin)           1488.41  1591.93  1609.30  1686.78  1886.00
                             1970.50  2168.71  2250.06  4806.08  5296.97
 
 Zero-point correction=                           0.048173 (Hartree/Particle)
 Thermal correction to Energy=                    0.051591
 Thermal correction to Enthalpy=                  0.052535
 Thermal correction to Gibbs Free Energy=         0.022109
 Sum of electronic and zero-point Energies=           -258.102716
 Sum of electronic and thermal Energies=              -258.099298
 Sum of electronic and thermal Enthalpies=            -258.098354
 Sum of electronic and thermal Free Energies=         -258.128780
 
                     E (Thermal)             CV                S
                      KCal/Mol        Cal/Mol-Kelvin    Cal/Mol-Kelvin
 Total                   32.374             10.945             64.037
 Electronic               0.000              0.000              0.000
 Translational            0.889              2.981             38.656
 Rotational               0.889              2.981             23.822
 Vibrational             30.596              4.984              1.559
 Vibration     1          0.955              1.039              0.455
                       Q            Log10(Q)             Ln(Q)
 Total Bot       0.676930D-10        -10.169456        -23.416038
 Total V=0       0.974096D+12         11.988602         27.604776
 Vib (Bot)       0.819205D-22        -22.086607        -50.856293
 Vib (Bot)    1  0.251013D+00         -0.600304         -1.382252
 Vib (V=0)       0.117883D+01          0.071450          0.164520
 Vib (V=0)    1  0.105947D+01          0.025089          0.057769
 Electronic      0.100000D+01          0.000000          0.000000
 Translational   0.230336D+08          7.362362         16.952466
 Rotational      0.358748D+05          4.554789         10.487790
 ***** Axes restored to original set *****
 -------------------------------------------------------------------
 Center     Atomic                   Forces (Hartrees/Bohr)
 Number     Number              X              Y              Z
 -------------------------------------------------------------------
      1        7           0.000078628    0.000008737    0.000000000
      2        7           0.000031307   -0.000483391    0.000000000
      3        7          -0.000222356    0.000200101    0.000000000
      4        1           0.000017082   -0.000008793    0.000000000
      5        7          -0.000291229    0.000425079    0.000000000
      6        6           0.000342737   -0.000138917    0.000000000
      7        1           0.000043831   -0.000002816    0.000000000
 -------------------------------------------------------------------
 Cartesian Forces:  Max     0.000483391 RMS     0.000187078

 GradGradGradGradGradGradGradGradGradGradGradGradGradGradGradGradGradGrad
 Berny optimization.
 Internal  Forces:  Max     0.000293130 RMS     0.000123179
 Search for a local minimum.
 Step number   1 out of a maximum of    2
 All quantities printed in internal units (Hartrees-Bohrs-Radians)
 Second derivative matrix not updated -- analytic derivatives used.
     Eigenvalues ---    0.00871   0.02667   0.07510   0.08081   0.10417
     Eigenvalues ---    0.10795   0.21943   0.27511   0.37614   0.39003
     Eigenvalues ---    0.46928   0.48133   0.50618   0.61158   0.66827
     Eigenvalues --- 1000.000001000.000001000.000001000.000001000.00000
     Eigenvalues --- 1000.000001000.000001000.000001000.000001000.00000
     Eigenvalues --- 1000.00000
 Angle between quadratic step and forces=  24.67 degrees.
 Linear search not attempted -- first point.
 Iteration  1 RMS(Cart)=  0.00027861 RMS(Int)=  0.00000007
 Iteration  2 RMS(Cart)=  0.00000007 RMS(Int)=  0.00000003
 ClnCor:  largest displacement from symmetrization is 1.06D-12 for atom     1.
 Variable       Old X    -DE/DX   Delta X   Delta X   Delta X     New X
                                 (Linear)    (Quad)   (Total)
    R1        2.42385  -0.00029   0.00000  -0.00038  -0.00038   2.42347
    R2        2.55818  -0.00027   0.00000  -0.00088  -0.00088   2.55731
    R3        2.53198  -0.00003   0.00000  -0.00030  -0.00030   2.53168
    R4        1.90837   0.00001   0.00000   0.00001   0.00001   1.90838
    R5        2.53733   0.00007   0.00000   0.00037   0.00037   2.53770
    R6        2.47568   0.00011   0.00000   0.00024   0.00024   2.47592
    R7        2.03834   0.00004   0.00000   0.00005   0.00005   2.03839
    A1        1.94404  -0.00013   0.00000  -0.00027  -0.00027   1.94377
    A2        1.85165   0.00020   0.00000   0.00034   0.00034   1.85199
    A3        2.09845   0.00008   0.00000   0.00033   0.00033   2.09878
    A4        1.89582  -0.00007   0.00000  -0.00001  -0.00001   1.89581
    A5        2.28892  -0.00001   0.00000  -0.00033  -0.00033   2.28859
    A6        1.84625   0.00024   0.00000   0.00067   0.00067   1.84693
    A7        1.88701  -0.00025   0.00000  -0.00074  -0.00074   1.88627
    A8        2.18118   0.00014   0.00000   0.00060   0.00060   2.18178
    A9        2.21499   0.00010   0.00000   0.00014   0.00014   2.21513
    D1        0.00000   0.00000   0.00000   0.00000   0.00000   0.00000
    D2        0.00000   0.00000   0.00000   0.00000   0.00000   0.00000
    D3        3.14159   0.00000   0.00000   0.00000   0.00000   3.14159
    D4        0.00000   0.00000   0.00000   0.00000   0.00000   0.00000
    D5        0.00000   0.00000   0.00000   0.00000   0.00000   0.00000
    D6        3.14159   0.00000   0.00000   0.00000   0.00000   3.14159
    D7        3.14159   0.00000   0.00000   0.00000   0.00000   3.14159
    D8        0.00000   0.00000   0.00000   0.00000   0.00000   0.00000
    D9        0.00000   0.00000   0.00000   0.00000   0.00000   0.00000
   D10        3.14159   0.00000   0.00000   0.00000   0.00000   3.14159
         Item               Value     Threshold  Converged?
 Maximum Force            0.000293     0.000450     YES
 RMS     Force            0.000123     0.000300     YES
 Maximum Displacement     0.000874     0.001800     YES
 RMS     Displacement     0.000279     0.001200     YES
 Predicted change in Energy=-4.915802D-07
 Optimization completed.
    -- Stationary point found.
                           ----------------------------
                           !   Optimized Parameters   !
                           ! (Angstroms and Degrees)  !
 --------------------------                            --------------------------
 ! Name  Definition              Value          Derivative Info.                !
 --------------------------------------------------------------------------------
 ! R1    R(1,2)                  1.2826         -DE/DX =   -0.0003              !
 ! R2    R(1,5)                  1.3537         -DE/DX =   -0.0003              !
 ! R3    R(2,3)                  1.3399         -DE/DX =    0.0                 !
 ! R4    R(3,4)                  1.0099         -DE/DX =    0.0                 !
 ! R5    R(3,6)                  1.3427         -DE/DX =    0.0001              !
 ! R6    R(5,6)                  1.3101         -DE/DX =    0.0001              !
 ! R7    R(6,7)                  1.0786         -DE/DX =    0.0                 !
 ! A1    A(2,1,5)              111.3854         -DE/DX =   -0.0001              !
 ! A2    A(1,2,3)              106.092          -DE/DX =    0.0002              !
 ! A3    A(2,3,4)              120.2322         -DE/DX =    0.0001              !
 ! A4    A(2,3,6)              108.6223         -DE/DX =   -0.0001              !
 ! A5    A(4,3,6)              131.1455         -DE/DX =    0.0                 !
 ! A6    A(1,5,6)              105.7826         -DE/DX =    0.0002              !
 ! A7    A(3,6,5)              108.1176         -DE/DX =   -0.0002              !
 ! A8    A(3,6,7)              124.9727         -DE/DX =    0.0001              !
 ! A9    A(5,6,7)              126.9097         -DE/DX =    0.0001              !
 ! D1    D(5,1,2,3)              0.0            -DE/DX =    0.0                 !
 ! D2    D(2,1,5,6)              0.0            -DE/DX =    0.0                 !
 ! D3    D(1,2,3,4)            180.0            -DE/DX =    0.0                 !
 ! D4    D(1,2,3,6)              0.0            -DE/DX =    0.0                 !
 ! D5    D(2,3,6,5)              0.0            -DE/DX =    0.0                 !
 ! D6    D(2,3,6,7)            180.0            -DE/DX =    0.0                 !
 ! D7    D(4,3,6,5)            180.0            -DE/DX =    0.0                 !
 ! D8    D(4,3,6,7)              0.0            -DE/DX =    0.0                 !
 ! D9    D(1,5,6,3)              0.0            -DE/DX =    0.0                 !
 ! D10   D(1,5,6,7)            180.0            -DE/DX =    0.0                 !
 --------------------------------------------------------------------------------
 GradGradGradGradGradGradGradGradGradGradGradGradGradGradGradGradGradGrad

 1\1\GINC-P2231\Freq\RM062X\6-31G(d)\C1H2N4\RDJ3\31-Jul-2010\0\\#N Geom
 =AllCheck Guess=TCheck SCRF=Check GenChk RM062X/6-31G(d) Freq\\1H tetr
 azole c CH-NH-N=N-N= casno=288948 method=58 basis=1\\0,1\N,-1.14307032
 35,-0.2651525108,0.\N,-0.6818203028,0.9316881463,0.\N,0.6529774831,0.8
 152809531,0.\H,1.2353327997,1.6403217763,0.\N,-0.1443825076,-1.1790503
 825,0.\C,0.9695715254,-0.4895587199,0.\H,1.9742993258,-0.8819832625,0.
 \\Version=AM64L-G09RevA.02\State=1-A'\HF=-258.1508889\RMSD=2.046e-09\R
 MSF=1.871e-04\ZeroPoint=0.0481731\Thermal=0.0515912\Dipole=1.9548391,0
 .8553102,0.\DipoleDeriv=-0.0393845,-0.1479044,0.,-0.2072872,0.0768226,
 0.,0.,0.,-0.1528952,0.2494254,0.2655354,0.,0.2250605,-0.3157616,0.,0.,
 0.,-0.094057,-0.3793566,-0.2961545,0.,-0.1954134,-0.2683367,0.,0.,0.,-
 0.1746122,0.2411426,0.0556423,0.,0.040004,0.2941958,0.,0.,0.,0.3595953
 ,-0.383184,0.1242667,0.,-0.0105511,-0.3361848,0.,0.,0.,-0.2143814,0.24
 2969,-0.0036749,0.,0.1450959,0.4268338,0.,0.,0.,0.1113151,0.0683881,0.
 0022894,0.,0.0030913,0.1224309,0.,0.,0.,0.1650354\Polar=37.4248283,-0.
 0545456,35.5449294,0.,0.,15.4650159\PG=CS [SG(C1H2N4)]\NImag=0\\0.5883
 4496,0.09675961,0.53873263,0.,0.,0.13022906,-0.14955970,-0.12196629,0.
 ,0.47566479,-0.06748937,-0.36570210,0.,-0.02378440,0.66635570,0.,0.,-0
 .10146881,0.,0.,0.12188908,-0.11647394,-0.11735742,0.,-0.25090525,0.02
 677236,0.,0.70362863,-0.03005274,-0.06740510,0.,0.06323211,-0.12375951
 ,0.,0.19522882,0.96567408,0.,0.,0.02795497,0.,0.,-0.07325891,0.,0.,0.0
 9829609,-0.01092960,-0.00061505,0.,-0.00715140,-0.03317913,0.,-0.19723
 913,-0.17933522,0.,0.20005483,0.00735864,0.00273011,0.,0.00167586,0.01
 201495,0.,-0.18822635,-0.34484588,0.,0.19829002,0.34082298,0.,0.,0.008
 20282,0.,0.,-0.01233685,0.,0.,-0.00748857,0.,0.,0.01401408,-0.18583927
 ,0.07098967,0.,0.00249129,0.09711775,0.,-0.00658314,-0.12165869,0.,0.0
 0038932,-0.00000404,0.,0.53520819,0.03827526,-0.14277034,0.,-0.0202049
 8,-0.12829117,0.,0.00581683,-0.08420386,0.,0.00873995,-0.00612941,0.,0
 .10527736,0.56403462,0.,0.,-0.09392289,0.,0.,0.03706307,0.,0.,0.021393
 29,0.,0.,0.00787294,0.,0.,0.11446260,-0.12231877,0.07280042,0.,-0.0707
 3600,0.00391327,0.,-0.13741540,0.07519786,0.,0.01529844,-0.01962680,0.
 ,-0.33070472,-0.14816765,0.,0.97787432,-0.03844032,0.03562270,0.,0.101
 76417,-0.05426421,0.,0.04602238,-0.34057095,0.,0.00620691,-0.00414689,
 0.,-0.13519476,-0.21775119,0.,-0.09151031,0.68067353,0.,0.,0.01973786,
 0.,0.,0.02155923,0.,0.,-0.06414703,0.,0.,-0.00940215,0.,0.,-0.08182535
 ,0.,0.,0.14554361,-0.00322368,-0.00061094,0.,0.00019627,-0.00335049,0.
 ,0.00498824,-0.00261214,0.,-0.00042246,0.00053269,0.,-0.01496166,0.010
 26323,0.,-0.33199786,0.11115192,0.,0.34542116,-0.00641108,-0.00120790,
 0.,-0.00071647,-0.00635365,0.,0.03174337,-0.00488879,0.,-0.00010748,-0
 .00044587,0.,-0.01652728,0.01511134,0.,0.10739321,-0.09956299,0.,-0.11
 537428,0.09734784,0.,0.,0.00926699,0.,0.,0.00655318,0.,0.,-0.00274985,
 0.,0.,-0.00086227,0.,0.,-0.00504366,0.,0.,-0.03146617,0.,0.,0.02430178
 \\-0.00007863,-0.00000874,0.,-0.00003131,0.00048339,0.,0.00022236,-0.0
 0020010,0.,-0.00001708,0.00000879,0.,0.00029123,-0.00042508,0.,-0.0003
 4274,0.00013892,0.,-0.00004383,0.00000282,0.\\\@


 ACHIEVEMENT--  THE MAN WHO ROWS THE BOAT GENERALLY 
                DOESN'T HAVE TIME TO ROCK IT.

                   -- FROM THE BACK OF A SUGAR PACKET
 Job cpu time:  0 days  0 hours  1 minutes 17.2 seconds.
 File lengths (MBytes):  RWF=     10 Int=      0 D2E=      0 Chk=      2 Scr=      1
 Normal termination of Gaussian 09 at Sat Jul 31 12:59:44 2010.
