 Entering Gaussian System, Link 0=g09
 Initial command:
 /usr/local/gaussian/g09.b01.em64t.linda/g09/l1.exe /tmp/rdj3/g09-31574/Gau-671.inp -scrdir=/tmp/rdj3/g09-31574/
 Entering Link 1 = /usr/local/gaussian/g09.b01.em64t.linda/g09/l1.exe PID=       673.
  
 Copyright (c) 1988,1990,1992,1993,1995,1998,2003,2009,2010,
            Gaussian, Inc.  All Rights Reserved.
  
 This is part of the Gaussian(R) 09 program.  It is based on
 the Gaussian(R) 03 system (copyright 2003, Gaussian, Inc.),
 the Gaussian(R) 98 system (copyright 1998, Gaussian, Inc.),
 the Gaussian(R) 94 system (copyright 1995, Gaussian, Inc.),
 the Gaussian 92(TM) system (copyright 1992, Gaussian, Inc.),
 the Gaussian 90(TM) system (copyright 1990, Gaussian, Inc.),
 the Gaussian 88(TM) system (copyright 1988, Gaussian, Inc.),
 the Gaussian 86(TM) system (copyright 1986, Carnegie Mellon
 University), and the Gaussian 82(TM) system (copyright 1983,
 Carnegie Mellon University). Gaussian is a federally registered
 trademark of Gaussian, Inc.
  
 This software contains proprietary and confidential information,
 including trade secrets, belonging to Gaussian, Inc.
  
 This software is provided under written license and may be
 used, copied, transmitted, or stored only in accord with that
 written license.
  
 The following legend is applicable only to US Government
 contracts under FAR:
  
                    RESTRICTED RIGHTS LEGEND
  
 Use, reproduction and disclosure by the US Government is
 subject to restrictions as set forth in subparagraphs (a)
 and (c) of the Commercial Computer Software - Restricted
 Rights clause in FAR 52.227-19.
  
 Gaussian, Inc.
 340 Quinnipiac St., Bldg. 40, Wallingford CT 06492
  
  
 ---------------------------------------------------------------
 Warning -- This program may not be used in any manner that
 competes with the business of Gaussian, Inc. or will provide
 assistance to any competitor of Gaussian, Inc.  The licensee
 of this program is prohibited from giving any competitor of
 Gaussian, Inc. access to this program.  By using this program,
 the user acknowledges that Gaussian, Inc. is engaged in the
 business of creating and licensing software in the field of
 computational chemistry and represents and warrants to the
 licensee that it is not a competitor of Gaussian, Inc. and that
 it will not use this program in any manner prohibited above.
 ---------------------------------------------------------------
  

 Cite this work as:
 Gaussian 09, Revision B.01,
 M. J. Frisch, G. W. Trucks, H. B. Schlegel, G. E. Scuseria, 
 M. A. Robb, J. R. Cheeseman, G. Scalmani, V. Barone, B. Mennucci, 
 G. A. Petersson, H. Nakatsuji, M. Caricato, X. Li, H. P. Hratchian, 
 A. F. Izmaylov, J. Bloino, G. Zheng, J. L. Sonnenberg, M. Hada, 
 M. Ehara, K. Toyota, R. Fukuda, J. Hasegawa, M. Ishida, T. Nakajima, 
 Y. Honda, O. Kitao, H. Nakai, T. Vreven, J. A. Montgomery, Jr., 
 J. E. Peralta, F. Ogliaro, M. Bearpark, J. J. Heyd, E. Brothers, 
 K. N. Kudin, V. N. Staroverov, T. Keith, R. Kobayashi, J. Normand, 
 K. Raghavachari, A. Rendell, J. C. Burant, S. S. Iyengar, J. Tomasi, 
 M. Cossi, N. Rega, J. M. Millam, M. Klene, J. E. Knox, J. B. Cross, 
 V. Bakken, C. Adamo, J. Jaramillo, R. Gomperts, R. E. Stratmann, 
 O. Yazyev, A. J. Austin, R. Cammi, C. Pomelli, J. W. Ochterski, 
 R. L. Martin, K. Morokuma, V. G. Zakrzewski, G. A. Voth, 
 P. Salvador, J. J. Dannenberg, S. Dapprich, A. D. Daniels, 
 O. Farkas, J. B. Foresman, J. V. Ortiz, J. Cioslowski, 
 and D. J. Fox, Gaussian, Inc., Wallingford CT, 2010.
 
 ******************************************
 Gaussian 09:  EM64L-G09RevB.01 12-Aug-2010
                26-Jan-2012 
 ******************************************
 %NProc=8
 Will use up to    8 processors via shared memory.
 %mem=424000000
 ------------------------------
 #B2PLYP=FULL/6-31+G** opt freq
 ------------------------------
 1/18=20,19=15,38=1/1,3;
 2/9=110,12=2,17=6,18=5,40=1/2;
 3/5=1,6=6,7=111,11=9,16=1,25=1,30=1,71=1,74=-47/1,2,3;
 4//1;
 5/5=2,38=5/2;
 8/6=4,10=90/1;
 9/15=2,16=-3/6;
 10/5=1/2;
 6/7=2,8=2,9=2,10=2/1;
 7/12=2/1,2,3,16;
 1/18=20,19=15/3(2);
 2/9=110/2;
 99//99;
 2/9=110/2;
 3/5=1,6=6,7=111,11=9,16=1,25=1,30=1,71=1,74=-47/1,2,3;
 4/5=5,16=3/1;
 5/5=2,38=5/2;
 8/6=4,10=90/1;
 9/15=2,16=-3/6;
 10/5=1/2;
 7/12=2/1,2,3,16;
 1/18=20,19=15/3(-8);
 2/9=110/2;
 6/7=2,8=2,9=2,10=2/1;
 99//99;
 -----------------------------------------------------------------
 1htz 1H-Tetrazole casno=288948 state=1 config=1 method=59 basis=4
 -----------------------------------------------------------------
 Symbolic Z-matrix:
 Charge =  0 Multiplicity = 1
 7                    -0.7164   -0.90067   0. 
 7                    -1.09293   0.28882   0. 
 7                     0.        1.03785   0. 
 1                    -0.06096   2.02793   0. 
 7                     0.62144  -0.98635   0. 
 6                     1.05092   0.22563   0. 
 1                     2.07063   0.54081   0. 
 

 GradGradGradGradGradGradGradGradGradGradGradGradGradGradGradGradGradGrad
 Berny optimization.
 Initialization pass.
                           ----------------------------
                           !    Initial Parameters    !
                           ! (Angstroms and Degrees)  !
 --------------------------                            --------------------------
 ! Name  Definition              Value          Derivative Info.                !
 --------------------------------------------------------------------------------
 ! R1    R(1,2)                  1.2477         estimate D2E/DX2                !
 ! R2    R(1,5)                  1.3406         estimate D2E/DX2                !
 ! R3    R(2,3)                  1.325          estimate D2E/DX2                !
 ! R4    R(3,4)                  0.992          estimate D2E/DX2                !
 ! R5    R(3,6)                  1.3282         estimate D2E/DX2                !
 ! R6    R(5,6)                  1.2858         estimate D2E/DX2                !
 ! R7    R(6,7)                  1.0673         estimate D2E/DX2                !
 ! A1    A(2,1,5)              111.2298         estimate D2E/DX2                !
 ! A2    A(1,2,3)              106.8593         estimate D2E/DX2                !
 ! A3    A(2,3,4)              120.9013         estimate D2E/DX2                !
 ! A4    A(2,3,6)              107.8759         estimate D2E/DX2                !
 ! A5    A(4,3,6)              131.2227         estimate D2E/DX2                !
 ! A6    A(1,5,6)              105.8479         estimate D2E/DX2                !
 ! A7    A(3,6,5)              108.1872         estimate D2E/DX2                !
 ! A8    A(3,6,7)              125.1248         estimate D2E/DX2                !
 ! A9    A(5,6,7)              126.688          estimate D2E/DX2                !
 ! D1    D(5,1,2,3)              0.0            estimate D2E/DX2                !
 ! D2    D(2,1,5,6)              0.0            estimate D2E/DX2                !
 ! D3    D(1,2,3,4)            180.0            estimate D2E/DX2                !
 ! D4    D(1,2,3,6)              0.0            estimate D2E/DX2                !
 ! D5    D(2,3,6,5)              0.0            estimate D2E/DX2                !
 ! D6    D(2,3,6,7)            180.0            estimate D2E/DX2                !
 ! D7    D(4,3,6,5)            180.0            estimate D2E/DX2                !
 ! D8    D(4,3,6,7)              0.0            estimate D2E/DX2                !
 ! D9    D(1,5,6,3)              0.0            estimate D2E/DX2                !
 ! D10   D(1,5,6,7)            180.0            estimate D2E/DX2                !
 --------------------------------------------------------------------------------
 Trust Radius=3.00D-01 FncErr=1.00D-07 GrdErr=1.00D-07
 Number of steps in this run=     36 maximum allowed number of steps=    100.
 GradGradGradGradGradGradGradGradGradGradGradGradGradGradGradGradGradGrad

                          Input orientation:                          
 ---------------------------------------------------------------------
 Center     Atomic      Atomic             Coordinates (Angstroms)
 Number     Number       Type             X           Y           Z
 ---------------------------------------------------------------------
      1          7           0       -0.716395   -0.900672    0.000000
      2          7           0       -1.092932    0.288815    0.000000
      3          7           0        0.000000    1.037852    0.000000
      4          1           0       -0.060960    2.027931    0.000000
      5          7           0        0.621443   -0.986351    0.000000
      6          6           0        1.050919    0.225626    0.000000
      7          1           0        2.070634    0.540807    0.000000
 ---------------------------------------------------------------------
                    Distance matrix (angstroms):
                    1          2          3          4          5
     1  N    0.000000
     2  N    1.247662   0.000000
     3  N    2.066663   1.324974   0.000000
     4  H    3.001052   2.022249   0.991954   0.000000
     5  N    1.340579   2.136616   2.117449   3.090561   0.000000
     6  C    2.095697   2.144782   1.328210   2.117682   1.285822
     7  H    3.137737   3.173586   2.129455   2.599083   2.105319
                    6          7
     6  C    0.000000
     7  H    1.067313   0.000000
 Stoichiometry    CH2N4
 Framework group  CS[SG(CH2N4)]
 Deg. of freedom    11
 Full point group                 CS      NOp   2
 Largest Abelian subgroup         CS      NOp   2
 Largest concise Abelian subgroup C1      NOp   1
                         Standard orientation:                         
 ---------------------------------------------------------------------
 Center     Atomic      Atomic             Coordinates (Angstroms)
 Number     Number       Type             X           Y           Z
 ---------------------------------------------------------------------
      1          7           0       -0.716395   -0.900672    0.000000
      2          7           0       -1.092932    0.288815    0.000000
      3          7           0        0.000000    1.037852    0.000000
      4          1           0       -0.060960    2.027931    0.000000
      5          7           0        0.621443   -0.986351    0.000000
      6          6           0        1.050919    0.225626    0.000000
      7          1           0        2.070634    0.540807    0.000000
 ---------------------------------------------------------------------
 Rotational constants (GHZ):     10.9533124     10.7769479      5.4322072
 Standard basis: 6-31+G(d,p) (6D, 7F)
 There are    78 symmetry adapted basis functions of A'  symmetry.
 There are    27 symmetry adapted basis functions of A"  symmetry.
 Integral buffers will be    131072 words long.
 Raffenetti 1 integral format.
 Two-electron integral symmetry is turned on.
   105 basis functions,   174 primitive gaussians,   105 cartesian basis functions
    18 alpha electrons       18 beta electrons
       nuclear repulsion energy       170.1325734259 Hartrees.
 NAtoms=    7 NActive=    7 NUniq=    7 SFac= 1.00D+00 NAtFMM=   50 NAOKFM=F Big=F
 One-electron integrals computed using PRISM.
 NBasis=   105 RedAO= T  NBF=    78    27
 NBsUse=   105 1.00D-06 NBFU=    78    27
 Harris functional with IExCor=  419 diagonalized for initial guess.
 ExpMin= 4.38D-02 ExpMax= 4.17D+03 ExpMxC= 6.27D+02 IAcc=2 IRadAn=         0 AccDes= 0.00D+00
 HarFok:  IExCor=  419 AccDes= 0.00D+00 IRadAn=         0 IDoV= 1
 ScaDFX=  1.000000  1.000000  1.000000  1.000000
 FoFCou: FMM=F IPFlag=           0 FMFlag=      100000 FMFlg1=           0
         NFxFlg=           0 DoJE=T BraDBF=F KetDBF=T FulRan=T
         Omega=  0.000000  0.000000  1.000000  0.000000  0.000000 ICntrl=     500 IOpCl=  0
         NMat0=    1 NMatS0=    1 NMatT0=    0 NMatD0=    1 NMtDS0=    0 NMtDT0=    0
         I1Cent=           4 NGrid=           0.
 Petite list used in FoFCou.
 Initial guess orbital symmetries:
       Occupied  (A') (A') (A') (A') (A') (A') (A') (A') (A') (A')
                 (A') (A') (A") (A') (A") (A') (A") (A')
       Virtual   (A") (A") (A') (A') (A') (A") (A') (A') (A') (A')
                 (A") (A") (A') (A') (A') (A') (A") (A') (A") (A')
                 (A') (A') (A') (A') (A') (A') (A') (A') (A') (A")
                 (A') (A') (A') (A') (A') (A") (A') (A") (A') (A")
                 (A") (A') (A') (A') (A') (A') (A') (A") (A') (A')
                 (A") (A") (A') (A") (A") (A') (A') (A') (A') (A')
                 (A") (A') (A') (A") (A") (A') (A") (A') (A') (A")
                 (A') (A') (A") (A') (A") (A') (A') (A') (A') (A')
                 (A') (A') (A') (A') (A') (A') (A')
 The electronic state of the initial guess is 1-A'.
 Requested convergence on RMS density matrix=1.00D-08 within 128 cycles.
 Requested convergence on MAX density matrix=1.00D-06.
 Requested convergence on             energy=1.00D-06.
 No special actions if energy rises.
 Keep R1 ints in memory in canonical form, NReq=16525744.
 SCF Done:  E(RB2PLYP) =  -257.761605283     A.U. after   13 cycles
             Convg  =    0.6693D-08             -V/T =  2.0052
 Range of M.O.s used for correlation:     1   105
 NBasis=   105 NAE=    18 NBE=    18 NFC=     0 NFV=     0
 NROrb=    105 NOA=    18 NOB=    18 NVA=    87 NVB=    87

 **** Warning!!: The largest alpha MO coefficient is  0.54182174D+02

 DoSCS=T DFT=T ScalE2(SS,OS)=  0.270000  0.270000
 Fully direct method using O(ONN) memory.
 JobTyp=1 Pass  1:  I=   1 to  18 NPSUse=  8 ParTrn=T ParDer=T DoDerP=T.
 Spin components of T(2) and E(2):
     alpha-alpha T2 =       0.5949429264D-01 E2=     -0.3766971494D-01
     alpha-beta  T2 =       0.2988165772D+00 E2=     -0.1949673424D+00
     beta-beta   T2 =       0.5949429264D-01 E2=     -0.3766971494D-01
 E2(B2PLYP) =    -0.2703067723D+00 E(B2PLYP) =    -0.25803191205512D+03
          IDoAtm=1111111
          Differentiating once with respect to electric field.
                with respect to dipole field.
          Differentiating once with respect to nuclear coordinates.
          Keep R1 ints in memory in canonical form, NReq=16311633.
          There are     1 degrees of freedom in the 1st order CPHF.  IDoFFX=0.
 LinEq1:  Iter=  0 NonCon=     1 RMS=2.81D-03 Max=3.31D-02
 AX will form     1 AO Fock derivatives at one time.
 LinEq1:  Iter=  1 NonCon=     1 RMS=6.41D-04 Max=8.47D-03
 LinEq1:  Iter=  2 NonCon=     1 RMS=2.93D-04 Max=4.93D-03
 LinEq1:  Iter=  3 NonCon=     1 RMS=1.41D-04 Max=2.52D-03
 LinEq1:  Iter=  4 NonCon=     1 RMS=6.20D-05 Max=1.13D-03
 LinEq1:  Iter=  5 NonCon=     1 RMS=4.06D-05 Max=6.59D-04
 LinEq1:  Iter=  6 NonCon=     1 RMS=1.52D-05 Max=1.79D-04
 LinEq1:  Iter=  7 NonCon=     1 RMS=7.04D-06 Max=6.59D-05
 LinEq1:  Iter=  8 NonCon=     1 RMS=2.21D-06 Max=1.89D-05
 LinEq1:  Iter=  9 NonCon=     1 RMS=4.04D-07 Max=4.69D-06
 LinEq1:  Iter= 10 NonCon=     1 RMS=1.71D-07 Max=1.89D-06
 LinEq1:  Iter= 11 NonCon=     1 RMS=7.61D-08 Max=7.22D-07
 LinEq1:  Iter= 12 NonCon=     1 RMS=1.11D-08 Max=8.13D-08
 LinEq1:  Iter= 13 NonCon=     1 RMS=1.86D-09 Max=1.76D-08
 LinEq1:  Iter= 14 NonCon=     1 RMS=3.62D-10 Max=4.10D-09
 LinEq1:  Iter= 15 NonCon=     0 RMS=8.00D-11 Max=6.59D-10
 Linear equations converged to 1.000D-10 1.000D-09 after    15 iterations.
 End of Minotr Frequency-dependent properties file   721 does not exist.
 End of Minotr Frequency-dependent properties file   722 does not exist.

 **********************************************************************

            Population analysis using the SCF density.

 **********************************************************************

 Orbital symmetries:
       Occupied  (A') (A') (A') (A') (A') (A') (A') (A') (A') (A')
                 (A') (A") (A') (A') (A") (A') (A") (A')
       Virtual   (A') (A") (A') (A") (A') (A") (A') (A') (A') (A")
                 (A") (A') (A') (A') (A") (A') (A') (A") (A') (A')
                 (A') (A') (A') (A') (A') (A') (A') (A') (A') (A")
                 (A') (A') (A') (A') (A') (A") (A") (A') (A') (A")
                 (A') (A") (A') (A') (A') (A') (A') (A") (A') (A')
                 (A") (A") (A') (A") (A") (A') (A') (A') (A') (A')
                 (A") (A') (A') (A") (A") (A') (A") (A') (A') (A")
                 (A') (A') (A") (A') (A") (A') (A') (A') (A') (A')
                 (A') (A') (A') (A') (A') (A') (A')
 The electronic state is 1-A'.
 Alpha  occ. eigenvalues --  -14.97484 -14.94483 -14.92559 -14.89094 -10.72665
 Alpha  occ. eigenvalues --   -1.33054  -1.09900  -1.04739  -0.79321  -0.77890
 Alpha  occ. eigenvalues --   -0.70257  -0.59724  -0.59037  -0.47343  -0.39831
 Alpha  occ. eigenvalues --   -0.38341  -0.37359  -0.36979
 Alpha virt. eigenvalues --    0.01359   0.03421   0.04888   0.06209   0.06679
 Alpha virt. eigenvalues --    0.09529   0.10370   0.12142   0.14268   0.15720
 Alpha virt. eigenvalues --    0.17188   0.19179   0.19904   0.22251   0.23871
 Alpha virt. eigenvalues --    0.24023   0.25208   0.25540   0.25847   0.27239
 Alpha virt. eigenvalues --    0.27919   0.29209   0.32367   0.35413   0.37105
 Alpha virt. eigenvalues --    0.38994   0.47967   0.55217   0.57175   0.72332
 Alpha virt. eigenvalues --    0.84933   0.86489   0.89699   0.92439   0.93141
 Alpha virt. eigenvalues --    0.95399   0.97857   0.98693   1.02866   1.03817
 Alpha virt. eigenvalues --    1.04324   1.07085   1.08220   1.13345   1.16060
 Alpha virt. eigenvalues --    1.18443   1.31811   1.33193   1.35391   1.41471
 Alpha virt. eigenvalues --    1.43697   1.45701   1.55461   1.63981   1.64745
 Alpha virt. eigenvalues --    1.67190   1.78620   2.01344   2.04149   2.09582
 Alpha virt. eigenvalues --    2.18988   2.21842   2.32722   2.34913   2.39350
 Alpha virt. eigenvalues --    2.45839   2.49578   2.53116   2.58819   2.65853
 Alpha virt. eigenvalues --    2.70627   2.75804   2.79877   2.80050   2.87519
 Alpha virt. eigenvalues --    2.95260   3.01427   3.10059   3.24103   3.31364
 Alpha virt. eigenvalues --    3.48170   3.85929   4.08791   4.15758   4.39588
 Alpha virt. eigenvalues --    4.45067   4.69506
          Condensed to atoms (all electrons):
              1          2          3          4          5          6
     1  N    6.577174   0.237203   0.059243  -0.003530   0.075011   0.057105
     2  N    0.237203   6.708646   0.023074   0.002941   0.153099  -0.122446
     3  N    0.059243   0.023074   6.909258   0.306610  -0.153978   0.246158
     4  H   -0.003530   0.002941   0.306610   0.348327   0.005132  -0.007563
     5  N    0.075011   0.153099  -0.153978   0.005132   6.930531   0.324570
     6  C    0.057105  -0.122446   0.246158  -0.007563   0.324570   4.972361
     7  H    0.001806   0.005553  -0.063940   0.002187  -0.034161   0.425985
              7
     1  N    0.001806
     2  N    0.005553
     3  N   -0.063940
     4  H    0.002187
     5  N   -0.034161
     6  C    0.425985
     7  H    0.473586
 Mulliken atomic charges:
              1
     1  N   -0.004013
     2  N   -0.008070
     3  N   -0.326425
     4  H    0.345897
     5  N   -0.300203
     6  C    0.103830
     7  H    0.188983
 Sum of Mulliken atomic charges =   0.00000
 Mulliken charges with hydrogens summed into heavy atoms:
              1
     1  N   -0.004013
     2  N   -0.008070
     3  N    0.019472
     5  N   -0.300203
     6  C    0.292813
 Sum of Mulliken charges with hydrogens summed into heavy atoms =   0.00000
 Electronic spatial extent (au):  <R**2>=            245.0471
 Charge=              0.0000 electrons
 Dipole moment (field-independent basis, Debye):
    X=              2.6487    Y=              4.9617    Z=              0.0000  Tot=              5.6244
 Quadrupole moment (field-independent basis, Debye-Ang):
   XX=            -29.3897   YY=            -27.0004   ZZ=            -28.7322
   XY=              1.9644   XZ=              0.0000   YZ=              0.0000
 Traceless Quadrupole moment (field-independent basis, Debye-Ang):
   XX=             -1.0156   YY=              1.3737   ZZ=             -0.3581
   XY=              1.9644   XZ=              0.0000   YZ=              0.0000
 Octapole moment (field-independent basis, Debye-Ang**2):
  XXX=             12.7859  YYY=             23.4029  ZZZ=              0.0000  XYY=             -0.5488
  XXY=              5.0509  XXZ=              0.0000  XZZ=             -0.4987  YZZ=              0.7863
  YYZ=              0.0000  XYZ=              0.0000
 Hexadecapole moment (field-independent basis, Debye-Ang**3):
 XXXX=           -143.8233 YYYY=           -121.5547 ZZZZ=            -27.6639 XXXY=              7.0981
 XXXZ=              0.0000 YYYX=              0.0460 YYYZ=              0.0000 ZZZX=              0.0000
 ZZZY=              0.0000 XXYY=            -54.4295 XXZZ=            -31.1671 YYZZ=            -29.5949
 XXYZ=              0.0000 YYXZ=              0.0000 ZZXY=              0.1055
 N-N= 1.701325734259D+02 E-N=-9.417654909072D+02  KE= 2.564227232813D+02
 Symmetry A'   KE= 2.471427812855D+02
 Symmetry A"   KE= 9.279941995871D+00
 Calling FoFJK, ICntrl=      2127 FMM=F ISym2X=1 I1Cent= 0 IOpClX= 0 NMat=1 NMatS=1 NMatT=0.
 ***** Axes restored to original set *****
 -------------------------------------------------------------------
 Center     Atomic                   Forces (Hartrees/Bohr)
 Number     Number              X              Y              Z
 -------------------------------------------------------------------
      1        7          -0.008919172   -0.056293245    0.000000000
      2        7          -0.045413870    0.042671393    0.000000000
      3        7           0.005947768    0.016396578    0.000000000
      4        1          -0.001199739    0.015567148    0.000000000
      5        7           0.015312009   -0.040934901    0.000000000
      6        6           0.027739623    0.020363744    0.000000000
      7        1           0.006533379    0.002229284    0.000000000
 -------------------------------------------------------------------
 Cartesian Forces:  Max     0.056293245 RMS     0.022700634

 GradGradGradGradGradGradGradGradGradGradGradGradGradGradGradGradGradGrad
 Berny optimization.
 Internal  Forces:  Max     0.059774950 RMS     0.017722877
 Search for a local minimum.
 Step number   1 out of a maximum of   36
 All quantities printed in internal units (Hartrees-Bohrs-Radians)
 Mixed Optimization -- RFO/linear search
 Second derivative matrix not updated -- first step.
 ITU=  0
     Eigenvalues ---    0.02528   0.02670   0.02704   0.02868   0.16000
     Eigenvalues ---    0.16000   0.22607   0.24687   0.37572   0.49131
     Eigenvalues ---    0.51079   0.56976   0.58785   0.67823   0.80415
 RFO step:  Lambda=-1.14447485D-02 EMin= 2.52803782D-02
 Linear search not attempted -- first point.
 Iteration  1 RMS(Cart)=  0.02614205 RMS(Int)=  0.00005044
 Iteration  2 RMS(Cart)=  0.00004100 RMS(Int)=  0.00002755
 Iteration  3 RMS(Cart)=  0.00000000 RMS(Int)=  0.00002755
 ClnCor:  largest displacement from symmetrization is 2.58D-12 for atom     6.
 Variable       Old X    -DE/DX   Delta X   Delta X   Delta X     New X
                                 (Linear)    (Quad)   (Total)
    R1        2.35774   0.05977   0.00000   0.07217   0.07221   2.42995
    R2        2.53333   0.02722   0.00000   0.04875   0.04877   2.58210
    R3        2.50384   0.03040   0.00000   0.04909   0.04909   2.55292
    R4        1.87452   0.01561   0.00000   0.03105   0.03105   1.90557
    R5        2.50995   0.02853   0.00000   0.04383   0.04379   2.55374
    R6        2.42985   0.04199   0.00000   0.05652   0.05649   2.48635
    R7        2.01693   0.00690   0.00000   0.01782   0.01782   2.03475
    A1        1.94133  -0.00306   0.00000   0.00021   0.00028   1.94161
    A2        1.86505  -0.00374   0.00000  -0.00753  -0.00749   1.85756
    A3        2.11013  -0.00189   0.00000  -0.00444  -0.00442   2.10571
    A4        1.88279   0.00333   0.00000   0.00621   0.00617   1.88896
    A5        2.29027  -0.00144   0.00000  -0.00177  -0.00175   2.28852
    A6        1.84739  -0.00018   0.00000  -0.00260  -0.00261   1.84478
    A7        1.88822   0.00364   0.00000   0.00372   0.00365   1.89188
    A8        2.18384  -0.00203   0.00000  -0.00306  -0.00303   2.18081
    A9        2.21112  -0.00162   0.00000  -0.00066  -0.00063   2.21049
    D1        0.00000   0.00000   0.00000   0.00000   0.00000   0.00000
    D2        0.00000   0.00000   0.00000   0.00000   0.00000   0.00000
    D3        3.14159   0.00000   0.00000   0.00000   0.00000   3.14159
    D4        0.00000   0.00000   0.00000   0.00000   0.00000   0.00000
    D5        0.00000   0.00000   0.00000   0.00000   0.00000   0.00000
    D6        3.14159   0.00000   0.00000   0.00000   0.00000   3.14159
    D7        3.14159   0.00000   0.00000   0.00000   0.00000   3.14159
    D8        0.00000   0.00000   0.00000   0.00000   0.00000   0.00000
    D9        0.00000   0.00000   0.00000   0.00000   0.00000   0.00000
   D10        3.14159   0.00000   0.00000   0.00000   0.00000   3.14159
         Item               Value     Threshold  Converged?
 Maximum Force            0.059775     0.000450     NO 
 RMS     Force            0.017723     0.000300     NO 
 Maximum Displacement     0.058630     0.001800     NO 
 RMS     Displacement     0.026131     0.001200     NO 
 Predicted change in Energy=-5.816145D-03
 GradGradGradGradGradGradGradGradGradGradGradGradGradGradGradGradGradGrad

                          Input orientation:                          
 ---------------------------------------------------------------------
 Center     Atomic      Atomic             Coordinates (Angstroms)
 Number     Number       Type             X           Y           Z
 ---------------------------------------------------------------------
      1          7           0       -0.732239   -0.929799    0.000000
      2          7           0       -1.121802    0.295644    0.000000
      3          7           0       -0.002677    1.052364    0.000000
      4          1           0       -0.062783    2.058957    0.000000
      5          7           0        0.631437   -1.015850    0.000000
      6          6           0        1.066491    0.225859    0.000000
      7          1           0        2.094283    0.546832    0.000000
 ---------------------------------------------------------------------
                    Distance matrix (angstroms):
                    1          2          3          4          5
     1  N    0.000000
     2  N    1.285874   0.000000
     3  N    2.112163   1.350950   0.000000
     4  H    3.062814   2.056889   1.008385   0.000000
     5  N    1.366388   2.189489   2.163241   3.152202   0.000000
     6  C    2.137983   2.189405   1.351381   2.153023   1.315718
     7  H    3.188991   3.225879   2.157036   2.634285   2.140536
                    6          7
     6  C    0.000000
     7  H    1.076746   0.000000
 Stoichiometry    CH2N4
 Framework group  CS[SG(CH2N4)]
 Deg. of freedom    11
 Full point group                 CS      NOp   2
 Largest Abelian subgroup         CS      NOp   2
 Largest concise Abelian subgroup C1      NOp   1
                         Standard orientation:                         
 ---------------------------------------------------------------------
 Center     Atomic      Atomic             Coordinates (Angstroms)
 Number     Number       Type             X           Y           Z
 ---------------------------------------------------------------------
      1          7           0       -0.726953   -0.924575    0.000000
      2          7           0       -1.118128    0.300355    0.000000
      3          7           0        0.000000    1.058547    0.000000
      4          1           0       -0.061430    2.065059    0.000000
      5          7           0        0.636835   -1.008831    0.000000
      6          6           0        1.070254    0.233449    0.000000
      7          1           0        2.097624    0.555774    0.000000
 ---------------------------------------------------------------------
 Rotational constants (GHZ):     10.4938155     10.3363000      5.2072311
 Standard basis: 6-31+G(d,p) (6D, 7F)
 There are    78 symmetry adapted basis functions of A'  symmetry.
 There are    27 symmetry adapted basis functions of A"  symmetry.
 Integral buffers will be    131072 words long.
 Raffenetti 1 integral format.
 Two-electron integral symmetry is turned on.
   105 basis functions,   174 primitive gaussians,   105 cartesian basis functions
    18 alpha electrons       18 beta electrons
       nuclear repulsion energy       166.5676780346 Hartrees.
 NAtoms=    7 NActive=    7 NUniq=    7 SFac= 1.00D+00 NAtFMM=   50 NAOKFM=F Big=F
 One-electron integrals computed using PRISM.
 NBasis=   105 RedAO= T  NBF=    78    27
 NBsUse=   105 1.00D-06 NBFU=    78    27
 Initial guess read from the read-write file.
 B after Tr=     0.000000    0.000000    0.000000
         Rot=    1.000000    0.000000    0.000000    0.000000 Ang=   0.00 deg.
 Initial guess orbital symmetries:
       Occupied  (A') (A') (A') (A') (A') (A') (A') (A') (A') (A')
                 (A') (A") (A') (A') (A") (A') (A") (A')
       Virtual   (A') (A") (A') (A") (A') (A") (A') (A') (A') (A")
                 (A") (A') (A') (A') (A") (A') (A') (A") (A') (A')
                 (A') (A') (A') (A') (A') (A') (A') (A') (A') (A")
                 (A') (A') (A') (A') (A') (A") (A") (A') (A') (A")
                 (A') (A") (A') (A') (A') (A') (A') (A") (A') (A')
                 (A") (A") (A') (A") (A") (A') (A') (A') (A') (A')
                 (A") (A') (A') (A") (A") (A') (A") (A') (A') (A")
                 (A') (A') (A") (A') (A") (A') (A') (A') (A') (A')
                 (A') (A') (A') (A') (A') (A') (A')
 Harris functional with IExCor=  419 diagonalized for initial guess.
 ExpMin= 4.38D-02 ExpMax= 4.17D+03 ExpMxC= 6.27D+02 IAcc=2 IRadAn=         0 AccDes= 0.00D+00
 HarFok:  IExCor=  419 AccDes= 0.00D+00 IRadAn=         0 IDoV= 1
 ScaDFX=  1.000000  1.000000  1.000000  1.000000
 FoFCou: FMM=F IPFlag=           0 FMFlag=      100000 FMFlg1=           0
         NFxFlg=           0 DoJE=T BraDBF=F KetDBF=T FulRan=T
         Omega=  0.000000  0.000000  1.000000  0.000000  0.000000 ICntrl=     500 IOpCl=  0
         NMat0=    1 NMatS0=    1 NMatT0=    0 NMatD0=    1 NMtDS0=    0 NMtDT0=    0
         I1Cent=           4 NGrid=           0.
 Petite list used in FoFCou.
 Requested convergence on RMS density matrix=1.00D-08 within 128 cycles.
 Requested convergence on MAX density matrix=1.00D-06.
 Requested convergence on             energy=1.00D-06.
 No special actions if energy rises.
 Keep R1 ints in memory in canonical form, NReq=16525744.
 SCF Done:  E(RB2PLYP) =  -257.762181482     A.U. after   12 cycles
             Convg  =    0.6187D-08             -V/T =  2.0070
 Range of M.O.s used for correlation:     1   105
 NBasis=   105 NAE=    18 NBE=    18 NFC=     0 NFV=     0
 NROrb=    105 NOA=    18 NOB=    18 NVA=    87 NVB=    87

 **** Warning!!: The largest alpha MO coefficient is  0.50567017D+02

 DoSCS=T DFT=T ScalE2(SS,OS)=  0.270000  0.270000
 Fully direct method using O(ONN) memory.
 JobTyp=1 Pass  1:  I=   1 to  18 NPSUse=  8 ParTrn=T ParDer=T DoDerP=T.
 Spin components of T(2) and E(2):
     alpha-alpha T2 =       0.6295564596D-01 E2=     -0.3838924133D-01
     alpha-beta  T2 =       0.3170680321D+00 E2=     -0.1990951762D+00
     beta-beta   T2 =       0.6295564596D-01 E2=     -0.3838924133D-01
 E2(B2PLYP) =    -0.2758736588D+00 E(B2PLYP) =    -0.25803805514116D+03
          IDoAtm=1111111
          Differentiating once with respect to electric field.
                with respect to dipole field.
          Differentiating once with respect to nuclear coordinates.
          Keep R1 ints in memory in canonical form, NReq=16311633.
          There are     1 degrees of freedom in the 1st order CPHF.  IDoFFX=0.
 LinEq1:  Iter=  0 NonCon=     1 RMS=2.97D-03 Max=3.48D-02
 AX will form     1 AO Fock derivatives at one time.
 LinEq1:  Iter=  1 NonCon=     1 RMS=7.14D-04 Max=9.05D-03
 LinEq1:  Iter=  2 NonCon=     1 RMS=3.37D-04 Max=6.58D-03
 LinEq1:  Iter=  3 NonCon=     1 RMS=1.66D-04 Max=2.61D-03
 LinEq1:  Iter=  4 NonCon=     1 RMS=6.71D-05 Max=1.20D-03
 LinEq1:  Iter=  5 NonCon=     1 RMS=4.09D-05 Max=6.44D-04
 LinEq1:  Iter=  6 NonCon=     1 RMS=1.76D-05 Max=2.59D-04
 LinEq1:  Iter=  7 NonCon=     1 RMS=1.03D-05 Max=1.17D-04
 LinEq1:  Iter=  8 NonCon=     1 RMS=3.12D-06 Max=3.02D-05
 LinEq1:  Iter=  9 NonCon=     1 RMS=6.69D-07 Max=4.83D-06
 LinEq1:  Iter= 10 NonCon=     1 RMS=5.41D-07 Max=8.94D-06
 LinEq1:  Iter= 11 NonCon=     1 RMS=1.27D-07 Max=1.31D-06
 LinEq1:  Iter= 12 NonCon=     1 RMS=1.97D-08 Max=1.70D-07
 LinEq1:  Iter= 13 NonCon=     1 RMS=3.50D-09 Max=3.13D-08
 LinEq1:  Iter= 14 NonCon=     1 RMS=6.96D-10 Max=5.66D-09
 LinEq1:  Iter= 15 NonCon=     1 RMS=1.22D-10 Max=7.20D-10
 LinEq1:  Iter= 16 NonCon=     0 RMS=2.57D-11 Max=2.68D-10
 Linear equations converged to 1.000D-10 1.000D-09 after    16 iterations.
 End of Minotr Frequency-dependent properties file   721 does not exist.
 End of Minotr Frequency-dependent properties file   722 does not exist.
 Calling FoFJK, ICntrl=      2127 FMM=F ISym2X=1 I1Cent= 0 IOpClX= 0 NMat=1 NMatS=1 NMatT=0.
 ***** Axes restored to original set *****
 -------------------------------------------------------------------
 Center     Atomic                   Forces (Hartrees/Bohr)
 Number     Number              X              Y              Z
 -------------------------------------------------------------------
      1        7           0.001847802   -0.010038482    0.000000000
      2        7          -0.008358714    0.010313873    0.000000000
      3        7           0.004880471   -0.001930563    0.000000000
      4        1          -0.000197973    0.000181842    0.000000000
      5        7           0.001953951   -0.002611739    0.000000000
      6        6           0.000254183    0.004186309    0.000000000
      7        1          -0.000379719   -0.000101239    0.000000000
 -------------------------------------------------------------------
 Cartesian Forces:  Max     0.010313873 RMS     0.004002566

 GradGradGradGradGradGradGradGradGradGradGradGradGradGradGradGradGradGrad
 Berny optimization.
 Using GEDIIS/GDIIS optimizer.
 Internal  Forces:  Max     0.010621936 RMS     0.002475175
 Search for a local minimum.
 Step number   2 out of a maximum of   36
 All quantities printed in internal units (Hartrees-Bohrs-Radians)
 Mixed Optimization -- RFO/linear search
 Update second derivatives using D2CorX and points    1    2
 DE= -6.14D-03 DEPred=-5.82D-03 R= 1.06D+00
 SS=  1.41D+00  RLast= 1.29D-01 DXNew= 5.0454D-01 3.8582D-01
 Trust test= 1.06D+00 RLast= 1.29D-01 DXMaxT set to 3.86D-01
 ITU=  1  0
 Use linear search instead of GDIIS.
     Eigenvalues ---    0.02528   0.02669   0.02705   0.02868   0.15998
     Eigenvalues ---    0.16000   0.22547   0.24586   0.37675   0.49233
     Eigenvalues ---    0.50835   0.55960   0.60312   0.68242   0.73442
 RFO step:  Lambda=-1.44946551D-04 EMin= 2.52842254D-02
 Quartic linear search produced a step of  0.13160.
 Iteration  1 RMS(Cart)=  0.00409861 RMS(Int)=  0.00001869
 Iteration  2 RMS(Cart)=  0.00001703 RMS(Int)=  0.00000959
 Iteration  3 RMS(Cart)=  0.00000000 RMS(Int)=  0.00000959
 ClnCor:  largest displacement from symmetrization is 5.01D-13 for atom     6.
 Variable       Old X    -DE/DX   Delta X   Delta X   Delta X     New X
                                 (Linear)    (Quad)   (Total)
    R1        2.42995   0.01062   0.00950   0.00741   0.01692   2.44687
    R2        2.58210   0.00228   0.00642   0.00030   0.00671   2.58881
    R3        2.55292   0.00322   0.00646   0.00085   0.00732   2.56025
    R4        1.90557   0.00019   0.00409  -0.00275   0.00134   1.90691
    R5        2.55374  -0.00114   0.00576  -0.00818  -0.00242   2.55132
    R6        2.48635   0.00278   0.00743  -0.00246   0.00496   2.49130
    R7        2.03475  -0.00039   0.00235  -0.00293  -0.00058   2.03417
    A1        1.94161  -0.00073   0.00004   0.00250   0.00255   1.94416
    A2        1.85756  -0.00311  -0.00099  -0.00965  -0.01061   1.84695
    A3        2.10571  -0.00143  -0.00058  -0.00538  -0.00596   2.09975
    A4        1.88896   0.00250   0.00081   0.00838   0.00919   1.89815
    A5        2.28852  -0.00107  -0.00023  -0.00300  -0.00324   2.28528
    A6        1.84478   0.00019  -0.00034  -0.00049  -0.00085   1.84393
    A7        1.89188   0.00115   0.00048  -0.00074  -0.00028   1.89160
    A8        2.18081  -0.00060  -0.00040   0.00031  -0.00008   2.18074
    A9        2.21049  -0.00056  -0.00008   0.00043   0.00036   2.21085
    D1        0.00000   0.00000   0.00000   0.00000   0.00000   0.00000
    D2        0.00000   0.00000   0.00000   0.00000   0.00000   0.00000
    D3        3.14159   0.00000   0.00000   0.00000   0.00000   3.14159
    D4        0.00000   0.00000   0.00000   0.00000   0.00000   0.00000
    D5        0.00000   0.00000   0.00000   0.00000   0.00000   0.00000
    D6        3.14159   0.00000   0.00000   0.00000   0.00000   3.14159
    D7        3.14159   0.00000   0.00000   0.00000   0.00000   3.14159
    D8        0.00000   0.00000   0.00000   0.00000   0.00000   0.00000
    D9        0.00000   0.00000   0.00000   0.00000   0.00000   0.00000
   D10        3.14159   0.00000   0.00000   0.00000   0.00000   3.14159
         Item               Value     Threshold  Converged?
 Maximum Force            0.010622     0.000450     NO 
 RMS     Force            0.002475     0.000300     NO 
 Maximum Displacement     0.014460     0.001800     NO 
 RMS     Displacement     0.004098     0.001200     NO 
 Predicted change in Energy=-1.398650D-04
 GradGradGradGradGradGradGradGradGradGradGradGradGradGradGradGradGradGrad

                          Input orientation:                          
 ---------------------------------------------------------------------
 Center     Atomic      Atomic             Coordinates (Angstroms)
 Number     Number       Type             X           Y           Z
 ---------------------------------------------------------------------
      1          7           0       -0.733165   -0.932759    0.000000
      2          7           0       -1.129454    0.299934    0.000000
      3          7           0       -0.001567    1.050547    0.000000
      4          1           0       -0.060307    2.057928    0.000000
      5          7           0        0.634117   -1.018071    0.000000
      6          6           0        1.068101    0.226790    0.000000
      7          1           0        2.094984    0.549638    0.000000
 ---------------------------------------------------------------------
                    Distance matrix (angstroms):
                    1          2          3          4          5
     1  N    0.000000
     2  N    1.294827   0.000000
     3  N    2.113939   1.354824   0.000000
     4  H    3.065444   2.057576   1.009092   0.000000
     5  N    1.369941   2.201663   2.164088   3.153411   0.000000
     6  C    2.142221   2.198772   1.350098   2.150900   1.318341
     7  H    3.193106   3.234092   2.155559   2.630631   2.142859
                    6          7
     6  C    0.000000
     7  H    1.076438   0.000000
 Stoichiometry    CH2N4
 Framework group  CS[SG(CH2N4)]
 Deg. of freedom    11
 Full point group                 CS      NOp   2
 Largest Abelian subgroup         CS      NOp   2
 Largest concise Abelian subgroup C1      NOp   1
                         Standard orientation:                         
 ---------------------------------------------------------------------
 Center     Atomic      Atomic             Coordinates (Angstroms)
 Number     Number       Type             X           Y           Z
 ---------------------------------------------------------------------
      1          7           0       -0.725821   -0.928372    0.000000
      2          7           0       -1.125697    0.303162    0.000000
      3          7           0        0.000000    1.057055    0.000000
      4          1           0       -0.061672    2.064261    0.000000
      5          7           0        0.641704   -1.009704    0.000000
      6          6           0        1.072062    0.236416    0.000000
      7          1           0        2.098000    0.562251    0.000000
 ---------------------------------------------------------------------
 Rotational constants (GHZ):     10.4692252     10.2607636      5.1819731
 Standard basis: 6-31+G(d,p) (6D, 7F)
 There are    78 symmetry adapted basis functions of A'  symmetry.
 There are    27 symmetry adapted basis functions of A"  symmetry.
 Integral buffers will be    131072 words long.
 Raffenetti 1 integral format.
 Two-electron integral symmetry is turned on.
   105 basis functions,   174 primitive gaussians,   105 cartesian basis functions
    18 alpha electrons       18 beta electrons
       nuclear repulsion energy       166.1546418956 Hartrees.
 NAtoms=    7 NActive=    7 NUniq=    7 SFac= 1.00D+00 NAtFMM=   50 NAOKFM=F Big=F
 One-electron integrals computed using PRISM.
 NBasis=   105 RedAO= T  NBF=    78    27
 NBsUse=   105 1.00D-06 NBFU=    78    27
 Initial guess read from the read-write file.
 B after Tr=     0.000000    0.000000    0.000000
         Rot=    1.000000    0.000000    0.000000    0.000000 Ang=   0.00 deg.
 Initial guess orbital symmetries:
       Occupied  (A') (A') (A') (A') (A') (A') (A') (A') (A') (A')
                 (A') (A') (A") (A') (A") (A') (A') (A")
       Virtual   (A') (A") (A') (A") (A') (A") (A') (A') (A') (A")
                 (A") (A') (A') (A') (A') (A") (A') (A") (A') (A')
                 (A') (A') (A') (A') (A') (A') (A') (A') (A') (A")
                 (A') (A') (A') (A') (A') (A") (A") (A') (A') (A")
                 (A') (A") (A') (A') (A') (A') (A') (A") (A') (A')
                 (A") (A") (A') (A") (A") (A') (A') (A') (A') (A')
                 (A") (A') (A') (A") (A") (A') (A") (A') (A') (A")
                 (A') (A") (A') (A') (A") (A') (A') (A') (A') (A')
                 (A') (A') (A') (A') (A') (A') (A')
 Requested convergence on RMS density matrix=1.00D-08 within 128 cycles.
 Requested convergence on MAX density matrix=1.00D-06.
 Requested convergence on             energy=1.00D-06.
 No special actions if energy rises.
 Keep R1 ints in memory in canonical form, NReq=16525744.
 SCF Done:  E(RB2PLYP) =  -257.761496429     A.U. after   11 cycles
             Convg  =    0.4526D-08             -V/T =  2.0072
 Range of M.O.s used for correlation:     1   105
 NBasis=   105 NAE=    18 NBE=    18 NFC=     0 NFV=     0
 NROrb=    105 NOA=    18 NOB=    18 NVA=    87 NVB=    87

 **** Warning!!: The largest alpha MO coefficient is  0.51170929D+02

 DoSCS=T DFT=T ScalE2(SS,OS)=  0.270000  0.270000
 Fully direct method using O(ONN) memory.
 JobTyp=1 Pass  1:  I=   1 to  18 NPSUse=  8 ParTrn=T ParDer=T DoDerP=T.
 Spin components of T(2) and E(2):
     alpha-alpha T2 =       0.6348888403D-01 E2=     -0.3850637158D-01
     alpha-beta  T2 =       0.3197472238D+00 E2=     -0.1997036850D+00
     beta-beta   T2 =       0.6348888403D-01 E2=     -0.3850637158D-01
 E2(B2PLYP) =    -0.2767164282D+00 E(B2PLYP) =    -0.25803821285679D+03
          IDoAtm=1111111
          Differentiating once with respect to electric field.
                with respect to dipole field.
          Differentiating once with respect to nuclear coordinates.
          Keep R1 ints in memory in canonical form, NReq=16311633.
          There are     1 degrees of freedom in the 1st order CPHF.  IDoFFX=0.
 LinEq1:  Iter=  0 NonCon=     1 RMS=2.99D-03 Max=3.50D-02
 AX will form     1 AO Fock derivatives at one time.
 LinEq1:  Iter=  1 NonCon=     1 RMS=7.18D-04 Max=8.79D-03
 LinEq1:  Iter=  2 NonCon=     1 RMS=3.42D-04 Max=6.94D-03
 LinEq1:  Iter=  3 NonCon=     1 RMS=1.68D-04 Max=2.43D-03
 LinEq1:  Iter=  4 NonCon=     1 RMS=6.64D-05 Max=1.06D-03
 LinEq1:  Iter=  5 NonCon=     1 RMS=3.75D-05 Max=4.71D-04
 LinEq1:  Iter=  6 NonCon=     1 RMS=1.55D-05 Max=2.21D-04
 LinEq1:  Iter=  7 NonCon=     1 RMS=9.14D-06 Max=9.15D-05
 LinEq1:  Iter=  8 NonCon=     1 RMS=3.31D-06 Max=3.58D-05
 LinEq1:  Iter=  9 NonCon=     1 RMS=8.78D-07 Max=6.18D-06
 LinEq1:  Iter= 10 NonCon=     1 RMS=6.77D-07 Max=1.01D-05
 LinEq1:  Iter= 11 NonCon=     1 RMS=1.39D-07 Max=1.44D-06
 LinEq1:  Iter= 12 NonCon=     1 RMS=2.24D-08 Max=2.03D-07
 LinEq1:  Iter= 13 NonCon=     1 RMS=3.98D-09 Max=3.31D-08
 LinEq1:  Iter= 14 NonCon=     1 RMS=7.77D-10 Max=5.64D-09
 LinEq1:  Iter= 15 NonCon=     1 RMS=1.32D-10 Max=7.86D-10
 LinEq1:  Iter= 16 NonCon=     0 RMS=2.78D-11 Max=2.98D-10
 Linear equations converged to 1.000D-10 1.000D-09 after    16 iterations.
 End of Minotr Frequency-dependent properties file   721 does not exist.
 End of Minotr Frequency-dependent properties file   722 does not exist.
 Calling FoFJK, ICntrl=      2127 FMM=F ISym2X=1 I1Cent= 0 IOpClX= 0 NMat=1 NMatS=1 NMatT=0.
 ***** Axes restored to original set *****
 -------------------------------------------------------------------
 Center     Atomic                   Forces (Hartrees/Bohr)
 Number     Number              X              Y              Z
 -------------------------------------------------------------------
      1        7           0.001426472   -0.004089797    0.000000000
      2        7           0.000955444    0.002483318    0.000000000
      3        7           0.001453027    0.000170382    0.000000000
      4        1           0.000126099   -0.000235155    0.000000000
      5        7          -0.001703124    0.000175877    0.000000000
      6        6          -0.002105846    0.001520982    0.000000000
      7        1          -0.000152072   -0.000025606    0.000000000
 -------------------------------------------------------------------
 Cartesian Forces:  Max     0.004089797 RMS     0.001340857

 GradGradGradGradGradGradGradGradGradGradGradGradGradGradGradGradGradGrad
 Berny optimization.
 Using GEDIIS/GDIIS optimizer.
 Internal  Forces:  Max     0.002814287 RMS     0.000946686
 Search for a local minimum.
 Step number   3 out of a maximum of   36
 All quantities printed in internal units (Hartrees-Bohrs-Radians)
 Mixed Optimization -- En-DIIS/RFO-DIIS
 Update second derivatives using D2CorX and points    1    2    3
 DE= -1.58D-04 DEPred=-1.40D-04 R= 1.13D+00
 SS=  1.41D+00  RLast= 2.58D-02 DXNew= 6.4887D-01 7.7542D-02
 Trust test= 1.13D+00 RLast= 2.58D-02 DXMaxT set to 3.86D-01
 ITU=  1  1  0
 Use linear search instead of GDIIS.
     Eigenvalues ---    0.02529   0.02668   0.02705   0.02868   0.15997
     Eigenvalues ---    0.16016   0.23243   0.28792   0.37684   0.40155
     Eigenvalues ---    0.49554   0.52593   0.63158   0.67532   0.69366
 RFO step:  Lambda=-5.45451082D-05 EMin= 2.52857449D-02
 Quartic linear search produced a step of  0.06016.
 Iteration  1 RMS(Cart)=  0.00249531 RMS(Int)=  0.00000358
 Iteration  2 RMS(Cart)=  0.00000271 RMS(Int)=  0.00000172
 Iteration  3 RMS(Cart)=  0.00000000 RMS(Int)=  0.00000172
 ClnCor:  largest displacement from symmetrization is 2.44D-14 for atom     6.
 Variable       Old X    -DE/DX   Delta X   Delta X   Delta X     New X
                                 (Linear)    (Quad)   (Total)
    R1        2.44687   0.00281   0.00102   0.00599   0.00701   2.45388
    R2        2.58881  -0.00172   0.00040  -0.00201  -0.00160   2.58721
    R3        2.56025  -0.00030   0.00044   0.00060   0.00104   2.56129
    R4        1.90691  -0.00024   0.00008  -0.00019  -0.00011   1.90680
    R5        2.55132  -0.00220  -0.00015  -0.00420  -0.00435   2.54697
    R6        2.49130   0.00085   0.00030   0.00188   0.00218   2.49348
    R7        2.03417  -0.00015  -0.00003  -0.00037  -0.00041   2.03376
    A1        1.94416  -0.00181   0.00015  -0.00584  -0.00568   1.93847
    A2        1.84695   0.00100  -0.00064   0.00433   0.00369   1.85064
    A3        2.09975   0.00047  -0.00036   0.00216   0.00180   2.10155
    A4        1.89815  -0.00073   0.00055  -0.00326  -0.00271   1.89544
    A5        2.28528   0.00026  -0.00019   0.00110   0.00091   2.28619
    A6        1.84393   0.00066  -0.00005   0.00215   0.00210   1.84603
    A7        1.89160   0.00088  -0.00002   0.00262   0.00260   1.89419
    A8        2.18074  -0.00046   0.00000  -0.00150  -0.00151   2.17923
    A9        2.21085  -0.00041   0.00002  -0.00111  -0.00109   2.20976
    D1        0.00000   0.00000   0.00000   0.00000   0.00000   0.00000
    D2        0.00000   0.00000   0.00000   0.00000   0.00000   0.00000
    D3        3.14159   0.00000   0.00000   0.00000   0.00000   3.14159
    D4        0.00000   0.00000   0.00000   0.00000   0.00000   0.00000
    D5        0.00000   0.00000   0.00000   0.00000   0.00000   0.00000
    D6        3.14159   0.00000   0.00000   0.00000   0.00000   3.14159
    D7        3.14159   0.00000   0.00000   0.00000   0.00000   3.14159
    D8        0.00000   0.00000   0.00000   0.00000   0.00000   0.00000
    D9        0.00000   0.00000   0.00000   0.00000   0.00000   0.00000
   D10        3.14159   0.00000   0.00000   0.00000   0.00000   3.14159
         Item               Value     Threshold  Converged?
 Maximum Force            0.002814     0.000450     NO 
 RMS     Force            0.000947     0.000300     NO 
 Maximum Displacement     0.008691     0.001800     NO 
 RMS     Displacement     0.002496     0.001200     NO 
 Predicted change in Energy=-2.775760D-05
 GradGradGradGradGradGradGradGradGradGradGradGradGradGradGradGradGradGrad

                          Input orientation:                          
 ---------------------------------------------------------------------
 Center     Atomic      Atomic             Coordinates (Angstroms)
 Number     Number       Type             X           Y           Z
 ---------------------------------------------------------------------
      1          7           0       -0.733575   -0.937358    0.000000
      2          7           0       -1.127747    0.299910    0.000000
      3          7           0       -0.000199    1.052027    0.000000
      4          1           0       -0.058190    2.059393    0.000000
      5          7           0        0.633117   -1.018444    0.000000
      6          6           0        1.066291    0.227919    0.000000
      7          1           0        2.093012    0.550562    0.000000
 ---------------------------------------------------------------------
                    Distance matrix (angstroms):
                    1          2          3          4          5
     1  N    0.000000
     2  N    1.298538   0.000000
     3  N    2.120257   1.355376   0.000000
     4  H    3.071915   2.059062   1.009035   0.000000
     5  N    1.369095   2.199704   2.165165   3.154519   0.000000
     6  C    2.144152   2.195219   1.347797   2.149130   1.319493
     7  H    3.194291   3.230497   2.152440   2.627593   2.143146
                    6          7
     6  C    0.000000
     7  H    1.076222   0.000000
 Stoichiometry    CH2N4
 Framework group  CS[SG(CH2N4)]
 Deg. of freedom    11
 Full point group                 CS      NOp   2
 Largest Abelian subgroup         CS      NOp   2
 Largest concise Abelian subgroup C1      NOp   1
                         Standard orientation:                         
 ---------------------------------------------------------------------
 Center     Atomic      Atomic             Coordinates (Angstroms)
 Number     Number       Type             X           Y           Z
 ---------------------------------------------------------------------
      1          7           0       -0.725067   -0.933459    0.000000
      2          7           0       -1.124399    0.302153    0.000000
      3          7           0        0.000000    1.058969    0.000000
      4          1           0       -0.062195    2.066085    0.000000
      5          7           0        0.641951   -1.008841    0.000000
      6          6           0        1.069920    0.239319    0.000000
      7          1           0        2.095285    0.566244    0.000000
 ---------------------------------------------------------------------
 Rotational constants (GHZ):     10.4253712     10.2892642      5.1784353
 Standard basis: 6-31+G(d,p) (6D, 7F)
 There are    78 symmetry adapted basis functions of A'  symmetry.
 There are    27 symmetry adapted basis functions of A"  symmetry.
 Integral buffers will be    131072 words long.
 Raffenetti 1 integral format.
 Two-electron integral symmetry is turned on.
   105 basis functions,   174 primitive gaussians,   105 cartesian basis functions
    18 alpha electrons       18 beta electrons
       nuclear repulsion energy       166.0908001334 Hartrees.
 NAtoms=    7 NActive=    7 NUniq=    7 SFac= 1.00D+00 NAtFMM=   50 NAOKFM=F Big=F
 One-electron integrals computed using PRISM.
 NBasis=   105 RedAO= T  NBF=    78    27
 NBsUse=   105 1.00D-06 NBFU=    78    27
 Initial guess read from the read-write file.
 B after Tr=     0.000000    0.000000    0.000000
         Rot=    1.000000    0.000000    0.000000    0.000000 Ang=   0.00 deg.
 Initial guess orbital symmetries:
       Occupied  (A') (A') (A') (A') (A') (A') (A') (A') (A') (A')
                 (A') (A') (A") (A') (A") (A') (A') (A")
       Virtual   (A') (A") (A') (A") (A') (A") (A') (A') (A') (A")
                 (A") (A') (A') (A') (A') (A") (A') (A") (A') (A')
                 (A') (A') (A') (A') (A') (A') (A') (A') (A') (A")
                 (A') (A') (A') (A') (A') (A") (A") (A') (A') (A")
                 (A') (A") (A') (A') (A') (A') (A') (A") (A') (A')
                 (A") (A") (A') (A") (A") (A') (A') (A') (A') (A')
                 (A') (A") (A') (A") (A") (A') (A') (A") (A') (A")
                 (A') (A") (A') (A') (A") (A') (A') (A') (A') (A')
                 (A') (A') (A') (A') (A') (A') (A')
 Requested convergence on RMS density matrix=1.00D-08 within 128 cycles.
 Requested convergence on MAX density matrix=1.00D-06.
 Requested convergence on             energy=1.00D-06.
 No special actions if energy rises.
 Keep R1 ints in memory in canonical form, NReq=16525744.
 SCF Done:  E(RB2PLYP) =  -257.761326725     A.U. after   10 cycles
             Convg  =    0.6517D-08             -V/T =  2.0073
 Range of M.O.s used for correlation:     1   105
 NBasis=   105 NAE=    18 NBE=    18 NFC=     0 NFV=     0
 NROrb=    105 NOA=    18 NOB=    18 NVA=    87 NVB=    87

 **** Warning!!: The largest alpha MO coefficient is  0.51557317D+02

 DoSCS=T DFT=T ScalE2(SS,OS)=  0.270000  0.270000
 Fully direct method using O(ONN) memory.
 JobTyp=1 Pass  1:  I=   1 to  18 NPSUse=  8 ParTrn=T ParDer=T DoDerP=T.
 Spin components of T(2) and E(2):
     alpha-alpha T2 =       0.6360810113D-01 E2=     -0.3853490711D-01
     alpha-beta  T2 =       0.3203239126D+00 E2=     -0.1998327384D+00
     beta-beta   T2 =       0.6360810113D-01 E2=     -0.3853490711D-01
 E2(B2PLYP) =    -0.2769025526D+00 E(B2PLYP) =    -0.25803822927774D+03
          IDoAtm=1111111
          Differentiating once with respect to electric field.
                with respect to dipole field.
          Differentiating once with respect to nuclear coordinates.
          Keep R1 ints in memory in canonical form, NReq=16311633.
          There are     1 degrees of freedom in the 1st order CPHF.  IDoFFX=0.
 LinEq1:  Iter=  0 NonCon=     1 RMS=2.98D-03 Max=3.45D-02
 AX will form     1 AO Fock derivatives at one time.
 LinEq1:  Iter=  1 NonCon=     1 RMS=7.16D-04 Max=8.62D-03
 LinEq1:  Iter=  2 NonCon=     1 RMS=3.41D-04 Max=6.94D-03
 LinEq1:  Iter=  3 NonCon=     1 RMS=1.68D-04 Max=2.45D-03
 LinEq1:  Iter=  4 NonCon=     1 RMS=6.70D-05 Max=1.08D-03
 LinEq1:  Iter=  5 NonCon=     1 RMS=3.82D-05 Max=4.80D-04
 LinEq1:  Iter=  6 NonCon=     1 RMS=1.59D-05 Max=2.28D-04
 LinEq1:  Iter=  7 NonCon=     1 RMS=9.50D-06 Max=9.20D-05
 LinEq1:  Iter=  8 NonCon=     1 RMS=3.35D-06 Max=3.66D-05
 LinEq1:  Iter=  9 NonCon=     1 RMS=9.31D-07 Max=6.52D-06
 LinEq1:  Iter= 10 NonCon=     1 RMS=6.98D-07 Max=1.02D-05
 LinEq1:  Iter= 11 NonCon=     1 RMS=1.41D-07 Max=1.43D-06
 LinEq1:  Iter= 12 NonCon=     1 RMS=2.28D-08 Max=2.06D-07
 LinEq1:  Iter= 13 NonCon=     1 RMS=4.02D-09 Max=3.41D-08
 LinEq1:  Iter= 14 NonCon=     1 RMS=7.84D-10 Max=5.64D-09
 LinEq1:  Iter= 15 NonCon=     1 RMS=1.31D-10 Max=8.10D-10
 LinEq1:  Iter= 16 NonCon=     0 RMS=2.70D-11 Max=2.69D-10
 Linear equations converged to 1.000D-10 1.000D-09 after    16 iterations.
 End of Minotr Frequency-dependent properties file   721 does not exist.
 End of Minotr Frequency-dependent properties file   722 does not exist.
 Calling FoFJK, ICntrl=      2127 FMM=F ISym2X=1 I1Cent= 0 IOpClX= 0 NMat=1 NMatS=1 NMatT=0.
 ***** Axes restored to original set *****
 -------------------------------------------------------------------
 Center     Atomic                   Forces (Hartrees/Bohr)
 Number     Number              X              Y              Z
 -------------------------------------------------------------------
      1        7           0.002378552    0.001394855    0.000000000
      2        7          -0.000658254    0.000825743    0.000000000
      3        7          -0.000550955   -0.001861639    0.000000000
      4        1          -0.000101531   -0.000262801    0.000000000
      5        7          -0.000911888    0.000230282    0.000000000
      6        6          -0.000255489   -0.000157362    0.000000000
      7        1           0.000099564   -0.000169078    0.000000000
 -------------------------------------------------------------------
 Cartesian Forces:  Max     0.002378552 RMS     0.000804156

 GradGradGradGradGradGradGradGradGradGradGradGradGradGradGradGradGradGrad
 Berny optimization.
 Using GEDIIS/GDIIS optimizer.
 Internal  Forces:  Max     0.001445462 RMS     0.000618468
 Search for a local minimum.
 Step number   4 out of a maximum of   36
 All quantities printed in internal units (Hartrees-Bohrs-Radians)
 Mixed Optimization -- En-DIIS/RFO-DIIS
 Swaping is turned off.
 Update second derivatives using D2CorX and points    1    2    3    4
 DE= -1.64D-05 DEPred=-2.78D-05 R= 5.92D-01
 SS=  1.41D+00  RLast= 1.22D-02 DXNew= 6.4887D-01 3.6575D-02
 Trust test= 5.92D-01 RLast= 1.22D-02 DXMaxT set to 3.86D-01
 ITU=  1  1  1  0
     Eigenvalues ---    0.02529   0.02668   0.02706   0.02869   0.15993
     Eigenvalues ---    0.16014   0.23270   0.29255   0.37722   0.48777
     Eigenvalues ---    0.50017   0.52873   0.61515   0.63622   0.73416
 En-DIIS/RFO-DIIS IScMMF=        0 using points:     4    3
 RFO step:  Lambda=-1.29089392D-05.
 DidBck=T Rises=F RFO-DIIS coefs:    0.71215    0.28785
 Iteration  1 RMS(Cart)=  0.00108979 RMS(Int)=  0.00000121
 Iteration  2 RMS(Cart)=  0.00000076 RMS(Int)=  0.00000080
 ClnCor:  largest displacement from symmetrization is 3.29D-14 for atom     6.
 Variable       Old X    -DE/DX   Delta X   Delta X   Delta X     New X
                                  (DIIS)     (GDIIS)  (Total)
    R1        2.45388  -0.00038  -0.00202   0.00237   0.00035   2.45423
    R2        2.58721  -0.00134   0.00046  -0.00266  -0.00220   2.58502
    R3        2.56129  -0.00114  -0.00030  -0.00106  -0.00136   2.55993
    R4        1.90680  -0.00026   0.00003  -0.00042  -0.00039   1.90641
    R5        2.54697  -0.00011   0.00125  -0.00198  -0.00073   2.54623
    R6        2.49348  -0.00102  -0.00063  -0.00012  -0.00075   2.49273
    R7        2.03376   0.00004   0.00012  -0.00004   0.00008   2.03384
    A1        1.93847   0.00142   0.00164   0.00114   0.00278   1.94125
    A2        1.85064  -0.00145  -0.00106  -0.00202  -0.00308   1.84756
    A3        2.10155  -0.00052  -0.00052  -0.00079  -0.00131   2.10024
    A4        1.89544   0.00082   0.00078   0.00109   0.00187   1.89731
    A5        2.28619  -0.00030  -0.00026  -0.00030  -0.00056   2.28563
    A6        1.84603  -0.00055  -0.00060  -0.00067  -0.00128   1.84475
    A7        1.89419  -0.00025  -0.00075   0.00046  -0.00029   1.89391
    A8        2.17923   0.00031   0.00043   0.00053   0.00097   2.18019
    A9        2.20976  -0.00007   0.00031  -0.00099  -0.00068   2.20909
    D1        0.00000   0.00000   0.00000   0.00000   0.00000   0.00000
    D2        0.00000   0.00000   0.00000   0.00000   0.00000   0.00000
    D3        3.14159   0.00000   0.00000   0.00000   0.00000   3.14159
    D4        0.00000   0.00000   0.00000   0.00000   0.00000   0.00000
    D5        0.00000   0.00000   0.00000   0.00000   0.00000   0.00000
    D6        3.14159   0.00000   0.00000   0.00000   0.00000   3.14159
    D7        3.14159   0.00000   0.00000   0.00000   0.00000   3.14159
    D8        0.00000   0.00000   0.00000   0.00000   0.00000   0.00000
    D9        0.00000   0.00000   0.00000   0.00000   0.00000   0.00000
   D10        3.14159   0.00000   0.00000   0.00000   0.00000   3.14159
         Item               Value     Threshold  Converged?
 Maximum Force            0.001445     0.000450     NO 
 RMS     Force            0.000618     0.000300     NO 
 Maximum Displacement     0.002824     0.001800     NO 
 RMS     Displacement     0.001090     0.001200     YES
 Predicted change in Energy=-8.594514D-06
 GradGradGradGradGradGradGradGradGradGradGradGradGradGradGradGradGradGrad

                          Input orientation:                          
 ---------------------------------------------------------------------
 Center     Atomic      Atomic             Coordinates (Angstroms)
 Number     Number       Type             X           Y           Z
 ---------------------------------------------------------------------
      1          7           0       -0.732080   -0.935879    0.000000
      2          7           0       -1.128500    0.300864    0.000000
      3          7           0       -0.000569    1.051111    0.000000
      4          1           0       -0.058552    2.058271    0.000000
      5          7           0        0.633368   -1.018270    0.000000
      6          6           0        1.066076    0.227837    0.000000
      7          1           0        2.092967    0.550075    0.000000
 ---------------------------------------------------------------------
                    Distance matrix (angstroms):
                    1          2          3          4          5
     1  N    0.000000
     2  N    1.298724   0.000000
     3  N    2.117366   1.354658   0.000000
     4  H    3.068970   2.057491   1.008828   0.000000
     5  N    1.367932   2.200976   2.164305   3.153389   0.000000
     6  C    2.141869   2.195791   1.347409   2.148320   1.319098
     7  H    3.192014   3.231092   2.152657   2.627488   2.142460
                    6          7
     6  C    0.000000
     7  H    1.076263   0.000000
 Stoichiometry    CH2N4
 Framework group  CS[SG(CH2N4)]
 Deg. of freedom    11
 Full point group                 CS      NOp   2
 Largest Abelian subgroup         CS      NOp   2
 Largest concise Abelian subgroup C1      NOp   1
                         Standard orientation:                         
 ---------------------------------------------------------------------
 Center     Atomic      Atomic             Coordinates (Angstroms)
 Number     Number       Type             X           Y           Z
 ---------------------------------------------------------------------
      1          7           0       -0.724039   -0.931944    0.000000
      2          7           0       -1.125104    0.303301    0.000000
      3          7           0        0.000000    1.057781    0.000000
      4          1           0       -0.061768    2.064716    0.000000
      5          7           0        0.641710   -1.009203    0.000000
      6          6           0        1.069732    0.238521    0.000000
      7          1           0        2.095404    0.564616    0.000000
 ---------------------------------------------------------------------
 Rotational constants (GHZ):     10.4483247     10.2824908      5.1823722
 Standard basis: 6-31+G(d,p) (6D, 7F)
 There are    78 symmetry adapted basis functions of A'  symmetry.
 There are    27 symmetry adapted basis functions of A"  symmetry.
 Integral buffers will be    131072 words long.
 Raffenetti 1 integral format.
 Two-electron integral symmetry is turned on.
   105 basis functions,   174 primitive gaussians,   105 cartesian basis functions
    18 alpha electrons       18 beta electrons
       nuclear repulsion energy       166.1521697296 Hartrees.
 NAtoms=    7 NActive=    7 NUniq=    7 SFac= 1.00D+00 NAtFMM=   50 NAOKFM=F Big=F
 One-electron integrals computed using PRISM.
 NBasis=   105 RedAO= T  NBF=    78    27
 NBsUse=   105 1.00D-06 NBFU=    78    27
 Initial guess read from the read-write file.
 B after Tr=     0.000000    0.000000    0.000000
         Rot=    1.000000    0.000000    0.000000    0.000000 Ang=   0.00 deg.
 Initial guess orbital symmetries:
       Occupied  (A') (A') (A') (A') (A') (A') (A') (A') (A') (A')
                 (A') (A') (A") (A') (A") (A') (A') (A")
       Virtual   (A') (A") (A') (A") (A') (A") (A') (A') (A') (A")
                 (A") (A') (A') (A') (A') (A") (A') (A") (A') (A')
                 (A') (A') (A') (A') (A') (A') (A') (A') (A') (A")
                 (A') (A') (A') (A') (A') (A") (A") (A') (A') (A")
                 (A') (A") (A') (A') (A') (A') (A') (A") (A') (A')
                 (A") (A") (A') (A") (A") (A') (A') (A') (A') (A')
                 (A') (A") (A') (A") (A") (A') (A') (A") (A') (A")
                 (A') (A") (A') (A') (A") (A') (A') (A') (A') (A')
                 (A') (A') (A') (A') (A') (A') (A')
 Requested convergence on RMS density matrix=1.00D-08 within 128 cycles.
 Requested convergence on MAX density matrix=1.00D-06.
 Requested convergence on             energy=1.00D-06.
 No special actions if energy rises.
 Keep R1 ints in memory in canonical form, NReq=16525744.
 SCF Done:  E(RB2PLYP) =  -257.761406899     A.U. after   10 cycles
             Convg  =    0.3923D-08             -V/T =  2.0072
 Range of M.O.s used for correlation:     1   105
 NBasis=   105 NAE=    18 NBE=    18 NFC=     0 NFV=     0
 NROrb=    105 NOA=    18 NOB=    18 NVA=    87 NVB=    87

 **** Warning!!: The largest alpha MO coefficient is  0.51917814D+02

 DoSCS=T DFT=T ScalE2(SS,OS)=  0.270000  0.270000
 Fully direct method using O(ONN) memory.
 JobTyp=1 Pass  1:  I=   1 to  18 NPSUse=  8 ParTrn=T ParDer=T DoDerP=T.
 Spin components of T(2) and E(2):
     alpha-alpha T2 =       0.6356417300D-01 E2=     -0.3852782454D-01
     alpha-beta  T2 =       0.3200631065D+00 E2=     -0.1997763667D+00
     beta-beta   T2 =       0.6356417300D-01 E2=     -0.3852782454D-01
 E2(B2PLYP) =    -0.2768320158D+00 E(B2PLYP) =    -0.25803823891478D+03
          IDoAtm=1111111
          Differentiating once with respect to electric field.
                with respect to dipole field.
          Differentiating once with respect to nuclear coordinates.
          Keep R1 ints in memory in canonical form, NReq=16311633.
          There are     1 degrees of freedom in the 1st order CPHF.  IDoFFX=0.
 LinEq1:  Iter=  0 NonCon=     1 RMS=2.98D-03 Max=3.43D-02
 AX will form     1 AO Fock derivatives at one time.
 LinEq1:  Iter=  1 NonCon=     1 RMS=7.14D-04 Max=8.58D-03
 LinEq1:  Iter=  2 NonCon=     1 RMS=3.40D-04 Max=6.92D-03
 LinEq1:  Iter=  3 NonCon=     1 RMS=1.67D-04 Max=2.42D-03
 LinEq1:  Iter=  4 NonCon=     1 RMS=6.62D-05 Max=1.03D-03
 LinEq1:  Iter=  5 NonCon=     1 RMS=3.70D-05 Max=4.44D-04
 LinEq1:  Iter=  6 NonCon=     1 RMS=1.52D-05 Max=2.11D-04
 LinEq1:  Iter=  7 NonCon=     1 RMS=8.83D-06 Max=9.68D-05
 LinEq1:  Iter=  8 NonCon=     1 RMS=3.32D-06 Max=3.68D-05
 LinEq1:  Iter=  9 NonCon=     1 RMS=8.93D-07 Max=6.34D-06
 LinEq1:  Iter= 10 NonCon=     1 RMS=6.87D-07 Max=1.01D-05
 LinEq1:  Iter= 11 NonCon=     1 RMS=1.41D-07 Max=1.45D-06
 LinEq1:  Iter= 12 NonCon=     1 RMS=2.28D-08 Max=2.07D-07
 LinEq1:  Iter= 13 NonCon=     1 RMS=4.03D-09 Max=3.39D-08
 LinEq1:  Iter= 14 NonCon=     1 RMS=7.86D-10 Max=5.73D-09
 LinEq1:  Iter= 15 NonCon=     1 RMS=1.32D-10 Max=8.07D-10
 LinEq1:  Iter= 16 NonCon=     0 RMS=2.74D-11 Max=2.84D-10
 Linear equations converged to 1.000D-10 1.000D-09 after    16 iterations.
 End of Minotr Frequency-dependent properties file   721 does not exist.
 End of Minotr Frequency-dependent properties file   722 does not exist.
 Calling FoFJK, ICntrl=      2127 FMM=F ISym2X=1 I1Cent= 0 IOpClX= 0 NMat=1 NMatS=1 NMatT=0.
 ***** Axes restored to original set *****
 -------------------------------------------------------------------
 Center     Atomic                   Forces (Hartrees/Bohr)
 Number     Number              X              Y              Z
 -------------------------------------------------------------------
      1        7           0.000705309   -0.000057561    0.000000000
      2        7           0.000354115    0.000077685    0.000000000
      3        7          -0.000353752   -0.000470865    0.000000000
      4        1           0.000032822   -0.000031677    0.000000000
      5        7          -0.001078698    0.000300339    0.000000000
      6        6           0.000310482    0.000218867    0.000000000
      7        1           0.000029723   -0.000036789    0.000000000
 -------------------------------------------------------------------
 Cartesian Forces:  Max     0.001078698 RMS     0.000336754

 GradGradGradGradGradGradGradGradGradGradGradGradGradGradGradGradGradGrad
 Berny optimization.
 Using GEDIIS/GDIIS optimizer.
 Internal  Forces:  Max     0.000799407 RMS     0.000203653
 Search for a local minimum.
 Step number   5 out of a maximum of   36
 All quantities printed in internal units (Hartrees-Bohrs-Radians)
 Mixed Optimization -- En-DIIS/RFO-DIIS
 Swaping is turned off.
 Update second derivatives using D2CorX and points    1    2    3    4    5
 DE= -9.64D-06 DEPred=-8.59D-06 R= 1.12D+00
 SS=  1.41D+00  RLast= 5.82D-03 DXNew= 6.4887D-01 1.7450D-02
 Trust test= 1.12D+00 RLast= 5.82D-03 DXMaxT set to 3.86D-01
 ITU=  1  1  1  1  0
     Eigenvalues ---    0.02529   0.02668   0.02706   0.02869   0.15638
     Eigenvalues ---    0.16049   0.20616   0.34172   0.37804   0.47019
     Eigenvalues ---    0.51166   0.51237   0.54972   0.64413   0.76594
 En-DIIS/RFO-DIIS IScMMF=        0 using points:     5    4    3
 RFO step:  Lambda=-1.84370877D-06.
 DidBck=F Rises=F RFO-DIIS coefs:    1.19586   -0.15424   -0.04161
 Iteration  1 RMS(Cart)=  0.00056250 RMS(Int)=  0.00000024
 Iteration  2 RMS(Cart)=  0.00000026 RMS(Int)=  0.00000009
 ClnCor:  largest displacement from symmetrization is 1.37D-12 for atom     6.
 Variable       Old X    -DE/DX   Delta X   Delta X   Delta X     New X
                                  (DIIS)     (GDIIS)  (Total)
    R1        2.45423  -0.00015   0.00036  -0.00005   0.00031   2.45454
    R2        2.58502  -0.00080  -0.00050  -0.00172  -0.00222   2.58280
    R3        2.55993  -0.00034  -0.00022  -0.00061  -0.00084   2.55910
    R4        1.90641  -0.00003  -0.00008  -0.00009  -0.00017   1.90624
    R5        2.54623  -0.00014  -0.00032  -0.00031  -0.00063   2.54561
    R6        2.49273  -0.00001  -0.00006   0.00004  -0.00001   2.49272
    R7        2.03384   0.00002   0.00000   0.00004   0.00004   2.03388
    A1        1.94125  -0.00007   0.00031  -0.00060  -0.00029   1.94096
    A2        1.84756   0.00003  -0.00045  -0.00005  -0.00050   1.84706
    A3        2.10024  -0.00001  -0.00018  -0.00017  -0.00035   2.09989
    A4        1.89731   0.00007   0.00025   0.00071   0.00096   1.89827
    A5        2.28563  -0.00006  -0.00007  -0.00054  -0.00061   2.28502
    A6        1.84475   0.00030  -0.00016   0.00144   0.00128   1.84603
    A7        1.89391  -0.00034   0.00005  -0.00150  -0.00145   1.89246
    A8        2.18019   0.00021   0.00013   0.00106   0.00119   2.18138
    A9        2.20909   0.00013  -0.00018   0.00043   0.00026   2.20934
    D1        0.00000   0.00000   0.00000   0.00000   0.00000   0.00000
    D2        0.00000   0.00000   0.00000   0.00000   0.00000   0.00000
    D3        3.14159   0.00000   0.00000   0.00000   0.00000   3.14159
    D4        0.00000   0.00000   0.00000   0.00000   0.00000   0.00000
    D5        0.00000   0.00000   0.00000   0.00000   0.00000   0.00000
    D6        3.14159   0.00000   0.00000   0.00000   0.00000   3.14159
    D7        3.14159   0.00000   0.00000   0.00000   0.00000   3.14159
    D8        0.00000   0.00000   0.00000   0.00000   0.00000   0.00000
    D9        0.00000   0.00000   0.00000   0.00000   0.00000   0.00000
   D10        3.14159   0.00000   0.00000   0.00000   0.00000   3.14159
         Item               Value     Threshold  Converged?
 Maximum Force            0.000799     0.000450     NO 
 RMS     Force            0.000204     0.000300     YES
 Maximum Displacement     0.001503     0.001800     YES
 RMS     Displacement     0.000562     0.001200     YES
 Predicted change in Energy=-1.665937D-06
 GradGradGradGradGradGradGradGradGradGradGradGradGradGradGradGradGradGrad

                          Input orientation:                          
 ---------------------------------------------------------------------
 Center     Atomic      Atomic             Coordinates (Angstroms)
 Number     Number       Type             X           Y           Z
 ---------------------------------------------------------------------
      1          7           0       -0.731744   -0.935861    0.000000
      2          7           0       -1.128444    0.300963    0.000000
      3          7           0       -0.000644    1.050608    0.000000
      4          1           0       -0.058658    2.057676    0.000000
      5          7           0        0.632573   -1.017526    0.000000
      6          6           0        1.066271    0.228230    0.000000
      7          1           0        2.093354    0.549918    0.000000
 ---------------------------------------------------------------------
                    Distance matrix (angstroms):
                    1          2          3          4          5
     1  N    0.000000
     2  N    1.298886   0.000000
     3  N    2.116735   1.354216   0.000000
     4  H    3.068275   2.056814   1.008737   0.000000
     5  N    1.366758   2.199907   2.162902   3.151931   0.000000
     6  C    2.141954   2.195920   1.347076   2.147636   1.319091
     7  H    3.191977   3.231402   2.153026   2.627640   2.142607
                    6          7
     6  C    0.000000
     7  H    1.076282   0.000000
 Stoichiometry    CH2N4
 Framework group  CS[SG(CH2N4)]
 Deg. of freedom    11
 Full point group                 CS      NOp   2
 Largest Abelian subgroup         CS      NOp   2
 Largest concise Abelian subgroup C1      NOp   1
                         Standard orientation:                         
 ---------------------------------------------------------------------
 Center     Atomic      Atomic             Coordinates (Angstroms)
 Number     Number       Type             X           Y           Z
 ---------------------------------------------------------------------
      1          7           0       -0.723667   -0.932025    0.000000
      2          7           0       -1.124989    0.303307    0.000000
      3          7           0        0.000000    1.057164    0.000000
      4          1           0       -0.061779    2.064008    0.000000
      5          7           0        0.640945   -1.008588    0.000000
      6          6           0        1.069983    0.238781    0.000000
      7          1           0        2.095856    0.564307    0.000000
 ---------------------------------------------------------------------
 Rotational constants (GHZ):     10.4517449     10.2900175      5.1851253
 Standard basis: 6-31+G(d,p) (6D, 7F)
 There are    78 symmetry adapted basis functions of A'  symmetry.
 There are    27 symmetry adapted basis functions of A"  symmetry.
 Integral buffers will be    131072 words long.
 Raffenetti 1 integral format.
 Two-electron integral symmetry is turned on.
   105 basis functions,   174 primitive gaussians,   105 cartesian basis functions
    18 alpha electrons       18 beta electrons
       nuclear repulsion energy       166.1941469730 Hartrees.
 NAtoms=    7 NActive=    7 NUniq=    7 SFac= 1.00D+00 NAtFMM=   50 NAOKFM=F Big=F
 One-electron integrals computed using PRISM.
 NBasis=   105 RedAO= T  NBF=    78    27
 NBsUse=   105 1.00D-06 NBFU=    78    27
 Initial guess read from the read-write file.
 B after Tr=     0.000000    0.000000    0.000000
         Rot=    1.000000    0.000000    0.000000    0.000000 Ang=   0.00 deg.
 Initial guess orbital symmetries:
       Occupied  (A') (A') (A') (A') (A') (A') (A') (A') (A') (A')
                 (A') (A') (A") (A') (A") (A') (A') (A")
       Virtual   (A') (A") (A') (A") (A') (A") (A') (A') (A') (A")
                 (A") (A') (A') (A') (A') (A") (A') (A") (A') (A')
                 (A') (A') (A') (A') (A') (A') (A') (A') (A') (A")
                 (A') (A') (A') (A') (A') (A") (A") (A') (A') (A")
                 (A') (A") (A') (A') (A') (A') (A') (A") (A') (A')
                 (A") (A") (A') (A") (A") (A') (A') (A') (A') (A')
                 (A') (A") (A') (A") (A") (A') (A') (A") (A') (A")
                 (A') (A") (A') (A') (A") (A') (A') (A') (A') (A')
                 (A') (A') (A') (A') (A') (A') (A')
 Requested convergence on RMS density matrix=1.00D-08 within 128 cycles.
 Requested convergence on MAX density matrix=1.00D-06.
 Requested convergence on             energy=1.00D-06.
 No special actions if energy rises.
 Keep R1 ints in memory in canonical form, NReq=16525744.
 SCF Done:  E(RB2PLYP) =  -257.761461165     A.U. after    9 cycles
             Convg  =    0.6369D-08             -V/T =  2.0072
 Range of M.O.s used for correlation:     1   105
 NBasis=   105 NAE=    18 NBE=    18 NFC=     0 NFV=     0
 NROrb=    105 NOA=    18 NOB=    18 NVA=    87 NVB=    87

 **** Warning!!: The largest alpha MO coefficient is  0.52087305D+02

 DoSCS=T DFT=T ScalE2(SS,OS)=  0.270000  0.270000
 Fully direct method using O(ONN) memory.
 JobTyp=1 Pass  1:  I=   1 to  18 NPSUse=  8 ParTrn=T ParDer=T DoDerP=T.
 Spin components of T(2) and E(2):
     alpha-alpha T2 =       0.6353396043D-01 E2=     -0.3852283429D-01
     alpha-beta  T2 =       0.3198767476D+00 E2=     -0.1997338469D+00
     beta-beta   T2 =       0.6353396043D-01 E2=     -0.3852283429D-01
 E2(B2PLYP) =    -0.2767795155D+00 E(B2PLYP) =    -0.25803824068000D+03
          IDoAtm=1111111
          Differentiating once with respect to electric field.
                with respect to dipole field.
          Differentiating once with respect to nuclear coordinates.
          Keep R1 ints in memory in canonical form, NReq=16311633.
          There are     1 degrees of freedom in the 1st order CPHF.  IDoFFX=0.
 LinEq1:  Iter=  0 NonCon=     1 RMS=2.97D-03 Max=3.41D-02
 AX will form     1 AO Fock derivatives at one time.
 LinEq1:  Iter=  1 NonCon=     1 RMS=7.13D-04 Max=8.58D-03
 LinEq1:  Iter=  2 NonCon=     1 RMS=3.38D-04 Max=6.87D-03
 LinEq1:  Iter=  3 NonCon=     1 RMS=1.67D-04 Max=2.43D-03
 LinEq1:  Iter=  4 NonCon=     1 RMS=6.58D-05 Max=1.03D-03
 LinEq1:  Iter=  5 NonCon=     1 RMS=3.67D-05 Max=4.48D-04
 LinEq1:  Iter=  6 NonCon=     1 RMS=1.51D-05 Max=2.11D-04
 LinEq1:  Iter=  7 NonCon=     1 RMS=8.79D-06 Max=9.62D-05
 LinEq1:  Iter=  8 NonCon=     1 RMS=3.30D-06 Max=3.63D-05
 LinEq1:  Iter=  9 NonCon=     1 RMS=8.50D-07 Max=6.09D-06
 LinEq1:  Iter= 10 NonCon=     1 RMS=6.71D-07 Max=1.00D-05
 LinEq1:  Iter= 11 NonCon=     1 RMS=1.40D-07 Max=1.42D-06
 LinEq1:  Iter= 12 NonCon=     1 RMS=2.26D-08 Max=2.05D-07
 LinEq1:  Iter= 13 NonCon=     1 RMS=4.00D-09 Max=3.39D-08
 LinEq1:  Iter= 14 NonCon=     1 RMS=7.83D-10 Max=5.72D-09
 LinEq1:  Iter= 15 NonCon=     1 RMS=1.33D-10 Max=8.07D-10
 LinEq1:  Iter= 16 NonCon=     0 RMS=2.75D-11 Max=2.85D-10
 Linear equations converged to 1.000D-10 1.000D-09 after    16 iterations.
 End of Minotr Frequency-dependent properties file   721 does not exist.
[...]
 Approx polarizability:  54.539  -0.163  57.643   0.000   0.000  28.951
 Calling FoFJK, ICntrl=    100127 FMM=F ISym2X=1 I1Cent= 0 IOpClX= 0 NMat=1 NMatS=1 NMatT=0.
 Full mass-weighted force constant matrix:
 Low frequencies ---  -13.7385   -1.6568   -0.0009    0.0004    0.0010   12.0160
 Low frequencies ---  565.9605  685.1873  724.6968
 Harmonic frequencies (cm**-1), IR intensities (KM/Mole), Raman scattering
 activities (A**4/AMU), depolarization ratios for plane and unpolarized
 incident light, reduced masses (AMU), force constants (mDyne/A),
 and normal coordinates:
                     1                      2                      3
                    A"                     A"                     A"
 Frequencies --   565.9603               685.1872               724.6968
 Red. masses --     1.9056                 1.9454                 7.7656
 Frc consts  --     0.3596                 0.5381                 2.4029
 IR Inten    --    82.4071                12.2196                 9.3594
  Atom  AN      X      Y      Z        X      Y      Z        X      Y      Z
     1   7     0.00   0.00   0.01     0.00   0.00   0.04     0.00   0.00   0.48
     2   7     0.00   0.00  -0.09     0.00   0.00   0.09     0.00   0.00  -0.40
     3   7     0.00   0.00   0.22     0.00   0.00  -0.09     0.00   0.00   0.11
     4   1     0.00   0.00  -0.94     0.00   0.00  -0.83     0.00   0.00   0.69
     5   7     0.00   0.00   0.03     0.00   0.00  -0.17     0.00   0.00  -0.32
     6   6     0.00   0.00  -0.10     0.00   0.00   0.18     0.00   0.00   0.10
     7   1     0.00   0.00  -0.19     0.00   0.00   0.49     0.00   0.00   0.08
                     4                      5                      6
                    A"                     A'                     A'
 Frequencies --   844.3734               964.1176              1007.7765
 Red. masses --     1.3123                 5.1297                 6.6263
 Frc consts  --     0.5513                 2.8093                 3.9651
 IR Inten    --    25.4168                 4.1839                 0.3280
  Atom  AN      X      Y      Z        X      Y      Z        X      Y      Z
     1   7     0.00   0.00   0.02    -0.08   0.19   0.00     0.24  -0.05   0.00
     2   7     0.00   0.00   0.00    -0.14   0.16   0.00     0.09  -0.04   0.00
     3   7     0.00   0.00   0.02    -0.11  -0.07   0.00     0.01   0.41   0.00
     4   1     0.00   0.00   0.09     0.35  -0.04   0.00     0.26   0.44   0.00
     5   7     0.00   0.00   0.02     0.39  -0.22   0.00    -0.01  -0.26   0.00
     6   6     0.00   0.00  -0.16    -0.07  -0.11   0.00    -0.38  -0.08   0.00
     7   1     0.00   0.00   0.98    -0.32   0.67   0.00    -0.29  -0.44   0.00
                     7                      8                      9
                    A'                     A'                     A'
 Frequencies --  1051.2987              1067.7459              1152.7907
 Red. masses --     5.2333                 3.9124                 1.8107
 Frc consts  --     3.4079                 2.6280                 1.4177
 IR Inten    --    14.7402                31.1370                15.5706
  Atom  AN      X      Y      Z        X      Y      Z        X      Y      Z
     1   7     0.20   0.02   0.00     0.31   0.07   0.00    -0.09  -0.12   0.00
     2   7     0.32   0.24   0.00    -0.27   0.03   0.00     0.06  -0.01   0.00
     3   7    -0.21  -0.21   0.00     0.07  -0.15   0.00     0.12  -0.01   0.00
     4   1    -0.49  -0.24   0.00     0.87  -0.11   0.00     0.52   0.01   0.00
     5   7    -0.16  -0.05   0.00    -0.14   0.03   0.00    -0.03   0.00   0.00
     6   6    -0.10  -0.02   0.00    -0.03   0.01   0.00    -0.09   0.11   0.00
     7   1    -0.30   0.53   0.00    -0.05   0.08   0.00    -0.30   0.76   0.00
                    10                     11                     12
                    A'                     A'                     A'
 Frequencies --  1263.5011              1270.8111              1468.3856
 Red. masses --     5.2392                 3.0777                 3.1365
 Frc consts  --     4.9280                 2.9285                 3.9845
 IR Inten    --    16.2773                 0.7159                11.0697
  Atom  AN      X      Y      Z        X      Y      Z        X      Y      Z
     1   7     0.01   0.40   0.00    -0.05   0.09   0.00     0.00   0.00   0.00
     2   7     0.07  -0.36   0.00     0.14  -0.07   0.00    -0.06   0.08   0.00
     3   7     0.11  -0.02   0.00    -0.02  -0.13   0.00     0.20  -0.13   0.00
     4   1    -0.46  -0.06   0.00     0.61  -0.11   0.00    -0.71  -0.22   0.00
     5   7    -0.11  -0.07   0.00     0.10   0.22   0.00     0.06  -0.11   0.00
     6   6    -0.03   0.00   0.00    -0.24  -0.06   0.00    -0.17   0.25   0.00
     7   1    -0.24   0.64   0.00    -0.08  -0.67   0.00     0.05  -0.52   0.00
                    13                     14                     15
                    A'                     A'                     A'
 Frequencies --  1506.4523              3338.4290              3692.3403
 Red. masses --     2.9855                 1.1006                 1.0843
 Frc consts  --     3.9919                 7.2272                 8.7097
 IR Inten    --    19.3272                 2.7201               107.1869
  Atom  AN      X      Y      Z        X      Y      Z        X      Y      Z
     1   7     0.05  -0.06   0.00     0.00   0.00   0.00     0.00   0.00   0.00
     2   7    -0.09   0.06   0.00     0.00   0.00   0.00     0.00   0.00   0.00
     3   7     0.17   0.02   0.00     0.00   0.00   0.00     0.01  -0.08   0.00
     4   1    -0.74  -0.03   0.00     0.01   0.02   0.00    -0.06   0.99   0.00
     5   7     0.04   0.19   0.00     0.00   0.00   0.00     0.00   0.00   0.00
     6   6    -0.11  -0.27   0.00     0.09   0.03   0.00     0.00   0.00   0.00
     7   1    -0.35   0.39   0.00    -0.95  -0.30   0.00     0.02   0.00   0.00

 -------------------
 - Thermochemistry -
 -------------------
 Temperature   298.150 Kelvin.  Pressure   1.00000 Atm.
 Atom     1 has atomic number  7 and mass  14.00307
 Atom     2 has atomic number  7 and mass  14.00307
 Atom     3 has atomic number  7 and mass  14.00307
 Atom     4 has atomic number  1 and mass   1.00783
 Atom     5 has atomic number  7 and mass  14.00307
 Atom     6 has atomic number  6 and mass  12.00000
 Atom     7 has atomic number  1 and mass   1.00783
 Molecular mass:    70.02795 amu.
 Principal axes and moments of inertia in atomic units:
                           1         2         3
     Eigenvalues --   172.67368 175.38757 348.06125
           X            0.86260   0.50589   0.00000
           Y           -0.50589   0.86260   0.00000
           Z            0.00000   0.00000   1.00000
 This molecule is an asymmetric top.
 Rotational symmetry number  1.
 Rotational temperatures (Kelvin)      0.50160     0.49384     0.24885
 Rotational constants (GHZ):          10.45174    10.29002     5.18513
 Zero-point vibrational energy     123238.5 (Joules/Mol)
                                   29.45471 (Kcal/Mol)
 Warning -- explicit consideration of   1 degrees of freedom as
           vibrations may cause significant error
 Vibrational temperatures:    814.29   985.83  1042.68  1214.86  1387.15
          (Kelvin)           1449.96  1512.58  1536.25  1658.61  1817.89
                             1828.41  2112.68  2167.45  4803.25  5312.45
 
 Zero-point correction=                           0.046939 (Hartree/Particle)
 Thermal correction to Energy=                    0.050432
 Thermal correction to Enthalpy=                  0.051377
 Thermal correction to Gibbs Free Energy=         0.020826
 Sum of electronic and zero-point Energies=           -257.991302
 Sum of electronic and thermal Energies=              -257.987808
 Sum of electronic and thermal Enthalpies=            -257.986864
 Sum of electronic and thermal Free Energies=         -258.017414
 
                     E (Thermal)             CV                S
                      KCal/Mol        Cal/Mol-Kelvin    Cal/Mol-Kelvin
 Total                   31.647             11.432             64.298
 Electronic               0.000              0.000              0.000
 Translational            0.889              2.981             38.656
 Rotational               0.889              2.981             23.870
 Vibrational             29.869              5.470              1.772
 Vibration     1          0.922              1.105              0.512
                       Q            Log10(Q)             Ln(Q)
 Total Bot       0.263348D-09         -9.579469        -22.057543
 Total V=0       0.102554D+13         12.010954         27.656244
 Vib (Bot)       0.311087D-21        -21.507118        -49.521970
 Vib (Bot)    1  0.273021D+00         -0.563804         -1.298207
 Vib (V=0)       0.121145D+01          0.083305          0.191818
 Vib (V=0)    1  0.106968D+01          0.029256          0.067364
 Electronic      0.100000D+01          0.000000          0.000000
 Translational   0.230336D+08          7.362362         16.952466
 Rotational      0.367525D+05          4.565287         10.511961
 ***** Axes restored to original set *****
 -------------------------------------------------------------------
 Center     Atomic                   Forces (Hartrees/Bohr)
 Number     Number              X              Y              Z
 -------------------------------------------------------------------
      1        7           0.000306019   -0.000030964    0.000000000
      2        7           0.000221561    0.000046284    0.000000000
      3        7          -0.000331363    0.000203894    0.000000000
      4        1           0.000007051    0.000063700    0.000000000
      5        7          -0.000331420   -0.000294541    0.000000000
      6        6           0.000150035    0.000022623    0.000000000
      7        1          -0.000021883   -0.000010997    0.000000000
 -------------------------------------------------------------------
 Cartesian Forces:  Max     0.000331420 RMS     0.000157591

 GradGradGradGradGradGradGradGradGradGradGradGradGradGradGradGradGradGrad
 Berny optimization.
 Internal  Forces:  Max     0.000300643 RMS     0.000110002
 Search for a local minimum.
 Step number   1 out of a maximum of    2
 All quantities printed in internal units (Hartrees-Bohrs-Radians)
 Second derivative matrix not updated -- analytic derivatives used.
 ITU=  0
     Eigenvalues ---    0.00779   0.02486   0.06905   0.07604   0.10286
     Eigenvalues ---    0.10724   0.19749   0.24814   0.34409   0.38771
     Eigenvalues ---    0.41884   0.46374   0.48609   0.56672   0.61829
 Angle between quadratic step and forces=  21.38 degrees.
 Linear search not attempted -- first point.
 Iteration  1 RMS(Cart)=  0.00023962 RMS(Int)=  0.00000003
 Iteration  2 RMS(Cart)=  0.00000002 RMS(Int)=  0.00000001
 ClnCor:  largest displacement from symmetrization is 4.55D-12 for atom     1.
 Variable       Old X    -DE/DX   Delta X   Delta X   Delta X     New X
                                 (Linear)    (Quad)   (Total)
    R1        2.45454   0.00008   0.00000   0.00023   0.00023   2.45477
    R2        2.58280  -0.00030   0.00000  -0.00104  -0.00104   2.58176
    R3        2.55910  -0.00017   0.00000  -0.00047  -0.00047   2.55862
    R4        1.90624   0.00006   0.00000   0.00012   0.00012   1.90636
    R5        2.54561   0.00022   0.00000   0.00050   0.00050   2.54611
    R6        2.49272   0.00024   0.00000   0.00049   0.00049   2.49321
    R7        2.03388  -0.00002   0.00000  -0.00007  -0.00007   2.03381
    A1        1.94096   0.00008   0.00000   0.00017   0.00017   1.94113
    A2        1.84706   0.00013   0.00000   0.00020   0.00020   1.84726
    A3        2.09989   0.00009   0.00000   0.00025   0.00025   2.10014
    A4        1.89827  -0.00017   0.00000  -0.00028  -0.00028   1.89799
    A5        2.28502   0.00008   0.00000   0.00003   0.00003   2.28505
    A6        1.84603  -0.00008   0.00000   0.00001   0.00001   1.84604
    A7        1.89246   0.00004   0.00000  -0.00010  -0.00010   1.89236
    A8        2.18138  -0.00002   0.00000   0.00005   0.00005   2.18143
    A9        2.20934  -0.00002   0.00000   0.00005   0.00005   2.20940
    D1        0.00000   0.00000   0.00000   0.00000   0.00000   0.00000
    D2        0.00000   0.00000   0.00000   0.00000   0.00000   0.00000
    D3        3.14159   0.00000   0.00000   0.00000   0.00000   3.14159
    D4        0.00000   0.00000   0.00000   0.00000   0.00000   0.00000
    D5        0.00000   0.00000   0.00000   0.00000   0.00000   0.00000
    D6        3.14159   0.00000   0.00000   0.00000   0.00000   3.14159
    D7        3.14159   0.00000   0.00000   0.00000   0.00000   3.14159
    D8        0.00000   0.00000   0.00000   0.00000   0.00000   0.00000
    D9        0.00000   0.00000   0.00000   0.00000   0.00000   0.00000
   D10        3.14159   0.00000   0.00000   0.00000   0.00000   3.14159
         Item               Value     Threshold  Converged?
 Maximum Force            0.000301     0.000450     YES
 RMS     Force            0.000110     0.000300     YES
 Maximum Displacement     0.000593     0.001800     YES
 RMS     Displacement     0.000240     0.001200     YES
 Predicted change in Energy=-3.785479D-07
 Optimization completed.
    -- Stationary point found.
                           ----------------------------
                           !   Optimized Parameters   !
                           ! (Angstroms and Degrees)  !
 --------------------------                            --------------------------
 ! Name  Definition              Value          Derivative Info.                !
 --------------------------------------------------------------------------------
 ! R1    R(1,2)                  1.2989         -DE/DX =    0.0001              !
 ! R2    R(1,5)                  1.3668         -DE/DX =   -0.0003              !
 ! R3    R(2,3)                  1.3542         -DE/DX =   -0.0002              !
 ! R4    R(3,4)                  1.0087         -DE/DX =    0.0001              !
 ! R5    R(3,6)                  1.3471         -DE/DX =    0.0002              !
 ! R6    R(5,6)                  1.3191         -DE/DX =    0.0002              !
 ! R7    R(6,7)                  1.0763         -DE/DX =    0.0                 !
 ! A1    A(2,1,5)              111.2087         -DE/DX =    0.0001              !
 ! A2    A(1,2,3)              105.8287         -DE/DX =    0.0001              !
 ! A3    A(2,3,4)              120.3149         -DE/DX =    0.0001              !
 ! A4    A(2,3,6)              108.7631         -DE/DX =   -0.0002              !
 ! A5    A(4,3,6)              130.922          -DE/DX =    0.0001              !
 ! A6    A(1,5,6)              105.7696         -DE/DX =   -0.0001              !
 ! A7    A(3,6,5)              108.43           -DE/DX =    0.0                 !
 ! A8    A(3,6,7)              124.9841         -DE/DX =    0.0                 !
 ! A9    A(5,6,7)              126.586          -DE/DX =    0.0                 !
 ! D1    D(5,1,2,3)              0.0            -DE/DX =    0.0                 !
 ! D2    D(2,1,5,6)              0.0            -DE/DX =    0.0                 !
 ! D3    D(1,2,3,4)            180.0            -DE/DX =    0.0                 !
 ! D4    D(1,2,3,6)              0.0            -DE/DX =    0.0                 !
 ! D5    D(2,3,6,5)              0.0            -DE/DX =    0.0                 !
 ! D6    D(2,3,6,7)            180.0            -DE/DX =    0.0                 !
 ! D7    D(4,3,6,5)            180.0            -DE/DX =    0.0                 !
 ! D8    D(4,3,6,7)              0.0            -DE/DX =    0.0                 !
 ! D9    D(1,5,6,3)              0.0            -DE/DX =    0.0                 !
 ! D10   D(1,5,6,7)            180.0            -DE/DX =    0.0                 !
 --------------------------------------------------------------------------------
 GradGradGradGradGradGradGradGradGradGradGradGradGradGradGradGradGradGrad

 1\1\GINC-N241\Freq\RB2PLYP-Full\6-31+G(d,p)\C1H2N4\RDJ3\26-Jan-2012\0\
 \#N Geom=AllCheck Guess=TCheck SCRF=Check GenChk RB2PLYP-Full/6-31+G(d
 ,p) Freq\\1htz 1H-Tetrazole casno=288948 state=1 config=1 method=59 ba
 sis=4\\0,1\N,-0.7317436277,-0.9358613337,0.\N,-1.128443649,0.300962968
 6,0.\N,-0.0006439576,1.0506084998,0.\H,-0.0586578186,2.0576760408,0.\N
 ,0.6325726331,-1.0175261388,0.\C,1.0662710789,0.2282297012,0.\H,2.0933
 543409,0.549918262,0.\\Version=EM64L-G09RevB.01\State=1-A'\HF=-257.761
 4612\MP2=-258.0382407\RMSD=1.617e-09\RMSF=1.576e-04\ZeroPoint=0.046939
 1\Thermal=0.0504325\Dipole=1.0482699,1.9438558,0.\DipoleDeriv=0.214908
 9,-0.0627153,0.,-0.1586028,-0.1200182,0.,0.,0.,-0.1697236,-0.1752215,0
 .3277792,0.,0.3762761,0.1403764,0.,0.,0.,-0.1016024,-0.0865447,-0.1451
 234,0.,-0.075377,-0.5896658,0.,0.,0.,-0.135162,0.2023876,-0.0094686,0.
 ,-0.0211048,0.299789,0.,0.,0.,0.3486988,-0.4258351,0.0720306,0.,-0.056
 1385,-0.2701766,0.,0.,0.,-0.203474,0.1875167,-0.156498,0.,-0.042408,0.
 4419573,0.,0.,0.,0.0795289,0.0827881,-0.0260045,0.,-0.022645,0.097738,
 0.,0.,0.,0.1817343\Polar=44.0343046,0.418731,43.553059,0.,0.,24.200025
 \PG=CS [SG(C1H2N4)]\NImag=0\\0.41925677,0.05758879,0.56796710,0.,0.,0.
 11933608,-0.12702621,0.02715873,0.,0.51817792,0.09756442,-0.30469989,0
 .,-0.08119623,0.47979613,0.,0.,-0.09230290,0.,0.,0.10918594,-0.0231203
 8,-0.07114036,0.,-0.21509126,-0.05776590,0.,0.56872236,-0.00342278,-0.
 14487739,0.,-0.01762840,-0.11741020,0.,-0.09260304,1.01817246,0.,0.,0.
 02456128,0.,0.,-0.06388298,0.,0.,0.08492451,-0.00911141,-0.01004086,0.
 ,0.01527612,-0.02938077,0.,-0.07397352,0.03424365,0.,0.06044649,-0.000
 77501,0.00030497,0.,0.00670377,-0.00910743,0.,0.02645047,-0.47199804,0
 .,-0.02435682,0.48212103,0.,0.,0.00781395,0.,0.,-0.01214246,0.,0.,-0.0
 0614116,0.,0.,0.01350909,-0.18470175,0.01512485,0.,-0.08152607,0.11063
 261,0.,0.01893020,-0.02761352,0.,-0.00646035,-0.00125826,0.,0.38937766
 ,-0.03533254,-0.10018919,0.,0.01581448,-0.03974058,0.,0.07938335,-0.10
 291101,0.,0.00848845,0.00049282,0.,0.00742353,0.60580997,0.,0.,-0.0869
 4698,0.,0.,0.03431121,0.,0.,0.01955566,0.,0.,0.00759296,0.,0.,0.105780
 14,-0.07613541,-0.02045293,0.,-0.10957828,-0.04047167,0.,-0.26268262,0
 .11622650,0.,0.01435828,-0.00709337,0.,-0.13582297,-0.07500604,0.,0.91
 821155,-0.11111997,-0.01312811,0.,0.04495712,-0.00282443,0.,0.08964668
 ,-0.19408453,0.,0.02139653,-0.00161840,0.,-0.07497174,-0.36343304,0.,0
 .11832881,0.65881122,0.,0.,0.01863450,0.,0.,0.01840449,0.,0.,-0.055445
 15,0.,0.,-0.00998190,0.,0.,-0.07486793,0.,0.,0.13155240,0.00083840,0.0
 0176177,0.,-0.00023223,0.00061754,0.,-0.01278478,-0.00920241,0.,-0.000
 53560,0.00032922,0.,0.00020328,-0.00077123,0.,-0.34835056,-0.08823743,
 0.,0.36086150,-0.00450291,-0.00537749,0.,0.00419053,-0.00601361,0.,0.0
 2602880,0.01310871,0.,-0.00035017,-0.00019494,0.,-0.02933748,-0.000028
 97,0.,-0.09153131,-0.08372271,0.,0.09550254,0.08222900,0.,0.,0.0089040
 6,0.,0.,0.00642669,0.,0.,-0.00357216,0.,0.,-0.00065048,0.,0.,-0.005425
 06,0.,0.,-0.02829641,0.,0.,0.02261336\\-0.00030602,0.00003096,0.,-0.00
 022156,-0.00004628,0.,0.00033136,-0.00020389,0.,-0.00000705,-0.0000637
 0,0.,0.00033142,0.00029454,0.,-0.00015003,-0.00002262,0.,0.00002188,0.
 00001100,0.\\\@


 THERE IS AN OLD, OLD RECIPE IN MAINE FOR STEWING COOT. PLACE THE
 BIRD IN A KETTLE OF WATER WITH A RED BUILDING BRICK FREE OF MORTAR AND
 BLEMISHES. PARBOIL THE COOT AND BRICK TOGETHER FOR THREE HOURS.
 POUR OFF THE WATER, REFILL THE KETTLE, AND AGAIN PARBOIL FOR THREE HOURS.
 ONCE AGAIN POUR OFF THE WATER, FOR THE LAST TIME ADD FRESH WATER,
 AND LET THE COOT AND BRICK SIMMER TOGETHER OVERNIGHT. IN THE MORNING,
 THROW AWAY THE COOT AND EAT THE BRICK.
 Job cpu time:  0 days  0 hours 23 minutes 26.3 seconds.
 File lengths (MBytes):  RWF=    783 Int=      0 D2E=      0 Chk=      2 Scr=      1
 Normal termination of Gaussian 09 at Thu Jan 26 15:52:46 2012.
