 Entering Gaussian System, Link 0=g98
 Initial command:
 /usr/local/apps/g98/g98/l1.exe /wrk/rdj3/Gau-4042.inp -scrdir=/wrk/rdj3/
 Entering Link 1 = /usr/local/apps/g98/g98/l1.exe PID=     13772.
  
 Copyright (c) 1988,1990,1992,1993,1995,1998 Gaussian, Inc.
                  All Rights Reserved.
  
 This is part of the Gaussian(R) 98 program.  It is based on
 the Gaussian 94(TM) system (copyright 1995 Gaussian, Inc.),
 the Gaussian 92(TM) system (copyright 1992 Gaussian, Inc.),
 the Gaussian 90(TM) system (copyright 1990 Gaussian, Inc.),
 the Gaussian 88(TM) system (copyright 1988 Gaussian, Inc.),
 the Gaussian 86(TM) system (copyright 1986 Carnegie Mellon
 University), and the Gaussian 82(TM) system (copyright 1983
 Carnegie Mellon University). Gaussian is a federally registered
 trademark of Gaussian, Inc.
  
 This software contains proprietary and confidential information,
 including trade secrets, belonging to Gaussian, Inc.
  
 This software is provided under written license and may be
 used, copied, transmitted, or stored only in accord with that
 written license.
  
 The following legend is applicable only to US Government
 contracts under DFARS:
  
                    RESTRICTED RIGHTS LEGEND
  
 Use, duplication or disclosure by the US Government is subject
 to restrictions as set forth in subparagraph (c)(1)(ii) of the
 Rights in Technical Data and Computer Software clause at DFARS
 252.227-7013.
  
 Gaussian, Inc.
 Carnegie Office Park, Building 6, Pittsburgh, PA 15106 USA
  
 The following legend is applicable only to US Government
 contracts under FAR:
  
                    RESTRICTED RIGHTS LEGEND
  
 Use, reproduction and disclosure by the US Government is subject
 to restrictions as set forth in subparagraph (c) of the
 Commercial Computer Software - Restricted Rights clause at FAR
 52.227-19.
  
 Gaussian, Inc.
 Carnegie Office Park, Building 6, Pittsburgh, PA 15106 USA
  
  
 ---------------------------------------------------------------
 Warning -- This program may not be used in any manner that
 competes with the business of Gaussian, Inc. or will provide
 assistance to any competitor of Gaussian, Inc.  The licensee
 of this program is prohibited from giving any competitor of
 Gaussian, Inc. access to this program.  By using this program,
 the user acknowledges that Gaussian, Inc. is engaged in the
 business of creating and licensing software in the field of
 computational chemistry and represents and warrants to the
 licensee that it is not a competitor of Gaussian, Inc. and that
 it will not use this program in any manner prohibited above.
 ---------------------------------------------------------------
  

 Cite this work as:
 Gaussian 98, Revision A.4,
 M. J. Frisch, G. W. Trucks, H. B. Schlegel, G. E. Scuseria, 
 M. A. Robb, J. R. Cheeseman, V. G. Zakrzewski, J. A. Montgomery, Jr., 
 R. E. Stratmann, J. C. Burant, S. Dapprich, J. M. Millam, 
 A. D. Daniels, K. N. Kudin, M. C. Strain, O. Farkas, J. Tomasi, 
 V. Barone, M. Cossi, R. Cammi, B. Mennucci, C. Pomelli, C. Adamo, 
 S. Clifford, J. Ochterski, G. A. Petersson, P. Y. Ayala, Q. Cui, 
 K. Morokuma, D. K. Malick, A. D. Rabuck, K. Raghavachari, 
 J. B. Foresman, J. Cioslowski, J. V. Ortiz, B. B. Stefanov, G. Liu, 
 A. Liashenko, P. Piskorz, I. Komaromi, R. Gomperts, R. L. Martin, 
 D. J. Fox, T. Keith, M. A. Al-Laham, C. Y. Peng, A. Nanayakkara, 
 C. Gonzalez, M. Challacombe, P. M. W. Gill, B. Johnson, W. Chen, 
 M. W. Wong, J. L. Andres, C. Gonzalez, M. Head-Gordon, 
 E. S. Replogle, and J. A. Pople, 
 Gaussian, Inc., Pittsburgh PA, 1998.

 **********************************************
 Gaussian 98:  IBM-RS6000-G98RevA.4 11-Sep-1998
                   5-Nov-1999 
 **********************************************
 %mem=24000000
 ----------------------
 #QCISD/6-31G* OPT FREQ
 ----------------------
 1/18=20,38=1/1,3;
 2/9=110,17=6,18=5/2;
 3/5=1,6=6,7=1,11=9,25=1,30=1/1,2,3;
 4//1;
 5/5=2,38=4/2;
 8/6=7,9=120000,10=1,23=2/1,4;
 9/5=8,15=1/13;
 11/28=-7,29=200,42=1/11;
 10/5=6/2;
 6/7=2,8=2,9=2,10=2/1;
 7/12=7/1,2,3,16;
 1/18=20/3(1);
 99//99;
 2/9=110/2;
 3/5=1,6=6,7=1,11=9,25=1,30=1/1,2,3;
 4/5=5,16=2/1;
 5/5=2,38=4/2;
 8/6=7,9=120000,10=1,23=2/1,4;
 9/5=8,15=1/13;
 11/28=-7,29=200,42=1/11;
 10/5=6/2;
 7/12=7/1,2,3,16;
 1/18=20/3(-9);
 2/9=110/2;
 6/7=2,8=2,9=2,10=2/1;
 99//99;
 ----------------------------------------
 1H tetrazole c CH-NH-N=N-N= casno=288948
 ----------------------------------------
 Symbolic Z-matrix:
 Charge =  0 Multiplicity = 1
 7                    -0.72647  -0.92803   0. 
 7                    -1.12401   0.30133   0. 
 7                     0.        1.05739   0. 
 1                    -0.06426   2.06724   0. 
 7                     0.64397  -1.00901   0. 
 6                     1.06855   0.23609   0. 
 1                     2.09846   0.56435   0. 

 GradGradGradGradGradGradGradGradGradGradGradGradGradGradGradGradGradGrad
 Berny optimization.
 Initialization pass.
                         ----------------------------
                         !    Initial Parameters    !
                         ! (Angstroms and Degrees)  !
 ------------------------                            -------------------------
 ! Name  Definition              Value          Derivative Info.             !
 -----------------------------------------------------------------------------
 ! R1    R(1,2)                  1.292          estimate D2E/DX2             !
 ! R2    R(1,5)                  1.3728         estimate D2E/DX2             !
 ! R3    R(2,3)                  1.3546         estimate D2E/DX2             !
 ! R4    R(3,4)                  1.0119         estimate D2E/DX2             !
 ! R5    R(3,6)                  1.3477         estimate D2E/DX2             !
 ! R6    R(5,6)                  1.3155         estimate D2E/DX2             !
 ! R7    R(6,7)                  1.081          estimate D2E/DX2             !
 ! A1    A(2,1,5)              111.3016         estimate D2E/DX2             !
 ! A2    A(1,2,3)              106.0067         estimate D2E/DX2             !
 ! A3    A(2,3,4)              120.2853         estimate D2E/DX2             !
 ! A4    A(2,3,6)              108.5273         estimate D2E/DX2             !
 ! A5    A(4,3,6)              131.1874         estimate D2E/DX2             !
 ! A6    A(1,5,6)              105.4478         estimate D2E/DX2             !
 ! A7    A(3,6,5)              108.7165         estimate D2E/DX2             !
 ! A8    A(3,6,7)              124.7757         estimate D2E/DX2             !
 ! A9    A(5,6,7)              126.5078         estimate D2E/DX2             !
 ! D1    D(5,1,2,3)              0.             estimate D2E/DX2             !
 ! D2    D(2,1,5,6)              0.             estimate D2E/DX2             !
 ! D3    D(1,2,3,4)            180.             estimate D2E/DX2             !
 ! D4    D(1,2,3,6)              0.             estimate D2E/DX2             !
 ! D5    D(2,3,6,5)              0.             estimate D2E/DX2             !
 ! D6    D(2,3,6,7)            180.             estimate D2E/DX2             !
 ! D7    D(4,3,6,5)            180.             estimate D2E/DX2             !
 ! D8    D(4,3,6,7)              0.             estimate D2E/DX2             !
 ! D9    D(1,5,6,3)              0.             estimate D2E/DX2             !
 ! D10   D(1,5,6,7)            180.             estimate D2E/DX2             !
 -----------------------------------------------------------------------------
 Trust Radius=3.00D-01 FncErr=1.00D-07 GrdErr=1.00D-07
 Number of steps in this run=  36 maximum allowed number of steps= 100.
 GradGradGradGradGradGradGradGradGradGradGradGradGradGradGradGradGradGrad

                          Input orientation:                          
 ---------------------------------------------------------------------
 Center     Atomic     Atomic              Coordinates (Angstroms)
 Number     Number      Type              X           Y           Z
 ---------------------------------------------------------------------
    1          7             0       -0.726465   -0.928025    0.000000
    2          7             0       -1.124007    0.301334    0.000000
    3          7             0        0.000000    1.057392    0.000000
    4          1             0       -0.064264    2.067238    0.000000
    5          7             0        0.643969   -1.009007    0.000000
    6          6             0        1.068554    0.236093    0.000000
    7          1             0        2.098462    0.564346    0.000000
 ---------------------------------------------------------------------
                    Distance matrix (angstroms):
                    1          2          3          4          5
     1  N    0.000000
     2  N    1.292038   0.000000
     3  N    2.114150   1.354627   0.000000
     4  H    3.067590   2.059483   1.011889   0.000000
     5  N    1.372825   2.200621   2.164417   3.156719   0.000000
     6  C    2.139454   2.193531   1.347716   2.153223   1.315502
     7  H    3.194900   3.233184   2.155606   2.633642   2.142659
                    6          7
     6  C    0.000000
     7  H    1.080954   0.000000
 Stoichiometry    CH2N4
 Framework group  CS[SG(CH2N4)]
 Deg. of freedom   11
 Full point group                 CS      NOp   2
 Largest Abelian subgroup         CS      NOp   2
 Largest concise Abelian subgroup C1      NOp   1
                         Standard orientation:                         
 ---------------------------------------------------------------------
 Center     Atomic     Atomic              Coordinates (Angstroms)
 Number     Number      Type              X           Y           Z
 ---------------------------------------------------------------------
    1          7             0       -0.726465   -0.928025    0.000000
    2          7             0       -1.124007    0.301334    0.000000
    3          7             0        0.000000    1.057392    0.000000
    4          1             0       -0.064264    2.067238    0.000000
    5          7             0        0.643969   -1.009007    0.000000
    6          6             0        1.068554    0.236093    0.000000
    7          1             0        2.098462    0.564346    0.000000
 ---------------------------------------------------------------------
 Rotational constants (GHZ):     10.4768694     10.2760979      5.1877563
 Isotopes: N-14,N-14,N-14,H-1,N-14,C-12,H-1
 Standard basis: 6-31G(d) (6D, 7F)
 There are    59 symmetry adapted basis functions of A'  symmetry.
 There are    20 symmetry adapted basis functions of A"  symmetry.
 Crude estimate of integral set expansion from redundant integrals=1.000.
 Integral buffers will be    262144 words long.
 Raffenetti 1 integral format.
 Two-electron integral symmetry is turned on.
    79 basis functions      148 primitive gaussians
    18 alpha electrons       18 beta electrons
       nuclear repulsion energy       166.2382231418 Hartrees.
 One-electron integrals computed using PRISM.
 NBasis=    79 RedAO= T  NBF=    59    20
 NBsUse=    79 1.00D-04 NBFU=    59    20
 Projected INDO Guess.
 Initial guess orbital symmetries:
       Occupied  (A') (A') (A') (A') (A') (A') (A') (A') (A') (A')
                 (A') (A") (A') (A') (A') (A") (A') (A")
       Virtual   (A") (A") (A') (A') (A') (A') (A') (A') (A') (A')
                 (A') (A') (A') (A') (A') (A') (A') (A') (A') (A')
                 (A') (A') (A') (A') (A') (A') (A') (A') (A') (A')
                 (A') (A') (A') (A') (A') (A') (A') (A') (A') (A')
                 (A') (A') (A') (A') (A') (A') (A") (A") (A") (A")
                 (A") (A") (A") (A") (A") (A") (A") (A") (A") (A")
                 (A")
 Requested convergence on RMS density matrix=1.00D-08 within  64 cycles.
 Requested convergence on MAX density matrix=1.00D-06.
 Keep R1 integrals in memory in canonical form, NReq=     5449697.
 SCF Done:  E(RHF) =  -256.748295392     A.U. after   15 cycles
             Convg  =    0.6569D-08             -V/T =  2.0037
             S**2   =   0.0000
 Range of M.O.s used for correlation:     6    79
 NBasis=    79 NAE=    18 NBE=    18 NFC=     5 NFV=     0
 NROrb=     74 NOA=    13 NOB=    13 NVA=    61 NVB=    61
 Estimate disk for full transformation    47694183 words.
 Spin components of T(2) and E(2):
     alpha-alpha T2 =       0.3781562374D-01 E2=     -0.1097388093D+00
     alpha-beta  T2 =       0.1908522861D+00 E2=     -0.5672149623D+00
     beta-beta   T2 =       0.3781562374D-01 E2=     -0.1097388093D+00
 ANorm=    0.1125381506D+01
 E2=       -0.7866925810D+00 EUMP2=       -0.25753498797280D+03
 Iterations=  50 Convergence= 0.100D-07
 Iteration Nr.   1
 **********************
 MP4(R+Q)=  0.21177284D-01
 E3=        0.29273494D-02        EUMP3=      -0.25753206062D+03
 E4(DQ)=   -0.11354167D-02        UMP4(DQ)=   -0.25753319604D+03
 E4(SDQ)=  -0.10605621D-01        UMP4(SDQ)=  -0.25754266624D+03
 DE(CORR)= -0.76258795D+00        E(CORR)=    -0.25751088334D+03
 NORM(A)=   0.11192618D+01
 Iteration Nr.   2
 **********************
 DE(CORR)= -0.79224525D+00        E(CORR)=    -0.25754054064D+03
 NORM(A)=   0.11316389D+01
 Iteration Nr.   3
 **********************
 DE(CORR)= -0.79223143D+00        E(CORR)=    -0.25754052683D+03
 NORM(A)=   0.11342713D+01
 Iteration Nr.   4
 **********************
 DE(CORR)= -0.79482923D+00        E(CORR)=    -0.25754312462D+03
 NORM(A)=   0.11351788D+01
 Iteration Nr.   5
 **********************
 DE(CORR)= -0.79513066D+00        E(CORR)=    -0.25754342605D+03
 NORM(A)=   0.11355434D+01
 Iteration Nr.   6
 **********************
 DE(CORR)= -0.79518002D+00        E(CORR)=    -0.25754347541D+03
 NORM(A)=   0.11355908D+01
 Iteration Nr.   7
 **********************
 DE(CORR)= -0.79518778D+00        E(CORR)=    -0.25754348317D+03
 NORM(A)=   0.11356100D+01
 Iteration Nr.   8
 **********************
 DE(CORR)= -0.79518103D+00        E(CORR)=    -0.25754347642D+03
 NORM(A)=   0.11356181D+01
 Iteration Nr.   9
 **********************
 DE(CORR)= -0.79518338D+00        E(CORR)=    -0.25754347877D+03
 NORM(A)=   0.11356201D+01
 Iteration Nr.  10
 **********************
 DE(CORR)= -0.79518362D+00        E(CORR)=    -0.25754347901D+03
 NORM(A)=   0.11356221D+01
 Iteration Nr.  11
 **********************
 DE(CORR)= -0.79518502D+00        E(CORR)=    -0.25754348041D+03
 NORM(A)=   0.11356232D+01
 Iteration Nr.  12
 **********************
 DE(CORR)= -0.79518521D+00        E(CORR)=    -0.25754348060D+03
 NORM(A)=   0.11356239D+01
 Iteration Nr.  13
 **********************
 DE(CORR)= -0.79518555D+00        E(CORR)=    -0.25754348094D+03
 NORM(A)=   0.11356242D+01
 Iteration Nr.  14
 **********************
 DE(CORR)= -0.79518559D+00        E(CORR)=    -0.25754348098D+03
 NORM(A)=   0.11356244D+01
 Iteration Nr.  15
 **********************
 DE(CORR)= -0.79518562D+00        E(CORR)=    -0.25754348101D+03
 NORM(A)=   0.11356245D+01
 Iteration Nr.  16
 **********************
 DE(CORR)= -0.79518564D+00        E(CORR)=    -0.25754348103D+03
 NORM(A)=   0.11356245D+01
 Iteration Nr.  17
 **********************
 DE(CORR)= -0.79518563D+00        E(CORR)=    -0.25754348102D+03
 NORM(A)=   0.11356245D+01
 Iteration Nr.  18
 **********************
 DE(CORR)= -0.79518564D+00        E(CORR)=    -0.25754348103D+03
 NORM(A)=   0.11356245D+01
 Iteration Nr.  19
 **********************
 DE(CORR)= -0.79518563D+00        E(CORR)=    -0.25754348103D+03
 NORM(A)=   0.11356245D+01
 Largest amplitude= 7.60D-02

 Z-AMPLITUDE ITERATIONS

 Iteration Nr.   1
 **********************
 DE(Z)  -0.76836641D+00          E(Z)=    -0.25751666180D+03
 NORM(A)=   0.11356223D+01
 Iteration Nr.   2
 **********************
 DE(Z)  -0.76836651D+00          E(Z)=    -0.25751666191D+03
 NORM(A)=   0.11356231D+01
 Iteration Nr.   3
 **********************
 DE(Z)  -0.76836646D+00          E(Z)=    -0.25751666185D+03
 NORM(A)=   0.11356248D+01
 Iteration Nr.   4
 **********************
 DE(Z)  -0.76836640D+00          E(Z)=    -0.25751666179D+03
 NORM(A)=   0.11356244D+01
 Iteration Nr.   5
 **********************
 DE(Z)  -0.76836641D+00          E(Z)=    -0.25751666180D+03
 NORM(A)=   0.11259779D+01
 Iteration Nr.   6
 **********************
 DE(Z)  -0.76875508D+00          E(Z)=    -0.25751705047D+03
 NORM(A)=   0.11259439D+01
 Iteration Nr.   7
 **********************
 DE(Z)  -0.76875099D+00          E(Z)=    -0.25751704638D+03
 NORM(A)=   0.11259370D+01
 Iteration Nr.   8
 **********************
 DE(Z)  -0.76875094D+00          E(Z)=    -0.25751704633D+03
 NORM(A)=   0.11259332D+01
 Iteration Nr.   9
 **********************
 DE(Z)  -0.76875105D+00          E(Z)=    -0.25751704644D+03
 NORM(A)=   0.11259324D+01
 Iteration Nr.  10
 **********************
 DE(Z)  -0.76875091D+00          E(Z)=    -0.25751704630D+03
 NORM(A)=   0.11259322D+01
 Iteration Nr.  11
 **********************
 DE(Z)  -0.76875103D+00          E(Z)=    -0.25751704642D+03
 NORM(A)=   0.11259322D+01
 Iteration Nr.  12
 **********************
 DE(Z)  -0.76875100D+00          E(Z)=    -0.25751704639D+03
 NORM(A)=   0.11259321D+01
 Iteration Nr.  13
 **********************
 DE(Z)  -0.76875101D+00          E(Z)=    -0.25751704641D+03
 NORM(A)=   0.11259321D+01
 Iteration Nr.  14
 **********************
 DE(Z)  -0.76875102D+00          E(Z)=    -0.25751704641D+03
 NORM(A)=   0.11259321D+01
 Iteration Nr.  15
 **********************
 DE(Z)  -0.76875102D+00          E(Z)=    -0.25751704641D+03
 NORM(A)=   0.11259320D+01
 Iteration Nr.  16
 **********************
 DE(Z)  -0.76875101D+00          E(Z)=    -0.25751704641D+03
 NORM(A)=   0.11259320D+01
 Iteration Nr.  17
 **********************
 DE(Z)  -0.76875101D+00          E(Z)=    -0.25751704641D+03
 NORM(A)=   0.11259320D+01
 Discarding MO integrals.
          Differentiating once with respect to electric field.
                with respect to dipole field.
          Differentiating once with respect to nuclear coordinates.
          Store integrals in memory, NReq=     5434786.
          There are   1 degrees of freedom in the 1st order CPHF.
   1 vectors were produced by pass  0.
 AX will form   1 AO Fock derivatives at one time.
   1 vectors were produced by pass  1.
   1 vectors were produced by pass  2.
   1 vectors were produced by pass  3.
   1 vectors were produced by pass  4.
   1 vectors were produced by pass  5.
   1 vectors were produced by pass  6.
   1 vectors were produced by pass  7.
   1 vectors were produced by pass  8.
   1 vectors were produced by pass  9.
   1 vectors were produced by pass 10.
   1 vectors were produced by pass 11.
   1 vectors were produced by pass 12.
   1 vectors were produced by pass 13.
   1 vectors were produced by pass 14.
 Inv2:  IOpt= 1 Iter= 1 AM= 3.20D-16 Conv= 1.00D-12.
 Inverted reduced A of dimension  15 with in-core refinement.

 **********************************************************************

            Population analysis using the SCF density.

 **********************************************************************

 Orbital Symmetries:
       Occupied  (A') (A') (A') (A') (A') (A') (A') (A') (A') (A')
                 (A') (A') (A") (A') (A') (A') (A") (A")
       Virtual   (A") (A") (A') (A') (A') (A') (A') (A') (A') (A')
                 (A") (A') (A') (A') (A') (A") (A') (A') (A") (A")
                 (A') (A') (A") (A') (A') (A') (A') (A') (A') (A")
                 (A") (A") (A') (A') (A") (A") (A') (A') (A') (A')
                 (A') (A') (A") (A") (A') (A') (A") (A") (A') (A')
                 (A") (A') (A') (A') (A') (A') (A') (A') (A') (A')
                 (A')
  The electronic state is 1-A'.
 Alpha  occ. eigenvalues --  -15.68909 -15.67060 -15.65268 -15.60939 -11.34359
 Alpha  occ. eigenvalues --   -1.48993  -1.25203  -1.19515  -0.90458  -0.88692
 Alpha  occ. eigenvalues --   -0.79783  -0.67402  -0.67200  -0.56738  -0.47634
 Alpha  occ. eigenvalues --   -0.47203  -0.45199  -0.41794
 Alpha virt. eigenvalues --    0.13847   0.18716   0.19648   0.25025   0.36701
 Alpha virt. eigenvalues --    0.37618   0.47458   0.49871   0.64312   0.73615
 Alpha virt. eigenvalues --    0.73934   0.82426   0.82528   0.89459   0.91669
 Alpha virt. eigenvalues --    0.91974   0.92636   0.94980   0.96296   1.04785
 Alpha virt. eigenvalues --    1.05511   1.08331   1.09305   1.12445   1.16648
 Alpha virt. eigenvalues --    1.22961   1.27780   1.30899   1.47299   1.55236
 Alpha virt. eigenvalues --    1.59582   1.63645   1.64399   1.68570   1.82616
 Alpha virt. eigenvalues --    1.84797   1.92899   2.15303   2.23213   2.33516
 Alpha virt. eigenvalues --    2.36591   2.46429   2.51300   2.56179   2.61590
 Alpha virt. eigenvalues --    2.65557   2.69545   2.75577   2.89789   2.90061
 Alpha virt. eigenvalues --    2.95306   3.01277   3.05822   3.27360   3.33210
 Alpha virt. eigenvalues --    3.38392   3.89257   4.01996   4.36373   4.44116
 Alpha virt. eigenvalues --    4.57051
          Condensed to atoms (all electrons):
              1          2          3          4          5          6
  1  N    6.633400   0.340282  -0.100648   0.004162   0.295122  -0.109997
  2  N    0.340282   6.681814   0.205909  -0.018629  -0.086584  -0.099183
  3  N   -0.100648   0.205909   6.930115   0.315507  -0.074183   0.310004
  4  H    0.004162  -0.018629   0.315507   0.276133   0.003156  -0.015340
  5  N    0.295122  -0.086584  -0.074183   0.003156   6.770857   0.473156
  6  C   -0.109997  -0.099183   0.310004  -0.015340   0.473156   4.742122
  7  H    0.003057   0.001260  -0.035372   0.001048  -0.021841   0.391432
              7
  1  N    0.003057
  2  N    0.001260
  3  N   -0.035372
  4  H    0.001048
  5  N   -0.021841
  6  C    0.391432
  7  H    0.400925
 Total atomic charges:
              1
  1  N   -0.065377
  2  N   -0.024869
  3  N   -0.551332
  4  H    0.433963
  5  N   -0.359683
  6  C    0.307807
  7  H    0.259491
 Sum of Mulliken charges=   0.00000
 Atomic charges with hydrogens summed into heavy atoms:
              1
  1  N   -0.065377
  2  N   -0.024869
  3  N   -0.117369
  4  H    0.000000
  5  N   -0.359683
  6  C    0.567298
  7  H    0.000000
 Sum of Mulliken charges=   0.00000
 Electronic spatial extent (au):  <R**2>=   252.6374
 Charge=     0.0000 electrons
 Dipole moment (Debye):
    X=     2.7112    Y=     5.0100    Z=     0.0000  Tot=     5.6966
 Quadrupole moment (Debye-Ang):
   XX=   -28.6718   YY=   -26.5180   ZZ=   -28.8787
   XY=     2.1058   XZ=     0.0000   YZ=     0.0000
 Octapole moment (Debye-Ang**2):
  XXX=    13.0582  YYY=    23.7737  ZZZ=     0.0000  XYY=    -0.7267
  XXY=     5.2290  XXZ=     0.0000  XZZ=    -0.4951  YZZ=     0.6114
  YYZ=     0.0000  XYZ=     0.0000
 Hexadecapole moment (Debye-Ang**3):
 XXXX=  -142.0229 YYYY=  -119.7772 ZZZZ=   -25.8446 XXXY=     7.5758
 XXXZ=     0.0000 YYYX=    -0.0269 YYYZ=     0.0000 ZZZX=     0.0000
 ZZZY=     0.0000 XXYY=   -54.0480 XXZZ=   -30.6585 YYZZ=   -29.3488
 XXYZ=     0.0000 YYXZ=     0.0000 ZZXY=     0.0968
 N-N= 1.662382231418D+02 E-N=-9.333400224421D+02  KE= 2.558139959332D+02
 Symmetry A'   KE= 2.468652180071D+02
 Symmetry A"   KE= 8.948777926042D+00
 ***** Axes restored to original set *****
 -------------------------------------------------------------------
 Center     Atomic                   Forces (Hartrees/Bohr)
 Number     Number              X              Y              Z
 -------------------------------------------------------------------
    1          7           0.000029240   -0.000017269    0.000000000
    2          7          -0.000062760   -0.000082676    0.000000000
    3          7           0.000128367   -0.000152945    0.000000000
    4          1           0.000001093   -0.000003818    0.000000000
    5          7          -0.000194154    0.000095958    0.000000000
    6          6           0.000062785    0.000176880    0.000000000
    7          1           0.000035429   -0.000016130    0.000000000
 -------------------------------------------------------------------
 Cartesian Forces:  Max     0.000194154 RMS     0.000080315

 GradGradGradGradGradGradGradGradGradGradGradGradGradGradGradGradGradGrad
 Berny optimization.
 Internal  Forces:  Max     0.000136158 RMS     0.000059827
 Search for a local minimum.
 Step number   1 out of a maximum of  36
 All quantities printed in internal units (Hartrees-Bohrs-Radians)
 Second derivative matrix not updated -- first step.
     Eigenvalues ---    0.02174   0.02281   0.02367   0.02546   0.16000
     Eigenvalues ---    0.16000   0.22591   0.24682   0.35879   0.45658
     Eigenvalues ---    0.46273   0.51751   0.53096   0.60172   0.67142
     Eigenvalues --- 1000.000001000.000001000.000001000.000001000.00000
     Eigenvalues --- 1000.000001000.000001000.000001000.000001000.00000
     Eigenvalues --- 1000.00000
 RFO step:  Lambda=-3.07251034D-07.
 Linear search not attempted -- first point.
 Iteration  1 RMS(Cart)=  0.00022106 RMS(Int)=  0.00000003
 Iteration  2 RMS(Cart)=  0.00000003 RMS(Int)=  0.00000001
 Variable       Old X    -DE/DX   Delta X   Delta X   Delta X     New X
                                 (Linear)    (Quad)   (Total)
    R1        2.44160  -0.00007   0.00000  -0.00011  -0.00011   2.44149
    R2        2.59426  -0.00008   0.00000  -0.00016  -0.00016   2.59410
    R3        2.55987   0.00010   0.00000   0.00018   0.00018   2.56006
    R4        1.91219   0.00000   0.00000  -0.00001  -0.00001   1.91218
    R5        2.54681  -0.00012   0.00000  -0.00022  -0.00022   2.54660
    R6        2.48594   0.00003   0.00000   0.00004   0.00004   2.48598
    R7        2.04271   0.00003   0.00000   0.00008   0.00008   2.04279
    A1        1.94258  -0.00007   0.00000  -0.00028  -0.00028   1.94230
    A2        1.85017  -0.00001   0.00000  -0.00006  -0.00006   1.85011
    A3        2.09937  -0.00003   0.00000  -0.00016  -0.00016   2.09921
    A4        1.89416   0.00007   0.00000   0.00033   0.00033   1.89449
    A5        2.28965  -0.00003   0.00000  -0.00017  -0.00017   2.28948
    A6        1.84041   0.00014   0.00000   0.00055   0.00055   1.84096
    A7        1.89746  -0.00013   0.00000  -0.00054  -0.00054   1.89692
    A8        2.17775   0.00009   0.00000   0.00044   0.00044   2.17818
    A9        2.20798   0.00004   0.00000   0.00010   0.00010   2.20808
    D1        0.00000   0.00000   0.00000   0.00000   0.00000   0.00000
    D2        0.00000   0.00000   0.00000   0.00000   0.00000   0.00000
    D3        3.14159   0.00000   0.00000   0.00000   0.00000   3.14159
    D4        0.00000   0.00000   0.00000   0.00000   0.00000   0.00000
    D5        0.00000   0.00000   0.00000   0.00000   0.00000   0.00000
    D6        3.14159   0.00000   0.00000   0.00000   0.00000   3.14159
    D7        3.14159   0.00000   0.00000   0.00000   0.00000   3.14159
    D8        0.00000   0.00000   0.00000   0.00000   0.00000   0.00000
    D9        0.00000   0.00000   0.00000   0.00000   0.00000   0.00000
   D10        3.14159   0.00000   0.00000   0.00000   0.00000   3.14159
         Item               Value     Threshold  Converged?
 Maximum Force            0.000136     0.000450     YES
 RMS     Force            0.000060     0.000300     YES
 Maximum Displacement     0.000543     0.001800     YES
 RMS     Displacement     0.000221     0.001200     YES
 Predicted change in Energy=-1.536254D-07
 Optimization completed.
    -- Stationary point found.
                         ----------------------------
                         !   Optimized Parameters   !
                         ! (Angstroms and Degrees)  !
 ------------------------                            -------------------------
 ! Name  Definition              Value          Derivative Info.             !
 -----------------------------------------------------------------------------
 ! R1    R(1,2)                  1.292          -DE/DX =   -0.0001           !
 ! R2    R(1,5)                  1.3728         -DE/DX =   -0.0001           !
 ! R3    R(2,3)                  1.3546         -DE/DX =    0.0001           !
 ! R4    R(3,4)                  1.0119         -DE/DX =    0.               !
 ! R5    R(3,6)                  1.3477         -DE/DX =   -0.0001           !
 ! R6    R(5,6)                  1.3155         -DE/DX =    0.               !
 ! R7    R(6,7)                  1.081          -DE/DX =    0.               !
 ! A1    A(2,1,5)              111.3016         -DE/DX =   -0.0001           !
 ! A2    A(1,2,3)              106.0067         -DE/DX =    0.               !
 ! A3    A(2,3,4)              120.2853         -DE/DX =    0.               !
 ! A4    A(2,3,6)              108.5273         -DE/DX =    0.0001           !
 ! A5    A(4,3,6)              131.1874         -DE/DX =    0.               !
 ! A6    A(1,5,6)              105.4478         -DE/DX =    0.0001           !
 ! A7    A(3,6,5)              108.7165         -DE/DX =   -0.0001           !
 ! A8    A(3,6,7)              124.7757         -DE/DX =    0.0001           !
 ! A9    A(5,6,7)              126.5078         -DE/DX =    0.               !
 ! D1    D(5,1,2,3)              0.             -DE/DX =    0.               !
 ! D2    D(2,1,5,6)              0.             -DE/DX =    0.               !
 ! D3    D(1,2,3,4)            180.             -DE/DX =    0.               !
 ! D4    D(1,2,3,6)              0.             -DE/DX =    0.               !
 ! D5    D(2,3,6,5)              0.             -DE/DX =    0.               !
 ! D6    D(2,3,6,7)            180.             -DE/DX =    0.               !
 ! D7    D(4,3,6,5)            180.             -DE/DX =    0.               !
 ! D8    D(4,3,6,7)              0.             -DE/DX =    0.               !
 ! D9    D(1,5,6,3)              0.             -DE/DX =    0.               !
 ! D10   D(1,5,6,7)            180.             -DE/DX =    0.               !
 -----------------------------------------------------------------------------
 GradGradGradGradGradGradGradGradGradGradGradGradGradGradGradGradGradGrad

 1\1\GINC-FERRUM\FOpt\RQCISD-FC\6-31G(d)\C1H2N4\RDJ3\05-Nov-1999\0\\#QC
 ISD/6-31G* OPT FREQ\\1H tetrazole c CH-NH-N=N-N= casno=288948\\0,1\N,-
 0.7264650034,-0.9280250191,0.\N,-1.1240070357,0.3013339705,0.\N,-0.000
 0000556,1.057392,0.\H,-0.0642640821,2.0672379983,0.\N,0.6439689987,-1.
 0090069831,0.\C,1.068553966,0.2360930281,0.\H,2.0984619574,0.564346055
 1,0.\\Version=IBM-RS6000-G98RevA.4\State=1-A'\HF=-256.7482954\MP2=-257
 .534988\MP3=-257.5320606\MP4D=-257.5543733\MP4DQ=-257.533196\MP4SDQ=-2
 57.5426662\QCISD=-257.543481\RMSD=6.569e-09\RMSF=8.032e-05\Dipole=0.99
 61978,1.9099396,0.\PG=CS [SG(C1H2N4)]\\@


 Spring appears, and we are once more children.
                                  -- Anonymous
 Job cpu time:  0 days  0 hours 12 minutes 46.7 seconds.
 File lengths (MBytes):  RWF=  319 Int=    0 D2E=    0 Chk=    3 Scr=    1
 Normal termination of Gaussian 98.
 Link1:  Proceeding to internal job step number  2.
 ------------------------------------------------------
 #N Geom=AllCheck Guess=TCheck RQCISD(FC)/6-31G(d) Freq
 ------------------------------------------------------
 1/10=4,29=7,30=1,38=11/1,3,6;
 2//2;
 3/5=1,6=6,7=1,11=1,25=1,30=1/1,2,3;
 4/5=101,7=1/1;
 5/5=2/2;
 8/6=7,9=120000,10=1,23=2/1,4;
 9/5=8,15=1/13;
 11/28=-7,29=200,42=1/11;
 10/5=6/2;
 6/7=2,8=2,9=2,10=2,22=-1/1;
 7/12=7/1,2,3,16;
 1/38=10/6(3);
 7/8=1,25=1,44=-1/16;
 1/10=4,30=1,38=10/3;
 99//99;
 3/5=1,6=6,7=1,11=1,25=1,30=1/1,2,3;
 4/5=5,7=1,16=2/1;
 5/5=2,38=4/2;
 8/6=7,9=120000,10=1,23=2/1,4;
 9/5=8,15=1/13;
 11/28=-7,29=200,42=1/11;
 10/5=6/2;
 6/7=2,8=2,9=2,10=2,22=-1/1;
 7/7=1,12=7/1,2,3,16;
 1/38=10/6(-9);
 7/8=1,25=1,44=-1/16;
 1/10=4,30=1,38=10/3;
 99//99;
 ----------------------------------------
 1H tetrazole c CH-NH-N=N-N= casno=288948
 ----------------------------------------
 Redundant internal coordinates taken from checkpointfile:
 /wrk/rdj3/Gau-13772.chk
 Charge =  0 Multiplicity = 1
 N,0,-0.7264650034,-0.9280250191,0.
 N,0,-1.1240070357,0.3013339705,0.
 N,0,-0.0000000556,1.057392,0.
 H,0,-0.0642640821,2.0672379983,0.
 N,0,0.6439689987,-1.0090069831,0.
 C,0,1.068553966,0.2360930281,0.
 H,0,2.0984619574,0.5643460551,0.
 Recover connectivity data from disk.

 GradGradGradGradGradGradGradGradGradGradGradGradGradGradGradGradGradGrad
 Berny optimization.
 Initialization pass.
                         ----------------------------
                         !    Initial Parameters    !
                         ! (Angstroms and Degrees)  !
 ------------------------                            -------------------------
 ! Name  Definition              Value          Derivative Info.             !
 -----------------------------------------------------------------------------
 ! R1    R(1,2)                  1.292          calculate D2E/DX2 analyticall!
 ! R2    R(1,5)                  1.3728         calculate D2E/DX2 analyticall!
 ! R3    R(2,3)                  1.3546         calculate D2E/DX2 analyticall!
 ! R4    R(3,4)                  1.0119         calculate D2E/DX2 analyticall!
 ! R5    R(3,6)                  1.3477         calculate D2E/DX2 analyticall!
 ! R6    R(5,6)                  1.3155         calculate D2E/DX2 analyticall!
 ! R7    R(6,7)                  1.081          calculate D2E/DX2 analyticall!
 ! A1    A(2,1,5)              111.3016         calculate D2E/DX2 analyticall!
 ! A2    A(1,2,3)              106.0067         calculate D2E/DX2 analyticall!
 ! A3    A(2,3,4)              120.2853         calculate D2E/DX2 analyticall!
 ! A4    A(2,3,6)              108.5273         calculate D2E/DX2 analyticall!
 ! A5    A(4,3,6)              131.1874         calculate D2E/DX2 analyticall!
 ! A6    A(1,5,6)              105.4478         calculate D2E/DX2 analyticall!
 ! A7    A(3,6,5)              108.7165         calculate D2E/DX2 analyticall!
 ! A8    A(3,6,7)              124.7757         calculate D2E/DX2 analyticall!
 ! A9    A(5,6,7)              126.5078         calculate D2E/DX2 analyticall!
 ! D1    D(5,1,2,3)              0.             calculate D2E/DX2 analyticall!
 ! D2    D(2,1,5,6)              0.             calculate D2E/DX2 analyticall!
 ! D3    D(1,2,3,4)            180.             calculate D2E/DX2 analyticall!
 ! D4    D(1,2,3,6)              0.             calculate D2E/DX2 analyticall!
 ! D5    D(2,3,6,5)              0.             calculate D2E/DX2 analyticall!
 ! D6    D(2,3,6,7)            180.             calculate D2E/DX2 analyticall!
 ! D7    D(4,3,6,5)            180.             calculate D2E/DX2 analyticall!
 ! D8    D(4,3,6,7)              0.             calculate D2E/DX2 analyticall!
 ! D9    D(1,5,6,3)              0.             calculate D2E/DX2 analyticall!
 ! D10   D(1,5,6,7)            180.             calculate D2E/DX2 analyticall!
 -----------------------------------------------------------------------------
 Trust Radius=3.00D-01 FncErr=1.00D-07 GrdErr=1.00D-07
 Number of steps in this run=  36 maximum allowed number of steps= 100.
 GradGradGradGradGradGradGradGradGradGradGradGradGradGradGradGradGradGrad

 Numerical evaluation of force-constants.
 Nuclear Step-Size= 0.001000 Angstroms.
                          Input orientation:                          
 ---------------------------------------------------------------------
 Center     Atomic     Atomic              Coordinates (Angstroms)
 Number     Number      Type              X           Y           Z
 ---------------------------------------------------------------------
    1          7             0       -0.726465   -0.928025    0.000000
    2          7             0       -1.124007    0.301334    0.000000
    3          7             0        0.000000    1.057392    0.000000
    4          1             0       -0.064264    2.067238    0.000000
    5          7             0        0.643969   -1.009007    0.000000
    6          6             0        1.068554    0.236093    0.000000
    7          1             0        2.098462    0.564346    0.000000
 ---------------------------------------------------------------------
                    Distance matrix (angstroms):
                    1          2          3          4          5
     1  N    0.000000
     2  N    1.292038   0.000000
     3  N    2.114150   1.354627   0.000000
     4  H    3.067590   2.059483   1.011889   0.000000
     5  N    1.372825   2.200621   2.164417   3.156719   0.000000
     6  C    2.139454   2.193531   1.347716   2.153223   1.315502
     7  H    3.194900   3.233184   2.155606   2.633642   2.142659
                    6          7
     6  C    0.000000
     7  H    1.080954   0.000000
                           Interatomic angles:
       N1-N2-N3=106.0067       N1-N2-H4=131.1116       N1-N3-H4=156.2612
       N2-N3-H4=120.2853       N2-N1-N5=111.3016       N3-N1-N5= 73.2842
       N2-N3-N5= 73.3825       H4-N2-N5= 95.5756       H4-N3-N5=166.3322
       N2-N1-C6= 74.9553       N1-N3-C6= 72.5514       N2-N3-C6=108.5273
       N1-C6-H4= 91.2219       N2-H4-C6= 62.7111       H4-N3-C6=131.1874
       N1-N5-C6=105.4478       N2-C6-N5= 72.8747       N3-C6-N5=108.7165
       H4-C6-N5=129.4278       N1-N3-H7= 96.8754       N2-N3-H7=132.8513
       N2-H4-H7= 86.1729       H4-N3-H7=106.8634       N1-N5-H7=129.3702
       N2-N5-H7= 96.2079       N3-H7-N5= 60.4702       H4-H7-N5= 82.0437
       N1-C6-H7=164.7137       N2-C6-H7=160.6175       N3-C6-H7=124.7757
       H4-C6-H7=104.0644       N5-C6-H7=126.5078
 Stoichiometry    CH2N4
 Framework group  CS[SG(CH2N4)]
 Deg. of freedom   11
 Full point group                 CS      NOp   2
 Largest Abelian subgroup         CS      NOp   2
 Largest concise Abelian subgroup C1      NOp   1
                         Standard orientation:                         
 ---------------------------------------------------------------------
 Center     Atomic     Atomic              Coordinates (Angstroms)
 Number     Number      Type              X           Y           Z
 ---------------------------------------------------------------------
    1          7             0       -0.726465   -0.928025    0.000000
    2          7             0       -1.124007    0.301334    0.000000
    3          7             0        0.000000    1.057392    0.000000
    4          1             0       -0.064264    2.067238    0.000000
    5          7             0        0.643969   -1.009007    0.000000
    6          6             0        1.068554    0.236093    0.000000
    7          1             0        2.098462    0.564346    0.000000
 ---------------------------------------------------------------------
 Rotational constants (GHZ):     10.4768694     10.2760979      5.1877563
 Isotopes: N-14,N-14,N-14,H-1,N-14,C-12,H-1
 Standard basis: 6-31G(d) (6D, 7F)
 There are    59 symmetry adapted basis functions of A'  symmetry.
 There are    20 symmetry adapted basis functions of A"  symmetry.
 Crude estimate of integral set expansion from redundant integrals=1.000.
 Integral buffers will be    262144 words long.
 Raffenetti 1 integral format.
 Two-electron integral symmetry is turned on.
    79 basis functions      148 primitive gaussians
    18 alpha electrons       18 beta electrons
       nuclear repulsion energy       166.2382231418 Hartrees.
 One-electron integrals computed using PRISM.
 NBasis=    79 RedAO= T  NBF=    59    20
 NBsUse=    79 1.00D-04 NBFU=    59    20
 Initial guess read from the checkpoint file:
 /wrk/rdj3/Gau-13772.chk
 Initial guess orbital symmetries:
       Occupied  (A') (A') (A') (A') (A') (A') (A') (A') (A') (A')
                 (A') (A') (A") (A') (A') (A') (A") (A")
       Virtual   (A") (A") (A') (A') (A') (A') (A') (A') (A') (A')
                 (A") (A') (A') (A') (A') (A") (A') (A') (A") (A")
                 (A') (A') (A") (A') (A') (A') (A') (A') (A') (A")
                 (A") (A") (A') (A') (A") (A") (A') (A') (A') (A')
                 (A') (A') (A") (A") (A') (A') (A") (A") (A') (A')
                 (A") (A') (A') (A') (A') (A') (A') (A') (A') (A')
                 (A')
 Requested convergence on RMS density matrix=1.00D-08 within  64 cycles.
 Requested convergence on MAX density matrix=1.00D-06.
 Keep R1 integrals in memory in canonical form, NReq=     5449697.
 SCF Done:  E(RHF) =  -256.748295392     A.U. after    1 cycles
             Convg  =    0.1172D-08             -V/T =  2.0037
             S**2   =   0.0000
 Range of M.O.s used for correlation:     6    79
 NBasis=    79 NAE=    18 NBE=    18 NFC=     5 NFV=     0
 NROrb=     74 NOA=    13 NOB=    13 NVA=    61 NVB=    61
 Estimate disk for full transformation    47694183 words.
 Spin components of T(2) and E(2):
     alpha-alpha T2 =       0.3781562335D-01 E2=     -0.1097388087D+00
     alpha-beta  T2 =       0.1908522850D+00 E2=     -0.5672149608D+00
     beta-beta   T2 =       0.3781562335D-01 E2=     -0.1097388087D+00
 ANorm=    0.1125381505D+01
 E2=       -0.7866925781D+00 EUMP2=       -0.25753498796991D+03
 Iterations=  50 Convergence= 0.100D-07
 Iteration Nr.   1
 **********************
 MP4(R+Q)=  0.21177284D-01
 E3=        0.29273483D-02        EUMP3=      -0.25753206062D+03
 E4(DQ)=   -0.11354168D-02        UMP4(DQ)=   -0.25753319604D+03
 E4(SDQ)=  -0.10605622D-01        UMP4(SDQ)=  -0.25754266624D+03
 DE(CORR)= -0.76258795D+00        E(CORR)=    -0.25751088334D+03
 NORM(A)=   0.11192618D+01
 Iteration Nr.   2
 **********************
 DE(CORR)= -0.79224525D+00        E(CORR)=    -0.25754054064D+03
 NORM(A)=   0.11316389D+01
 Iteration Nr.   3
 **********************
 DE(CORR)= -0.79223143D+00        E(CORR)=    -0.25754052682D+03
 NORM(A)=   0.11342713D+01
 Iteration Nr.   4
 **********************
 DE(CORR)= -0.79482923D+00        E(CORR)=    -0.25754312462D+03
 NORM(A)=   0.11351788D+01
 Iteration Nr.   5
 **********************
 DE(CORR)= -0.79513066D+00        E(CORR)=    -0.25754342605D+03
 NORM(A)=   0.11355434D+01
 Iteration Nr.   6
 **********************
 DE(CORR)= -0.79518002D+00        E(CORR)=    -0.25754347541D+03
 NORM(A)=   0.11355908D+01
 Iteration Nr.   7
 **********************
 DE(CORR)= -0.79518778D+00        E(CORR)=    -0.25754348317D+03
 NORM(A)=   0.11356100D+01
 Iteration Nr.   8
 **********************
 DE(CORR)= -0.79518102D+00        E(CORR)=    -0.25754347642D+03
 NORM(A)=   0.11356181D+01
 Iteration Nr.   9
 **********************
 DE(CORR)= -0.79518338D+00        E(CORR)=    -0.25754347877D+03
 NORM(A)=   0.11356201D+01
 Iteration Nr.  10
 **********************
 DE(CORR)= -0.79518362D+00        E(CORR)=    -0.25754347901D+03
 NORM(A)=   0.11356221D+01
 Iteration Nr.  11
 **********************
 DE(CORR)= -0.79518502D+00        E(CORR)=    -0.25754348041D+03
 NORM(A)=   0.11356232D+01
 Iteration Nr.  12
 **********************
 DE(CORR)= -0.79518520D+00        E(CORR)=    -0.25754348060D+03
 NORM(A)=   0.11356239D+01
 Iteration Nr.  13
 **********************
 DE(CORR)= -0.79518555D+00        E(CORR)=    -0.25754348094D+03
 NORM(A)=   0.11356242D+01
 Iteration Nr.  14
 **********************
 DE(CORR)= -0.79518559D+00        E(CORR)=    -0.25754348098D+03
 NORM(A)=   0.11356244D+01
 Iteration Nr.  15
 **********************
 DE(CORR)= -0.79518562D+00        E(CORR)=    -0.25754348101D+03
 NORM(A)=   0.11356245D+01
 Iteration Nr.  16
 **********************
 DE(CORR)= -0.79518564D+00        E(CORR)=    -0.25754348103D+03
 NORM(A)=   0.11356245D+01
 Iteration Nr.  17
 **********************
 DE(CORR)= -0.79518563D+00        E(CORR)=    -0.25754348102D+03
 NORM(A)=   0.11356245D+01
 Iteration Nr.  18
 **********************
 DE(CORR)= -0.79518564D+00        E(CORR)=    -0.25754348103D+03
 NORM(A)=   0.11356245D+01
 Iteration Nr.  19
 **********************
 DE(CORR)= -0.79518563D+00        E(CORR)=    -0.25754348103D+03
 NORM(A)=   0.11356245D+01
 Largest amplitude= 7.60D-02

 Z-AMPLITUDE ITERATIONS

 Iteration Nr.   1
 **********************
 DE(Z)  -0.76836641D+00          E(Z)=    -0.25751666180D+03
 NORM(A)=   0.11356018D+01
 Iteration Nr.   2
 **********************
 DE(Z)  -0.76836748D+00          E(Z)=    -0.25751666287D+03
 NORM(A)=   0.11356150D+01
 Iteration Nr.   3
 **********************
 DE(Z)  -0.76836678D+00          E(Z)=    -0.25751666217D+03
 NORM(A)=   0.11356188D+01
 Iteration Nr.   4
 **********************
 DE(Z)  -0.76836663D+00          E(Z)=    -0.25751666203D+03
 NORM(A)=   0.11356729D+01
 Iteration Nr.   5
 **********************
 DE(Z)  -0.76836453D+00          E(Z)=    -0.25751665992D+03
 NORM(A)=   0.11259384D+01
 Iteration Nr.   6
 **********************
 DE(Z)  -0.76875084D+00          E(Z)=    -0.25751704623D+03
 NORM(A)=   0.11259337D+01
 Iteration Nr.   7
 **********************
 DE(Z)  -0.76875129D+00          E(Z)=    -0.25751704668D+03
 NORM(A)=   0.11259322D+01
 Iteration Nr.   8
 **********************
 DE(Z)  -0.76875103D+00          E(Z)=    -0.25751704642D+03
 NORM(A)=   0.11259323D+01
 Iteration Nr.   9
 **********************
 DE(Z)  -0.76875093D+00          E(Z)=    -0.25751704632D+03
 NORM(A)=   0.11259321D+01
 Iteration Nr.  10
 **********************
 DE(Z)  -0.76875103D+00          E(Z)=    -0.25751704642D+03
 NORM(A)=   0.11259321D+01
 Iteration Nr.  11
 **********************
 DE(Z)  -0.76875100D+00          E(Z)=    -0.25751704639D+03
 NORM(A)=   0.11259321D+01
 Iteration Nr.  12
 **********************
 DE(Z)  -0.76875102D+00          E(Z)=    -0.25751704641D+03
 NORM(A)=   0.11259321D+01
 Iteration Nr.  13
 **********************
 DE(Z)  -0.76875102D+00          E(Z)=    -0.25751704641D+03
 NORM(A)=   0.11259320D+01
 Iteration Nr.  14
 **********************
 DE(Z)  -0.76875101D+00          E(Z)=    -0.25751704640D+03
 NORM(A)=   0.11259320D+01
 Iteration Nr.  15
 **********************
 DE(Z)  -0.76875101D+00          E(Z)=    -0.25751704640D+03
 NORM(A)=   0.11259320D+01
 Discarding MO integrals.
          Differentiating once with respect to electric field.
                with respect to dipole field.
          Differentiating once with respect to nuclear coordinates.
          Store integrals in memory, NReq=     5434786.
          There are   1 degrees of freedom in the 1st order CPHF.
   1 vectors were produced by pass  0.
 AX will form   1 AO Fock derivatives at one time.
   1 vectors were produced by pass  1.
   1 vectors were produced by pass  2.
   1 vectors were produced by pass  3.
   1 vectors were produced by pass  4.
   1 vectors were produced by pass  5.
   1 vectors were produced by pass  6.
   1 vectors were produced by pass  7.
   1 vectors were produced by pass  8.
   1 vectors were produced by pass  9.
   1 vectors were produced by pass 10.
   1 vectors were produced by pass 11.
   1 vectors were produced by pass 12.
   1 vectors were produced by pass 13.
   1 vectors were produced by pass 14.
 Inv2:  IOpt= 1 Iter= 1 AM= 3.07D-16 Conv= 1.00D-12.
 Inverted reduced A of dimension  15 with in-core refinement.

 **********************************************************************

            Population analysis using the QCI/CC density.

 **********************************************************************

 Orbital Symmetries:
       Occupied  (A') (A') (A') (A') (A') (A') (A') (A') (A') (A')
                 (A') (A') (A") (A') (A') (A') (A") (A")
       Virtual   (A") (A") (A') (A') (A') (A') (A') (A') (A') (A')
                 (A") (A') (A') (A') (A') (A") (A') (A') (A") (A")
                 (A') (A') (A") (A') (A') (A') (A') (A') (A') (A")
                 (A") (A") (A') (A') (A") (A") (A') (A') (A') (A')
                 (A') (A') (A") (A") (A') (A') (A") (A") (A') (A')
                 (A") (A') (A') (A') (A') (A') (A') (A') (A') (A')
                 (A')
  The electronic state is 1-A'.
 Alpha  occ. eigenvalues --  -15.68909 -15.67060 -15.65268 -15.60939 -11.34359
 Alpha  occ. eigenvalues --   -1.48993  -1.25203  -1.19515  -0.90458  -0.88692
 Alpha  occ. eigenvalues --   -0.79783  -0.67402  -0.67200  -0.56738  -0.47634
 Alpha  occ. eigenvalues --   -0.47203  -0.45199  -0.41794
 Alpha virt. eigenvalues --    0.13847   0.18716   0.19648   0.25025   0.36701
 Alpha virt. eigenvalues --    0.37618   0.47458   0.49871   0.64312   0.73615
 Alpha virt. eigenvalues --    0.73934   0.82426   0.82528   0.89459   0.91669
 Alpha virt. eigenvalues --    0.91974   0.92636   0.94980   0.96296   1.04785
 Alpha virt. eigenvalues --    1.05511   1.08331   1.09305   1.12445   1.16648
 Alpha virt. eigenvalues --    1.22961   1.27780   1.30899   1.47299   1.55236
 Alpha virt. eigenvalues --    1.59582   1.63645   1.64399   1.68570   1.82616
 Alpha virt. eigenvalues --    1.84797   1.92899   2.15303   2.23213   2.33516
 Alpha virt. eigenvalues --    2.36591   2.46429   2.51300   2.56179   2.61590
 Alpha virt. eigenvalues --    2.65557   2.69545   2.75577   2.89789   2.90061
 Alpha virt. eigenvalues --    2.95306   3.01277   3.05822   3.27360   3.33210
 Alpha virt. eigenvalues --    3.38392   3.89257   4.01996   4.36373   4.44116
 Alpha virt. eigenvalues --    4.57051
          Condensed to atoms (all electrons):
              1          2          3          4          5          6
  1  N    6.756843   0.259196  -0.089531   0.005100   0.242369  -0.102052
  2  N    0.259196   6.810204   0.154858  -0.018591  -0.079210  -0.100889
  3  N   -0.089531   0.154858   6.969799   0.296097  -0.071381   0.246149
  4  H    0.005100  -0.018591   0.296097   0.325567   0.004417  -0.017894
  5  N    0.242369  -0.079210  -0.071381   0.004417   6.841265   0.387621
  6  C   -0.102052  -0.100889   0.246149  -0.017894   0.387621   4.982409
  7  H    0.003677   0.002036  -0.037409   0.001137  -0.023158   0.368062
              7
  1  N    0.003677
  2  N    0.002036
  3  N   -0.037409
  4  H    0.001137
  5  N   -0.023158
  6  C    0.368062
  7  H    0.452707
 Total atomic charges:
              1
  1  N   -0.075602
  2  N   -0.027603
  3  N   -0.468581
  4  H    0.404167
  5  N   -0.301923
  6  C    0.236594
  7  H    0.232948
 Sum of Mulliken charges=   0.00000
 Atomic charges with hydrogens summed into heavy atoms:
              1
  1  N   -0.075602
  2  N   -0.027603
  3  N   -0.064414
  4  H    0.000000
  5  N   -0.301923
  6  C    0.469542
  7  H    0.000000
 Sum of Mulliken charges=   0.00000
 Electronic spatial extent (au):  <R**2>=   252.6186
 Charge=     0.0000 electrons
 Dipole moment (Debye):
    X=     2.5321    Y=     4.8546    Z=     0.0000  Tot=     5.4753
 Quadrupole moment (Debye-Ang):
   XX=   -28.9601   YY=   -26.5047   ZZ=   -28.5784
   XY=     1.9184   XZ=     0.0000   YZ=     0.0000
 Octapole moment (Debye-Ang**2):
  XXX=    12.1499  YYY=    23.0190  ZZZ=     0.0000  XYY=    -0.6443
  XXY=     4.8067  XXZ=     0.0000  XZZ=    -0.6088  YZZ=     0.4945
  YYZ=     0.0000  XYZ=     0.0000
 Hexadecapole moment (Debye-Ang**3):
 XXXX=  -144.1367 YYYY=  -121.4368 ZZZZ=   -25.2928 XXXY=     7.0156
 XXXZ=     0.0000 YYYX=    -0.2517 YYYZ=     0.0000 ZZZX=     0.0000
 ZZZY=     0.0000 XXYY=   -54.2723 XXZZ=   -30.6031 YYZZ=   -29.0866
 XXYZ=     0.0000 YYXZ=     0.0000 ZZXY=    -0.0414
 N-N= 1.662382231418D+02 E-N=-9.342903840603D+02  KE= 2.569256604170D+02
 Symmetry A'   KE= 2.474602922767D+02
 Symmetry A"   KE= 9.465368140246D+00
 ***** Axes restored to original set *****
 -------------------------------------------------------------------
 Center     Atomic                   Forces (Hartrees/Bohr)
 Number     Number              X              Y              Z
 -------------------------------------------------------------------
    1          7           0.000029239   -0.000017263    0.000000000
    2          7          -0.000062762   -0.000082686    0.000000000
    3          7           0.000128375   -0.000152935    0.000000000
    4          1           0.000001092   -0.000003817    0.000000000
    5          7          -0.000194151    0.000095958    0.000000000
    6          6           0.000062778    0.000176872    0.000000000
    7          1           0.000035429   -0.000016129    0.000000000
 -------------------------------------------------------------------
 Cartesian Forces:  Max     0.000194151 RMS     0.000080314
 D2Numr ... symmetry will be used.
 Standard basis: 6-31G(d) (6D, 7F)
 Integral buffers will be    262144 words long.
 Raffenetti 1 integral format.
 Two-electron integral symmetry is turned off.
    79 basis functions      148 primitive gaussians
    18 alpha electrons       18 beta electrons
       nuclear repulsion energy       166.2536576420 Hartrees.
 One-electron integrals computed using PRISM.
 NBasis=    79 RedAO= T  NBF=    79
 NBsUse=    79 1.00D-04 NBFU=    79
 Initial guess read from the read-write file:
 Requested convergence on RMS density matrix=1.00D-08 within  64 cycles.
 Requested convergence on MAX density matrix=1.00D-06.
 Keep R1 integrals in memory in canonical form, NReq=     5449633.
 SCF Done:  E(RHF) =  -256.748320749     A.U. after   10 cycles
             Convg  =    0.6196D-08             -V/T =  2.0036
             S**2   =   0.0000
 Range of M.O.s used for correlation:     6    79
 NBasis=    79 NAE=    18 NBE=    18 NFC=     5 NFV=     0
 NROrb=     74 NOA=    13 NOB=    13 NVA=    61 NVB=    61
 Estimate disk for full transformation    52381359 words.
 Spin components of T(2) and E(2):
     alpha-alpha T2 =       0.3781494852D-01 E2=     -0.1097423541D+00
     alpha-beta  T2 =       0.1908328395D+00 E2=     -0.5671962050D+00
     beta-beta   T2 =       0.3781494852D-01 E2=     -0.1097423541D+00
 ANorm=    0.1125372266D+01
 E2=       -0.7866809132D+00 EUMP2=       -0.25753500166230D+03
 Iterations=  50 Convergence= 0.100D-07
 Iteration Nr.   1
 **********************
 MP4(R+Q)=  0.21176263D-01
 E3=        0.29343379D-02        EUMP3=      -0.25753206732D+03
 E4(DQ)=   -0.11351217D-02        UMP4(DQ)=   -0.25753320245D+03
 E4(SDQ)=  -0.10598600D-01        UMP4(SDQ)=  -0.25754266592D+03
 DE(CORR)= -0.76257031D+00        E(CORR)=    -0.25751089106D+03
 NORM(A)=   0.11192462D+01
 Iteration Nr.   2
 **********************
 DE(CORR)= -0.79222141D+00        E(CORR)=    -0.25754054216D+03
 NORM(A)=   0.11316191D+01
 Iteration Nr.   3
 **********************
 DE(CORR)= -0.79220765D+00        E(CORR)=    -0.25754052840D+03
 NORM(A)=   0.11342486D+01
 Iteration Nr.   4
 **********************
 DE(CORR)= -0.79480364D+00        E(CORR)=    -0.25754312439D+03
 NORM(A)=   0.11351549D+01
 Iteration Nr.   5
 **********************
 DE(CORR)= -0.79510470D+00        E(CORR)=    -0.25754342545D+03
 NORM(A)=   0.11355188D+01
 Iteration Nr.   6
 **********************
 DE(CORR)= -0.79515395D+00        E(CORR)=    -0.25754347470D+03
 NORM(A)=   0.11355660D+01
 Iteration Nr.   7
 **********************
 DE(CORR)= -0.79516170D+00        E(CORR)=    -0.25754348245D+03
 NORM(A)=   0.11355851D+01
 Iteration Nr.   8
 **********************
 DE(CORR)= -0.79515495D+00        E(CORR)=    -0.25754347570D+03
 NORM(A)=   0.11355931D+01
 Iteration Nr.   9
 **********************
 DE(CORR)= -0.79515731D+00        E(CORR)=    -0.25754347806D+03
 NORM(A)=   0.11355952D+01
 Iteration Nr.  10
 **********************
 DE(CORR)= -0.79515755D+00        E(CORR)=    -0.25754347830D+03
 NORM(A)=   0.11355972D+01
 Iteration Nr.  11
 **********************
 DE(CORR)= -0.79515894D+00        E(CORR)=    -0.25754347969D+03
 NORM(A)=   0.11355983D+01
 Iteration Nr.  12
 **********************
 DE(CORR)= -0.79515913D+00        E(CORR)=    -0.25754347988D+03
 NORM(A)=   0.11355989D+01
 Iteration Nr.  13
 **********************
 DE(CORR)= -0.79515947D+00        E(CORR)=    -0.25754348022D+03
 NORM(A)=   0.11355993D+01
 Iteration Nr.  14
 **********************
 DE(CORR)= -0.79515951D+00        E(CORR)=    -0.25754348026D+03
 NORM(A)=   0.11355995D+01
 Iteration Nr.  15
 **********************
 DE(CORR)= -0.79515955D+00        E(CORR)=    -0.25754348029D+03
 NORM(A)=   0.11355995D+01
 Iteration Nr.  16
 **********************
 DE(CORR)= -0.79515956D+00        E(CORR)=    -0.25754348031D+03
 NORM(A)=   0.11355996D+01
 Iteration Nr.  17
 **********************
 DE(CORR)= -0.79515955D+00        E(CORR)=    -0.25754348030D+03
 NORM(A)=   0.11355996D+01
 Iteration Nr.  18
 **********************
 DE(CORR)= -0.79515956D+00        E(CORR)=    -0.25754348031D+03
 NORM(A)=   0.11355996D+01
 Iteration Nr.  19
 **********************
 DE(CORR)= -0.79515956D+00        E(CORR)=    -0.25754348031D+03
 NORM(A)=   0.11355996D+01
 Largest amplitude= 7.62D-02

 Z-AMPLITUDE ITERATIONS

 Iteration Nr.   1
 **********************
 DE(Z)  -0.76834621D+00          E(Z)=    -0.25751666696D+03
 NORM(A)=   0.11356104D+01
 Iteration Nr.   2
 **********************
 DE(Z)  -0.76834570D+00          E(Z)=    -0.25751666645D+03
 NORM(A)=   0.11355886D+01
 Iteration Nr.   3
 **********************
 DE(Z)  -0.76834664D+00          E(Z)=    -0.25751666739D+03
 NORM(A)=   0.11356048D+01
 Iteration Nr.   4
 **********************
 DE(Z)  -0.76834600D+00          E(Z)=    -0.25751666675D+03
 NORM(A)=   0.11355990D+01
 Iteration Nr.   5
 **********************
 DE(Z)  -0.76834623D+00          E(Z)=    -0.25751666698D+03
 NORM(A)=   0.11259232D+01
 Iteration Nr.   6
 **********************
 DE(Z)  -0.76872956D+00          E(Z)=    -0.25751705031D+03
 NORM(A)=   0.11259198D+01
 Iteration Nr.   7
 **********************
 DE(Z)  -0.76873146D+00          E(Z)=    -0.25751705221D+03
 NORM(A)=   0.11258898D+01
 Iteration Nr.   8
 **********************
 DE(Z)  -0.76873308D+00          E(Z)=    -0.25751705383D+03
 NORM(A)=   0.11259090D+01
 Iteration Nr.   9
 **********************
 DE(Z)  -0.76873140D+00          E(Z)=    -0.25751705215D+03
 NORM(A)=   0.11259108D+01
 Iteration Nr.  10
 **********************
 DE(Z)  -0.76873122D+00          E(Z)=    -0.25751705197D+03
 NORM(A)=   0.11259111D+01
 Iteration Nr.  11
 **********************
 DE(Z)  -0.76873131D+00          E(Z)=    -0.25751705206D+03
 NORM(A)=   0.11259110D+01
 Iteration Nr.  12
 **********************
 DE(Z)  -0.76873137D+00          E(Z)=    -0.25751705212D+03
 NORM(A)=   0.11259110D+01
 Iteration Nr.  13
 **********************
 DE(Z)  -0.76873134D+00          E(Z)=    -0.25751705209D+03
 NORM(A)=   0.11259109D+01
 Iteration Nr.  14
 **********************
 DE(Z)  -0.76873136D+00          E(Z)=    -0.25751705211D+03
 NORM(A)=   0.11259109D+01
 Iteration Nr.  15
 **********************
 DE(Z)  -0.76873136D+00          E(Z)=    -0.25751705211D+03
 NORM(A)=   0.11259109D+01
 Iteration Nr.  16
 **********************
 DE(Z)  -0.76873136D+00          E(Z)=    -0.25751705211D+03
 NORM(A)=   0.11259109D+01
 Discarding MO integrals.
          Differentiating once with respect to electric field.
                with respect to dipole field.
          Differentiating once with respect to nuclear coordinates.
          Store integrals in memory, NReq=     5434744.
          There are   1 degrees of freedom in the 1st order CPHF.
   1 vectors were produced by pass  0.
 AX will form   1 AO Fock derivatives at one time.
   1 vectors were produced by pass  1.
   1 vectors were produced by pass  2.
   1 vectors were produced by pass  3.
   1 vectors were produced by pass  4.
   1 vectors were produced by pass  5.
   1 vectors were produced by pass  6.
   1 vectors were produced by pass  7.
   1 vectors were produced by pass  8.
   1 vectors were produced by pass  9.
   1 vectors were produced by pass 10.
   1 vectors were produced by pass 11.
   1 vectors were produced by pass 12.
   1 vectors were produced by pass 13.
   1 vectors were produced by pass 14.
 Inv2:  IOpt= 1 Iter= 1 AM= 5.29D-16 Conv= 1.00D-12.
 Inverted reduced A of dimension  15 with in-core refinement.

 **********************************************************************

            Population analysis using the QCI/CC density.

 **********************************************************************

  The electronic state is 1-A'.
 Alpha  occ. eigenvalues --  -15.68915 -15.67054 -15.65258 -15.60940 -11.34357
 Alpha  occ. eigenvalues --   -1.49002  -1.25227  -1.19503  -0.90481  -0.88683
 Alpha  occ. eigenvalues --   -0.79783  -0.67408  -0.67204  -0.56740  -0.47657
 Alpha  occ. eigenvalues --   -0.47179  -0.45212  -0.41781
 Alpha virt. eigenvalues --    0.13837   0.18730   0.19647   0.25029   0.36704
 Alpha virt. eigenvalues --    0.37651   0.47450   0.49868   0.64344   0.73625
 Alpha virt. eigenvalues --    0.73934   0.82429   0.82530   0.89450   0.91673
 Alpha virt. eigenvalues --    0.91978   0.92649   0.94969   0.96293   1.04784
 Alpha virt. eigenvalues --    1.05512   1.08318   1.09308   1.12436   1.16654
 Alpha virt. eigenvalues --    1.22962   1.27793   1.30897   1.47292   1.55233
 Alpha virt. eigenvalues --    1.59585   1.63631   1.64390   1.68582   1.82607
 Alpha virt. eigenvalues --    1.84823   1.92895   2.15342   2.23240   2.33518
 Alpha virt. eigenvalues --    2.36598   2.46483   2.51340   2.56155   2.61579
 Alpha virt. eigenvalues --    2.65596   2.69553   2.75600   2.89784   2.90061
 Alpha virt. eigenvalues --    2.95332   3.01289   3.05818   3.27405   3.33198
 Alpha virt. eigenvalues --    3.38416   3.89267   4.02010   4.36381   4.44124
 Alpha virt. eigenvalues --    4.57052
          Condensed to atoms (all electrons):
              1          2          3          4          5          6
  1  N    6.756941   0.259142  -0.089554   0.005105   0.242598  -0.102284
  2  N    0.259142   6.810780   0.154675  -0.018588  -0.079236  -0.100983
  3  N   -0.089554   0.154675   6.969527   0.296119  -0.071246   0.246388
  4  H    0.005105  -0.018588   0.296119   0.325538   0.004410  -0.017907
  5  N    0.242598  -0.079236  -0.071246   0.004410   6.840837   0.387441
  6  C   -0.102284  -0.100983   0.246388  -0.017907   0.387441   4.982781
  7  H    0.003684   0.002037  -0.037401   0.001137  -0.023164   0.368055
              7
  1  N    0.003684
  2  N    0.002037
  3  N   -0.037401
  4  H    0.001137
  5  N   -0.023164
  6  C    0.368055
  7  H    0.452741
 Total atomic charges:
              1
  1  N   -0.075632
  2  N   -0.027827
  3  N   -0.468507
  4  H    0.404186
  5  N   -0.301641
  6  C    0.236509
  7  H    0.232912
 Sum of Mulliken charges=   0.00000
 Atomic charges with hydrogens summed into heavy atoms:
              1
  1  N   -0.075632
  2  N   -0.027827
  3  N   -0.064321
  4  H    0.000000
  5  N   -0.301641
  6  C    0.469422
  7  H    0.000000
 Sum of Mulliken charges=   0.00000
 Electronic spatial extent (au):  <R**2>=   252.5811
 Charge=     0.0000 electrons
 Dipole moment (Debye):
    X=     2.5331    Y=     4.8545    Z=     0.0000  Tot=     5.4756
 Quadrupole moment (Debye-Ang):
   XX=   -28.9613   YY=   -26.5028   ZZ=   -28.5776
   XY=     1.9158   XZ=     0.0000   YZ=     0.0000
 Octapole moment (Debye-Ang**2):
  XXX=    12.1318  YYY=    23.0190  ZZZ=     0.0000  XYY=    -0.6490
  XXY=     4.8041  XXZ=     0.0000  XZZ=    -0.6128  YZZ=     0.4931
  YYZ=     0.0000  XYZ=     0.0000
 Hexadecapole moment (Debye-Ang**3):
 XXXX=  -144.0955 YYYY=  -121.4283 ZZZZ=   -25.2917 XXXY=     7.0279
 XXXZ=     0.0000 YYYX=    -0.2430 YYYZ=     0.0000 ZZZX=     0.0000
 ZZZY=     0.0000 XXYY=   -54.2611 XXZZ=   -30.5965 YYZZ=   -29.0843
 XXYZ=     0.0000 YYXZ=     0.0000 ZZXY=    -0.0376
 N-N= 1.662536576420D+02 E-N=-9.343217888196D+02  KE= 2.569269584751D+02
 -------------------------------------------------------------------
 Center     Atomic                   Forces (Hartrees/Bohr)
 Number     Number              X              Y              Z
 -------------------------------------------------------------------
    1          7          -0.000794505   -0.000102768    0.000000000
    2          7           0.000199325   -0.000292635    0.000000000
    3          7           0.000177829   -0.000161764    0.000000000
    4          1           0.000018803    0.000000193    0.000000000
    5          7           0.000164746    0.000156620    0.000000000
    6          6           0.000199535    0.000407746    0.000000000
    7          1           0.000034268   -0.000007392    0.000000000
 -------------------------------------------------------------------
 Cartesian Forces:  Max     0.000794505 RMS     0.000227228
 Re-enter D2Numr: IAtom=  1 IXYZ=1 IStep= 1.
 Standard basis: 6-31G(d) (6D, 7F)
 Integral buffers will be    262144 words long.
 Raffenetti 1 integral format.
 Two-electron integral symmetry is turned off.
    79 basis functions      148 primitive gaussians
    18 alpha electrons       18 beta electrons
       nuclear repulsion energy       166.2228007671 Hartrees.
 One-electron integrals computed using PRISM.
 NBasis=    79 RedAO= T  NBF=    79
 NBsUse=    79 1.00D-04 NBFU=    79
 Initial guess read from the read-write file:
 Requested convergence on RMS density matrix=1.00D-08 within  64 cycles.
 Requested convergence on MAX density matrix=1.00D-06.
 Keep R1 integrals in memory in canonical form, NReq=     5449633.
 SCF Done:  E(RHF) =  -256.748268401     A.U. after   10 cycles
             Convg  =    0.6166D-08             -V/T =  2.0037
             S**2   =   0.0000
 Range of M.O.s used for correlation:     6    79
 NBasis=    79 NAE=    18 NBE=    18 NFC=     5 NFV=     0
 NROrb=     74 NOA=    13 NOB=    13 NVA=    61 NVB=    61
 Estimate disk for full transformation    52381359 words.
 Spin components of T(2) and E(2):
     alpha-alpha T2 =       0.3781631013D-01 E2=     -0.1097352747D+00
     alpha-beta  T2 =       0.1908718358D+00 E2=     -0.5672337893D+00
     beta-beta   T2 =       0.3781631013D-01 E2=     -0.1097352747D+00
 ANorm=    0.1125390801D+01
 E2=       -0.7867043388D+00 EUMP2=       -0.25753497273943D+03
 Iterations=  50 Convergence= 0.100D-07
 Iteration Nr.   1
 **********************
 MP4(R+Q)=  0.21178327D-01
 E3=        0.29204086D-02        EUMP3=      -0.25753205233D+03
 E4(DQ)=   -0.11357152D-02        UMP4(DQ)=   -0.25753318805D+03
 E4(SDQ)=  -0.10612673D-01        UMP4(SDQ)=  -0.25754266500D+03
 DE(CORR)= -0.76260560D+00        E(CORR)=    -0.25751087400D+03
 NORM(A)=   0.11192774D+01
 Iteration Nr.   2
 **********************
 DE(CORR)= -0.79226917D+00        E(CORR)=    -0.25754053757D+03
 NORM(A)=   0.11316587D+01
 Iteration Nr.   3
 **********************
 DE(CORR)= -0.79225528D+00        E(CORR)=    -0.25754052368D+03
 NORM(A)=   0.11342942D+01
 Iteration Nr.   4
 **********************
 DE(CORR)= -0.79485489D+00        E(CORR)=    -0.25754312329D+03
 NORM(A)=   0.11352029D+01
 Iteration Nr.   5
 **********************
 DE(CORR)= -0.79515670D+00        E(CORR)=    -0.25754342510D+03
 NORM(A)=   0.11355682D+01
 Iteration Nr.   6
 **********************
 DE(CORR)= -0.79520616D+00        E(CORR)=    -0.25754347456D+03
 NORM(A)=   0.11356158D+01
 Iteration Nr.   7
 **********************
 DE(CORR)= -0.79521393D+00        E(CORR)=    -0.25754348233D+03
 NORM(A)=   0.11356349D+01
 Iteration Nr.   8
 **********************
 DE(CORR)= -0.79520717D+00        E(CORR)=    -0.25754347557D+03
 NORM(A)=   0.11356431D+01
 Iteration Nr.   9
 **********************
 DE(CORR)= -0.79520952D+00        E(CORR)=    -0.25754347792D+03
 NORM(A)=   0.11356451D+01
 Iteration Nr.  10
 **********************
 DE(CORR)= -0.79520977D+00        E(CORR)=    -0.25754347817D+03
 NORM(A)=   0.11356472D+01
 Iteration Nr.  11
 **********************
 DE(CORR)= -0.79521117D+00        E(CORR)=    -0.25754347957D+03
 NORM(A)=   0.11356483D+01
 Iteration Nr.  12
 **********************
 DE(CORR)= -0.79521136D+00        E(CORR)=    -0.25754347976D+03
 NORM(A)=   0.11356489D+01
 Iteration Nr.  13
 **********************
 DE(CORR)= -0.79521170D+00        E(CORR)=    -0.25754348010D+03
 NORM(A)=   0.11356493D+01
 Iteration Nr.  14
 **********************
 DE(CORR)= -0.79521174D+00        E(CORR)=    -0.25754348014D+03
 NORM(A)=   0.11356494D+01
 Iteration Nr.  15
 **********************
 DE(CORR)= -0.79521177D+00        E(CORR)=    -0.25754348018D+03
 NORM(A)=   0.11356495D+01
 Iteration Nr.  16
 **********************
 DE(CORR)= -0.79521179D+00        E(CORR)=    -0.25754348019D+03
 NORM(A)=   0.11356496D+01
 Iteration Nr.  17
 **********************
 DE(CORR)= -0.79521178D+00        E(CORR)=    -0.25754348018D+03
 NORM(A)=   0.11356496D+01
 Iteration Nr.  18
 **********************
 DE(CORR)= -0.79521179D+00        E(CORR)=    -0.25754348019D+03
 NORM(A)=   0.11356496D+01
 Iteration Nr.  19
 **********************
 DE(CORR)= -0.79521179D+00        E(CORR)=    -0.25754348019D+03
 NORM(A)=   0.11356501D+01
 Largest amplitude= 7.58D-02

 Z-AMPLITUDE ITERATIONS

 Iteration Nr.   1
 **********************
 DE(Z)  -0.76838664D+00          E(Z)=    -0.25751665504D+03
 NORM(A)=   0.11356182D+01
 Iteration Nr.   2
 **********************
 DE(Z)  -0.76838812D+00          E(Z)=    -0.25751665652D+03
 NORM(A)=   0.11356233D+01
 Iteration Nr.   3
 **********************
 DE(Z)  -0.76838766D+00          E(Z)=    -0.25751665606D+03
 NORM(A)=   0.11356733D+01
 Iteration Nr.   4
 **********************
 DE(Z)  -0.76838570D+00          E(Z)=    -0.25751665410D+03
 NORM(A)=   0.11355748D+01
 Iteration Nr.   5
 **********************
 DE(Z)  -0.76838954D+00          E(Z)=    -0.25751665794D+03
 NORM(A)=   0.11259594D+01
 Iteration Nr.   6
 **********************
 DE(Z)  -0.76877049D+00          E(Z)=    -0.25751703890D+03
 NORM(A)=   0.11259545D+01
 Iteration Nr.   7
 **********************
 DE(Z)  -0.76877090D+00          E(Z)=    -0.25751703930D+03
 NORM(A)=   0.11259536D+01
 Iteration Nr.   8
 **********************
 DE(Z)  -0.76877080D+00          E(Z)=    -0.25751703920D+03
 NORM(A)=   0.11259535D+01
 Iteration Nr.   9
 **********************
 DE(Z)  -0.76877059D+00          E(Z)=    -0.25751703899D+03
 NORM(A)=   0.11259533D+01
 Iteration Nr.  10
 **********************
 DE(Z)  -0.76877073D+00          E(Z)=    -0.25751703913D+03
 NORM(A)=   0.11259533D+01
 Iteration Nr.  11
 **********************
 DE(Z)  -0.76877070D+00          E(Z)=    -0.25751703910D+03
 NORM(A)=   0.11259533D+01
 Iteration Nr.  12
 **********************
 DE(Z)  -0.76877071D+00          E(Z)=    -0.25751703911D+03
 NORM(A)=   0.11259533D+01
 Iteration Nr.  13
 **********************
 DE(Z)  -0.76877071D+00          E(Z)=    -0.25751703911D+03
 NORM(A)=   0.11259533D+01
 Iteration Nr.  14
 **********************
 DE(Z)  -0.76877071D+00          E(Z)=    -0.25751703911D+03
 NORM(A)=   0.11259532D+01
 Iteration Nr.  15
 **********************
 DE(Z)  -0.76877071D+00          E(Z)=    -0.25751703911D+03
 NORM(A)=   0.11259532D+01
 Discarding MO integrals.
          Differentiating once with respect to electric field.
                with respect to dipole field.
          Differentiating once with respect to nuclear coordinates.
          Store integrals in memory, NReq=     5434744.
          There are   1 degrees of freedom in the 1st order CPHF.
   1 vectors were produced by pass  0.
 AX will form   1 AO Fock derivatives at one time.
   1 vectors were produced by pass  1.
   1 vectors were produced by pass  2.
   1 vectors were produced by pass  3.
   1 vectors were produced by pass  4.
   1 vectors were produced by pass  5.
   1 vectors were produced by pass  6.
   1 vectors were produced by pass  7.
   1 vectors were produced by pass  8.
   1 vectors were produced by pass  9.
   1 vectors were produced by pass 10.
   1 vectors were produced by pass 11.
   1 vectors were produced by pass 12.
   1 vectors were produced by pass 13.
   1 vectors were produced by pass 14.
 Inv2:  IOpt= 1 Iter= 1 AM= 3.19D-16 Conv= 1.00D-12.
 Inverted reduced A of dimension  15 with in-core refinement.

 **********************************************************************

            Population analysis using the QCI/CC density.

 **********************************************************************

  The electronic state is 1-A'.
 Alpha  occ. eigenvalues --  -15.68904 -15.67067 -15.65278 -15.60938 -11.34361
 Alpha  occ. eigenvalues --   -1.48984  -1.25180  -1.19527  -0.90435  -0.88701
 Alpha  occ. eigenvalues --   -0.79783  -0.67396  -0.67195  -0.56736  -0.47611
 Alpha  occ. eigenvalues --   -0.47228  -0.45186  -0.41807
 Alpha virt. eigenvalues --    0.13857   0.18702   0.19648   0.25021   0.36697
 Alpha virt. eigenvalues --    0.37584   0.47466   0.49874   0.64281   0.73605
 Alpha virt. eigenvalues --    0.73935   0.82422   0.82527   0.89468   0.91664
 Alpha virt. eigenvalues --    0.91969   0.92623   0.94992   0.96300   1.04787
 Alpha virt. eigenvalues --    1.05509   1.08343   1.09303   1.12453   1.16643
 Alpha virt. eigenvalues --    1.22961   1.27767   1.30900   1.47305   1.55239
 Alpha virt. eigenvalues --    1.59578   1.63660   1.64407   1.68558   1.82625
 Alpha virt. eigenvalues --    1.84771   1.92902   2.15264   2.23187   2.33513
 Alpha virt. eigenvalues --    2.36583   2.46376   2.51261   2.56203   2.61601
 Alpha virt. eigenvalues --    2.65518   2.69536   2.75555   2.89793   2.90062
 Alpha virt. eigenvalues --    2.95279   3.01265   3.05825   3.27313   3.33222
 Alpha virt. eigenvalues --    3.38368   3.89247   4.01981   4.36365   4.44108
 Alpha virt. eigenvalues --    4.57050
          Condensed to atoms (all electrons):
              1          2          3          4          5          6
  1  N    6.756745   0.259250  -0.089509   0.005095   0.242140  -0.101819
  2  N    0.259250   6.809630   0.155040  -0.018593  -0.079185  -0.100796
  3  N   -0.089509   0.155040   6.970072   0.296074  -0.071516   0.245910
  4  H    0.005095  -0.018593   0.296074   0.325597   0.004424  -0.017881
  5  N    0.242140  -0.079185  -0.071516   0.004424   6.841691   0.387800
  6  C   -0.101819  -0.100796   0.245910  -0.017881   0.387800   4.982039
  7  H    0.003670   0.002034  -0.037417   0.001137  -0.023151   0.368069
              7
  1  N    0.003670
  2  N    0.002034
  3  N   -0.037417
  4  H    0.001137
  5  N   -0.023151
  6  C    0.368069
  7  H    0.452674
 Total atomic charges:
              1
  1  N   -0.075573
  2  N   -0.027380
  3  N   -0.468654
  4  H    0.404148
  5  N   -0.302203
  6  C    0.236678
  7  H    0.232984
 Sum of Mulliken charges=   0.00000
 Atomic charges with hydrogens summed into heavy atoms:
              1
  1  N   -0.075573
  2  N   -0.027380
  3  N   -0.064506
  4  H    0.000000
  5  N   -0.302203
  6  C    0.469662
  7  H    0.000000
 Sum of Mulliken charges=   0.00000
 Electronic spatial extent (au):  <R**2>=   252.6561
 Charge=     0.0000 electrons
 Dipole moment (Debye):
    X=     2.5311    Y=     4.8548    Z=     0.0000  Tot=     5.4750
 Quadrupole moment (Debye-Ang):
   XX=   -28.9589   YY=   -26.5066   ZZ=   -28.5793
   XY=     1.9210   XZ=     0.0000   YZ=     0.0000
 Octapole moment (Debye-Ang**2):
  XXX=    12.1679  YYY=    23.0191  ZZZ=     0.0000  XYY=    -0.6396
  XXY=     4.8093  XXZ=     0.0000  XZZ=    -0.6048  YZZ=     0.4959
  YYZ=     0.0000  XYZ=     0.0000
 Hexadecapole moment (Debye-Ang**3):
 XXXX=  -144.1781 YYYY=  -121.4453 ZZZZ=   -25.2940 XXXY=     7.0032
 XXXZ=     0.0000 YYYX=    -0.2604 YYYZ=     0.0000 ZZZX=     0.0000
 ZZZY=     0.0000 XXYY=   -54.2834 XXZZ=   -30.6097 YYZZ=   -29.0890
 XXYZ=     0.0000 YYXZ=     0.0000 ZZXY=    -0.0451
 N-N= 1.662228007671D+02 E-N=-9.342590079827D+02  KE= 2.569243705735D+02
 -------------------------------------------------------------------
 Center     Atomic                   Forces (Hartrees/Bohr)
 Number     Number              X              Y              Z
 -------------------------------------------------------------------
    1          7           0.000848425    0.000067707    0.000000000
    2          7          -0.000324825    0.000127661    0.000000000
    3          7           0.000078861   -0.000144215    0.000000000
    4          1          -0.000016606   -0.000007820    0.000000000
    5          7          -0.000548937    0.000035028    0.000000000
    6          6          -0.000073511   -0.000053515    0.000000000
    7          1           0.000036593   -0.000024846    0.000000000
 -------------------------------------------------------------------
 Cartesian Forces:  Max     0.000848425 RMS     0.000237683
 Re-enter D2Numr: IAtom=  1 IXYZ=1 IStep= 2.
 Standard basis: 6-31G(d) (6D, 7F)
 Integral buffers will be    262144 words long.
 Raffenetti 1 integral format.
 Two-electron integral symmetry is turned off.
    79 basis functions      148 primitive gaussians
    18 alpha electrons       18 beta electrons
       nuclear repulsion energy       166.2608422625 Hartrees.
 One-electron integrals computed using PRISM.
 NBasis=    79 RedAO= T  NBF=    79
 NBsUse=    79 1.00D-04 NBFU=    79
 Initial guess read from the read-write file:
 Requested convergence on RMS density matrix=1.00D-08 within  64 cycles.
 Requested convergence on MAX density matrix=1.00D-06.
 Keep R1 integrals in memory in canonical form, NReq=     5449633.
 SCF Done:  E(RHF) =  -256.748390036     A.U. after    9 cycles
             Convg  =    0.9779D-08             -V/T =  2.0036
             S**2   =   0.0000
 Range of M.O.s used for correlation:     6    79
 NBasis=    79 NAE=    18 NBE=    18 NFC=     5 NFV=     0
 NROrb=     74 NOA=    13 NOB=    13 NVA=    61 NVB=    61
 Estimate disk for full transformation    52381359 words.
 Spin components of T(2) and E(2):
     alpha-alpha T2 =       0.3779766679D-01 E2=     -0.1097181112D+00
     alpha-beta  T2 =       0.1907668674D+00 E2=     -0.5671198065D+00
     beta-beta   T2 =       0.3779766679D-01 E2=     -0.1097181112D+00
 ANorm=    0.1125327597D+01
 E2=       -0.7865560288D+00 EUMP2=       -0.25753494606511D+03
 Iterations=  50 Convergence= 0.100D-07
 Iteration Nr.   1
 **********************
 MP4(R+Q)=  0.21159764D-01
 E3=        0.28843648D-02        EUMP3=      -0.25753206170D+03
 E4(DQ)=   -0.11348169D-02        UMP4(DQ)=   -0.25753319652D+03
 E4(SDQ)=  -0.10602511D-01        UMP4(SDQ)=  -0.25754266421D+03
 DE(CORR)= -0.76251190D+00        E(CORR)=    -0.25751090194D+03
 NORM(A)=   0.11192337D+01
 Iteration Nr.   2
 **********************
 DE(CORR)= -0.79214624D+00        E(CORR)=    -0.25754053628D+03
 NORM(A)=   0.11316030D+01
 Iteration Nr.   3
 **********************
 DE(CORR)= -0.79213598D+00        E(CORR)=    -0.25754052601D+03
 NORM(A)=   0.11342370D+01
 Iteration Nr.   4
 **********************
 DE(CORR)= -0.79473329D+00        E(CORR)=    -0.25754312332D+03
 NORM(A)=   0.11351455D+01
 Iteration Nr.   5
 **********************
 DE(CORR)= -0.79503481D+00        E(CORR)=    -0.25754342484D+03
 NORM(A)=   0.11355105D+01
 Iteration Nr.   6
 **********************
 DE(CORR)= -0.79508420D+00        E(CORR)=    -0.25754347424D+03
 NORM(A)=   0.11355580D+01
 Iteration Nr.   7
 **********************
 DE(CORR)= -0.79509197D+00        E(CORR)=    -0.25754348201D+03
 NORM(A)=   0.11355772D+01
 Iteration Nr.   8
 **********************
 DE(CORR)= -0.79508520D+00        E(CORR)=    -0.25754347524D+03
 NORM(A)=   0.11355853D+01
 Iteration Nr.   9
 **********************
 DE(CORR)= -0.79508758D+00        E(CORR)=    -0.25754347761D+03
 NORM(A)=   0.11355873D+01
 Iteration Nr.  10
 **********************
 DE(CORR)= -0.79508781D+00        E(CORR)=    -0.25754347785D+03
 NORM(A)=   0.11355894D+01
 Iteration Nr.  11
 **********************
 DE(CORR)= -0.79508921D+00        E(CORR)=    -0.25754347925D+03
 NORM(A)=   0.11355904D+01
 Iteration Nr.  12
 **********************
 DE(CORR)= -0.79508940D+00        E(CORR)=    -0.25754347943D+03
 NORM(A)=   0.11355911D+01
 Iteration Nr.  13
 **********************
 DE(CORR)= -0.79508974D+00        E(CORR)=    -0.25754347978D+03
 NORM(A)=   0.11355915D+01
 Iteration Nr.  14
 **********************
 DE(CORR)= -0.79508978D+00        E(CORR)=    -0.25754347982D+03
 NORM(A)=   0.11355916D+01
 Iteration Nr.  15
 **********************
 DE(CORR)= -0.79508982D+00        E(CORR)=    -0.25754347985D+03
 NORM(A)=   0.11355917D+01
 Iteration Nr.  16
 **********************
 DE(CORR)= -0.79508983D+00        E(CORR)=    -0.25754347987D+03
 NORM(A)=   0.11355917D+01
 Iteration Nr.  17
 **********************
 DE(CORR)= -0.79508982D+00        E(CORR)=    -0.25754347986D+03
 NORM(A)=   0.11355917D+01
 Iteration Nr.  18
 **********************
 DE(CORR)= -0.79508983D+00        E(CORR)=    -0.25754347987D+03
[...]
 I= 11 Difference=    8.6273834975D-06
 Full mass-weighted force constant matrix:
 Low frequencies ---  -10.0886   -0.7611   -0.0399    2.9603    5.7167   13.3026
 Low frequencies ---  553.9428  690.9535  737.5453
 Harmonic frequencies (cm**-1), IR intensities (KM/Mole),
 Raman scattering activities (A**4/AMU), Raman depolarization ratios,
 reduced masses (AMU), force constants (mDyne/A) and normal coordinates:
                     1                      2                      3
                    A"                     A"                     A"
 Frequencies --   553.9428               690.9535               737.5453
 Red. masses --     1.7535                 2.0662                 8.0994
 Frc consts  --     0.3170                 0.5812                 2.5958
 IR Inten    --   105.7132                 8.8132                 9.5366
 Raman Activ --     0.0000                 0.0000                 0.0000
 Depolar     --     0.0000                 0.0000                 0.0000
 Atom AN      X      Y      Z        X      Y      Z        X      Y      Z
   1   7     0.00   0.00   0.00     0.00   0.00   0.04     0.00   0.00   0.49
   2   7     0.00   0.00  -0.08     0.00   0.00   0.10     0.00   0.00  -0.42
   3   7     0.00   0.00   0.21     0.00   0.00  -0.10     0.00   0.00   0.13
   4   1     0.00   0.00  -0.96     0.00   0.00  -0.79     0.00   0.00   0.67
   5   7     0.00   0.00   0.03     0.00   0.00  -0.17     0.00   0.00  -0.32
   6   6     0.00   0.00  -0.09     0.00   0.00   0.18     0.00   0.00   0.09
   7   1     0.00   0.00  -0.17     0.00   0.00   0.54     0.00   0.00   0.04
                     4                      5                      6
                    A"                     A'                     A'
 Frequencies --   865.6869               980.2452              1021.3323
 Red. masses --     1.3311                 5.4340                 6.8629
 Frc consts  --     0.5878                 3.0764                 4.2179
 IR Inten    --    19.8312                 2.5142                 0.4560
 Raman Activ --     0.0000                 0.0000                 0.0000
 Depolar     --     0.0000                 0.0000                 0.0000
 Atom AN      X      Y      Z        X      Y      Z        X      Y      Z
   1   7     0.00   0.00   0.02    -0.08   0.19   0.00     0.25  -0.05   0.00
   2   7     0.00   0.00   0.00    -0.17   0.14   0.00     0.12  -0.03   0.00
   3   7     0.00   0.00   0.02    -0.10  -0.04   0.00    -0.01   0.41   0.00
   4   1     0.00   0.00   0.10     0.40  -0.01   0.00     0.19   0.44   0.00
   5   7     0.00   0.00   0.02     0.41  -0.23   0.00    -0.03  -0.26   0.00
   6   6     0.00   0.00  -0.17    -0.07  -0.12   0.00    -0.39  -0.08   0.00
   7   1     0.00   0.00   0.98    -0.31   0.63   0.00    -0.30  -0.45   0.00
                     7                      8                      9
                    A'                     A'                     A'
 Frequencies --  1072.5800              1088.4587              1173.9415
 Red. masses --     5.6604                 3.1707                 1.7596
 Frc consts  --     3.8367                 2.2133                 1.4287
 IR Inten    --    17.7117                30.1143                15.0699
 Raman Activ --     0.0000                 0.0000                 0.0000
 Depolar     --     0.0000                 0.0000                 0.0000
 Atom AN      X      Y      Z        X      Y      Z        X      Y      Z
   1   7     0.35   0.10   0.00    -0.18  -0.04   0.00    -0.10  -0.12   0.00
   2   7     0.12   0.22   0.00     0.32   0.08   0.00     0.06  -0.02   0.00
   3   7    -0.14  -0.30   0.00    -0.13   0.02   0.00     0.12   0.00   0.00
   4   1     0.09  -0.31   0.00    -0.88  -0.03   0.00     0.53   0.02   0.00
   5   7    -0.21  -0.04   0.00     0.06  -0.05   0.00    -0.03   0.00   0.00
   6   6    -0.11   0.00   0.00    -0.01  -0.02   0.00    -0.09   0.10   0.00
   7   1    -0.34   0.65   0.00    -0.09   0.23   0.00    -0.30   0.75   0.00
                    10                     11                     12
                    A'                     A'                     A'
 Frequencies --  1299.3443              1343.5436              1502.8570
 Red. masses --     2.4040                10.0533                 3.0070
 Frc consts  --     2.3913                10.6921                 4.0014
 IR Inten    --     0.8910                18.6511                14.7203
 Raman Activ --     0.0000                 0.0000                 0.0000
 Depolar     --     0.0000                 0.0000                 0.0000
 Atom AN      X      Y      Z        X      Y      Z        X      Y      Z
   1   7    -0.05  -0.03   0.00    -0.06   0.57   0.00     0.00  -0.02   0.00
   2   7     0.10   0.05   0.00     0.16  -0.51   0.00    -0.07   0.08   0.00
   3   7    -0.05  -0.11   0.00     0.15  -0.09   0.00     0.22  -0.12   0.00
   4   1     0.61  -0.08   0.00    -0.28  -0.15   0.00    -0.78  -0.21   0.00
   5   7     0.12   0.18   0.00    -0.04   0.09   0.00     0.06  -0.09   0.00
   6   6    -0.18  -0.03   0.00    -0.21  -0.07   0.00    -0.18   0.21   0.00
   7   1     0.00  -0.71   0.00    -0.35   0.26   0.00     0.00  -0.43   0.00
                    13                     14                     15
                    A'                     A'                     A'
 Frequencies --  1549.6719              3327.7085              3685.2361
 Red. masses --     3.6105                 1.1019                 1.0842
 Frc consts  --     5.1086                 7.1894                 8.6753
 IR Inten    --    20.9510                 0.7543               104.7799
 Raman Activ --     0.0000                 0.0000                 0.0000
 Depolar     --     0.0000                 0.0000                 0.0000
 Atom AN      X      Y      Z        X      Y      Z        X      Y      Z
   1   7     0.06  -0.09   0.00     0.00   0.00   0.00     0.00   0.00   0.00
   2   7    -0.09   0.07   0.00     0.00   0.00   0.00     0.00   0.00   0.00
   3   7     0.14   0.04   0.00     0.00   0.00   0.00     0.01  -0.08   0.00
   4   1    -0.66   0.00   0.00     0.01   0.02   0.00    -0.07   0.99   0.00
   5   7     0.04   0.23   0.00     0.00   0.00   0.00     0.00   0.00   0.00
   6   6    -0.09  -0.33   0.00     0.09   0.03   0.00     0.00   0.00   0.00
   7   1    -0.38   0.45   0.00    -0.95  -0.30   0.00     0.02   0.00   0.00

 -------------------
 - Thermochemistry -
 -------------------
 Temperature   298.150 Kelvin.  Pressure   1.00000 Atm.
 Atom  1 has atomic number  7 and mass  14.00307
 Atom  2 has atomic number  7 and mass  14.00307
 Atom  3 has atomic number  7 and mass  14.00307
 Atom  4 has atomic number  1 and mass   1.00783
 Atom  5 has atomic number  7 and mass  14.00307
 Atom  6 has atomic number  6 and mass  12.00000
 Atom  7 has atomic number  1 and mass   1.00783
 Molecular mass:    70.02795 amu.
 Principal axes and moments of inertia in atomic units:
                           1         2         3
     EIGENVALUES --   172.25958 175.62514 347.88473
           X            0.88395   0.46759   0.00000
           Y           -0.46759   0.88395   0.00000
           Z            0.00000   0.00000   1.00000
 THIS MOLECULE IS AN ASYMMETRIC TOP.
 ROTATIONAL SYMMETRY NUMBER  1.
 ROTATIONAL TEMPERATURES (KELVIN)      0.50281     0.49317     0.24897
 ROTATIONAL CONSTANTS (GHZ)           10.47687    10.27610     5.18776
 Zero-point vibrational energy     124968.2 (Joules/Mol)
                                   29.86812 (Kcal/Mol)
 WARNING-- EXPLICIT CONSIDERATION OF   1 DEGREES OF FREEDOM AS
           VIBRATIONS MAY CAUSE SIGNIFICANT ERROR
 VIBRATIONAL TEMPERATURES:    797.00   994.12  1061.16  1245.52  1410.35
          (KELVIN)           1469.46  1543.19  1566.04  1689.03  1869.46
                             1933.05  2162.26  2229.62  4787.80  5302.20
 
 Zero-point correction=                           0.047598 (Hartree/Particle)
 Thermal correction to Energy=                    0.051069
 Thermal correction to Enthalpy=                  0.052014
 Thermal correction to Gibbs Free Energy=         0.021490
 Sum of electronic and zero-point Energies=           -257.495883
 Sum of electronic and thermal Energies=              -257.492412
 Sum of electronic and thermal Enthalpies=            -257.491467
 Sum of electronic and thermal Free Energies=         -257.521991
 
                     E (Thermal)             CV                S
                      KCAL/MOL        CAL/MOL-KELVIN    CAL/MOL-KELVIN
 TOTAL                   32.047             11.231             64.242
 ELECTRONIC               0.000              0.000              0.000
 TRANSLATIONAL            0.889              2.981             38.656
 ROTATIONAL               0.889              2.981             23.869
 VIBRATIONAL             30.269              5.270              1.717
 VIBRATION  1             0.909              1.131              0.536
                       Q            LOG10(Q)             LN(Q)
 TOTAL BOT       0.130418D-09         -9.884661        -22.760273
 TOTAL V=0       0.102021D+13         12.008691         27.651034
 VIB (BOT)       0.154177D-21        -21.811981        -50.223941
 VIB (BOT)  1    0.282230D+00         -0.549397         -1.265034
 VIB (V=0)       0.120607D+01          0.081372          0.187366
 VIB (V=0)  1    0.107415D+01          0.031067          0.071534
 ELECTRONIC      0.100000D+01          0.000000          0.000000
 TRANSLATIONAL   0.230339D+08          7.362368         16.952478
 ROTATIONAL      0.367242D+05          4.564952         10.511191
 ***** Axes restored to original set *****
 -------------------------------------------------------------------
 Center     Atomic                   Forces (Hartrees/Bohr)
 Number     Number              X              Y              Z
 -------------------------------------------------------------------
    1          7           0.000029239   -0.000017263    0.000000000
    2          7          -0.000062762   -0.000082686    0.000000000
    3          7           0.000128375   -0.000152935    0.000000000
    4          1           0.000001092   -0.000003817    0.000000000
    5          7          -0.000194151    0.000095958    0.000000000
    6          6           0.000062778    0.000176872    0.000000000
    7          1           0.000035429   -0.000016129    0.000000000
 -------------------------------------------------------------------
 Cartesian Forces:  Max     0.000194151 RMS     0.000080314

 GradGradGradGradGradGradGradGradGradGradGradGradGradGradGradGradGradGrad
 Berny optimization.
 Internal  Forces:  Max     0.000136157 RMS     0.000059827
 Search for a local minimum.
 Step number   1 out of a maximum of  36
 All quantities printed in internal units (Hartrees-Bohrs-Radians)
 Second derivative matrix not updated -- analytic derivatives used.
     Eigenvalues ---    0.00750   0.02605   0.07113   0.07857   0.10727
     Eigenvalues ---    0.11093   0.20682   0.26310   0.36080   0.38678
     Eigenvalues ---    0.45450   0.47857   0.48913   0.59753   0.64850
     Eigenvalues --- 1000.000001000.000001000.000001000.000001000.00000
     Eigenvalues --- 1000.000001000.000001000.000001000.000001000.00000
     Eigenvalues --- 1000.00000
 Angle between quadratic step and forces=  31.56 degrees.
 Linear search not attempted -- first point.
 Iteration  1 RMS(Cart)=  0.00016984 RMS(Int)=  0.00000003
 Iteration  2 RMS(Cart)=  0.00000003 RMS(Int)=  0.00000001
 Variable       Old X    -DE/DX   Delta X   Delta X   Delta X     New X
                                 (Linear)    (Quad)   (Total)
    R1        2.44160  -0.00007   0.00000  -0.00002  -0.00002   2.44158
    R2        2.59426  -0.00008   0.00000  -0.00045  -0.00045   2.59381
    R3        2.55987   0.00010   0.00000   0.00019   0.00019   2.56006
    R4        1.91219   0.00000   0.00000   0.00000   0.00000   1.91219
    R5        2.54681  -0.00012   0.00000  -0.00028  -0.00028   2.54654
    R6        2.48594   0.00003   0.00000   0.00018   0.00018   2.48612
    R7        2.04271   0.00003   0.00000   0.00005   0.00005   2.04276
    A1        1.94258  -0.00007   0.00000  -0.00006  -0.00006   1.94252
    A2        1.85017  -0.00001   0.00000  -0.00015  -0.00015   1.85002
    A3        2.09937  -0.00003   0.00000  -0.00017  -0.00017   2.09920
    A4        1.89416   0.00007   0.00000   0.00023   0.00023   1.89439
    A5        2.28965  -0.00003   0.00000  -0.00006  -0.00006   2.28959
    A6        1.84041   0.00014   0.00000   0.00034   0.00034   1.84075
    A7        1.89746  -0.00013   0.00000  -0.00037  -0.00037   1.89709
    A8        2.17775   0.00009   0.00000   0.00050   0.00050   2.17824
    A9        2.20798   0.00004   0.00000  -0.00013  -0.00013   2.20785
    D1        0.00000   0.00000   0.00000   0.00000   0.00000   0.00000
    D2        0.00000   0.00000   0.00000   0.00000   0.00000   0.00000
    D3        3.14159   0.00000   0.00000   0.00000   0.00000   3.14159
    D4        0.00000   0.00000   0.00000   0.00000   0.00000   0.00000
    D5        0.00000   0.00000   0.00000   0.00000   0.00000   0.00000
    D6        3.14159   0.00000   0.00000   0.00000   0.00000   3.14159
    D7        3.14159   0.00000   0.00000   0.00000   0.00000   3.14159
    D8        0.00000   0.00000   0.00000   0.00000   0.00000   0.00000
    D9        0.00000   0.00000   0.00000   0.00000   0.00000   0.00000
   D10        3.14159   0.00000   0.00000   0.00000   0.00000   3.14159
         Item               Value     Threshold  Converged?
 Maximum Force            0.000136     0.000450     YES
 RMS     Force            0.000060     0.000300     YES
 Maximum Displacement     0.000384     0.001800     YES
 RMS     Displacement     0.000170     0.001200     YES
 Predicted change in Energy=-1.282174D-07
 Optimization completed.
    -- Stationary point found.
                         ----------------------------
                         !   Optimized Parameters   !
                         ! (Angstroms and Degrees)  !
 ------------------------                            -------------------------
 ! Name  Definition              Value          Derivative Info.             !
 -----------------------------------------------------------------------------
 ! R1    R(1,2)                  1.292          -DE/DX =   -0.0001           !
 ! R2    R(1,5)                  1.3728         -DE/DX =   -0.0001           !
 ! R3    R(2,3)                  1.3546         -DE/DX =    0.0001           !
 ! R4    R(3,4)                  1.0119         -DE/DX =    0.               !
 ! R5    R(3,6)                  1.3477         -DE/DX =   -0.0001           !
 ! R6    R(5,6)                  1.3155         -DE/DX =    0.               !
 ! R7    R(6,7)                  1.081          -DE/DX =    0.               !
 ! A1    A(2,1,5)              111.3016         -DE/DX =   -0.0001           !
 ! A2    A(1,2,3)              106.0067         -DE/DX =    0.               !
 ! A3    A(2,3,4)              120.2853         -DE/DX =    0.               !
 ! A4    A(2,3,6)              108.5273         -DE/DX =    0.0001           !
 ! A5    A(4,3,6)              131.1874         -DE/DX =    0.               !
 ! A6    A(1,5,6)              105.4478         -DE/DX =    0.0001           !
 ! A7    A(3,6,5)              108.7165         -DE/DX =   -0.0001           !
 ! A8    A(3,6,7)              124.7757         -DE/DX =    0.0001           !
 ! A9    A(5,6,7)              126.5078         -DE/DX =    0.               !
 ! D1    D(5,1,2,3)              0.             -DE/DX =    0.               !
 ! D2    D(2,1,5,6)              0.             -DE/DX =    0.               !
 ! D3    D(1,2,3,4)            180.             -DE/DX =    0.               !
 ! D4    D(1,2,3,6)              0.             -DE/DX =    0.               !
 ! D5    D(2,3,6,5)              0.             -DE/DX =    0.               !
 ! D6    D(2,3,6,7)            180.             -DE/DX =    0.               !
 ! D7    D(4,3,6,5)            180.             -DE/DX =    0.               !
 ! D8    D(4,3,6,7)              0.             -DE/DX =    0.               !
 ! D9    D(1,5,6,3)              0.             -DE/DX =    0.               !
 ! D10   D(1,5,6,7)            180.             -DE/DX =    0.               !
 -----------------------------------------------------------------------------
 GradGradGradGradGradGradGradGradGradGradGradGradGradGradGradGradGradGrad

 1\1\GINC-FERRUM\Freq\RQCISD-FC\6-31G(d)\C1H2N4\RDJ3\06-Nov-1999\0\\#N 
 GEOM=ALLCHECK GUESS=TCHECK RQCISD(FC)/6-31G(D) FREQ\\1H tetrazole c CH
 -NH-N=N-N= casno=288948\\0,1\N,-0.7264650034,-0.9280250191,0.\N,-1.124
 0070357,0.3013339705,0.\N,-0.0000000556,1.057392,0.\H,-0.0642640821,2.
 0672379983,0.\N,0.6439689987,-1.0090069831,0.\C,1.068553966,0.23609302
 81,0.\H,2.0984619574,0.5643460551,0.\\Version=IBM-RS6000-G98RevA.4\Sta
 te=1-A'\HF=-256.7482954\MP2=-257.534988\MP3=-257.5320606\MP4D=-257.554
 3733\MP4DQ=-257.533196\MP4SDQ=-257.5426662\QCISD=-257.543481\RMSD=1.17
 2e-09\RMSF=8.031e-05\Dipole=0.9961978,1.9099396,0.\DipoleDeriv=0.20614
 09,-0.0278166,0.,-0.113144,-0.1254919,0.,0.,0.,-0.1473734,-0.1588108,0
 .3438493,0.,0.3377477,0.1365604,0.,0.,0.,-0.0910874,-0.1554165,-0.1365
 194,0.,-0.0842764,-0.5574214,0.,0.,0.,-0.2039414,0.2106307,-0.008203,0
 .,-0.0201731,0.2985197,0.,0.,0.,0.3716524,-0.4527079,0.0285959,0.,-0.0
 92365,-0.2821297,0.,0.,0.,-0.2227711,0.2815494,-0.1707364,0.,0.0024345
 ,0.4261353,0.,0.,0.,0.1270171,0.0685115,-0.0290247,0.,-0.0302693,0.103
 8984,0.,0.,0.,0.166409\PG=CS [SG(C1H2N4)]\NImag=0\\0.43470058,0.045116
 47,0.62701247,0.,0.,0.12363727,-0.13868897,0.04391867,0.,0.54642667,0.
 11120108,-0.35683264,0.,-0.09109892,0.54147051,0.,0.,-0.09667893,0.,0.
 ,0.11392958,-0.02619083,-0.07185244,0.,-0.23075520,-0.07035293,0.,0.60
 360334,0.00464161,-0.15057678,0.,-0.02392518,-0.12176537,0.,-0.0931222
 1,1.03054904,0.,0.,0.02645121,0.,0.,-0.06597559,0.,0.,0.08505704,-0.00
 936090,-0.01029051,0.,0.01647231,-0.02986485,0.,-0.07699801,0.03698450
 ,0.,0.06253887,-0.00214099,-0.00007245,0.,0.00643871,-0.00945220,0.,0.
 02819378,-0.46802880,0.,-0.02705259,0.48008661,0.,0.,0.00800587,0.,0.,
 -0.01274160,0.,0.,-0.00479529,0.,0.,0.01307015,-0.18883504,0.01339541,
 0.,-0.08045047,0.11915420,0.,0.01868054,-0.03557134,0.,-0.00653198,0.0
 0001160,0.,0.40179369,-0.03216115,-0.10414708,0.,0.01375652,-0.0375015
 3,0.,0.08268702,-0.10571616,0.,0.00871712,0.00048553,0.,0.00991396,0.6
 4060919,0.,0.,-0.08897636,0.,0.,0.03570704,0.,0.,0.01993775,0.,0.,0.00
 773540,0.,0.,0.10827511,-0.07223702,-0.02162681,0.,-0.11229625,-0.0400
 6517,0.,-0.27570469,0.12106761,0.,0.01456562,-0.00583960,0.,-0.1454014
 6,-0.08288407,0.,0.93608993,-0.12205716,-0.00968775,0.,0.04672612,-0.0
 1022884,0.,0.09828490,-0.19805804,0.,0.02172340,-0.00277465,0.,-0.0772
 7758,-0.39412615,0.,0.12080663,0.70140486,0.,0.,0.01825136,0.,0.,0.019
 39834,0.,0.,-0.05742863,0.,0.,-0.01068319,0.,0.,-0.07753449,0.,0.,0.13
 822477,0.00063194,0.00131183,0.,-0.00070072,0.00105704,0.,-0.01264272,
 -0.01008415,0.,-0.00068453,0.00038728,0.,0.00071771,-0.00003056,0.,-0.
 34500758,-0.08819580,0.,0.35768342,-0.00462213,-0.00569433,0.,0.004194
 09,-0.00571194,0.,0.02616633,0.01362298,0.,-0.00021797,-0.00024630,0.,
 -0.02961649,0.00040770,0.,-0.09145699,-0.08654337,0.,0.09555173,0.0841
 6367,0.,0.,0.00928246,0.,0.,0.00635175,0.,0.,-0.00323426,0.,0.,-0.0005
 8853,0.,0.,-0.00513481,0.,0.,-0.03022281,0.,0.,0.02355272\\-0.00002924
 ,0.00001726,0.,0.00006276,0.00008269,0.,-0.00012837,0.00015294,0.,-0.0
 0000109,0.00000382,0.,0.00019415,-0.00009596,0.,-0.00006278,-0.0001768
 7,0.,-0.00003543,0.00001613,0.\\\@


 Sacred cows make the best hamburger.
                               -- Mark Twain
 Job cpu time:  0 days 12 hours 45 minutes 54.3 seconds.
 File lengths (MBytes):  RWF=  422 Int=    0 D2E=    0 Chk=    4 Scr=    1
 Normal termination of Gaussian 98.
