 Entering Gaussian System, Link 0=g03
 Initial command:
 /usr/local/apps/g03b05/g03/l1.exe /wrk/rdj3/pbe4/Gau-258166.inp -scrdir=/wrk/rdj3/pbe4/
 Entering Link 1 = /usr/local/apps/g03b05/g03/l1.exe PID=    258245.
  
 Copyright (c) 1988,1990,1992,1993,1995,1998,2003, Gaussian, Inc.
                  All Rights Reserved.
  
 This is the Gaussian(R) 03 program.  It is based on the
 the Gaussian(R) 98 system (copyright 1998, Gaussian, Inc.),
 the Gaussian(R) 94 system (copyright 1995, Gaussian, Inc.),
 the Gaussian 92(TM) system (copyright 1992, Gaussian, Inc.),
 the Gaussian 90(TM) system (copyright 1990, Gaussian, Inc.),
 the Gaussian 88(TM) system (copyright 1988, Gaussian, Inc.),
 the Gaussian 86(TM) system (copyright 1986, Carnegie Mellon
 University), and the Gaussian 82(TM) system (copyright 1983,
 Carnegie Mellon University). Gaussian is a federally registered
 trademark of Gaussian, Inc.
  
 This software contains proprietary and confidential information,
 including trade secrets, belonging to Gaussian, Inc.
  
 This software is provided under written license and may be
 used, copied, transmitted, or stored only in accord with that
 written license.
  
 The following legend is applicable only to US Government
 contracts under DFARS:
  
                    RESTRICTED RIGHTS LEGEND
  
 Use, duplication or disclosure by the US Government is subject
 to restrictions as set forth in subparagraph (c)(1)(ii) of the
 Rights in Technical Data and Computer Software clause at DFARS
 252.227-7013.
  
 Gaussian, Inc.
 Carnegie Office Park, Building 6, Pittsburgh, PA 15106 USA
  
 The following legend is applicable only to US Government
 contracts under FAR:
  
                    RESTRICTED RIGHTS LEGEND
  
 Use, reproduction and disclosure by the US Government is subject
 to restrictions as set forth in subparagraph (c) of the
 Commercial Computer Software - Restricted Rights clause at FAR
 52.227-19.
  
 Gaussian, Inc.
 Carnegie Office Park, Building 6, Pittsburgh, PA 15106 USA
  
  
 ---------------------------------------------------------------
 Warning -- This program may not be used in any manner that
 competes with the business of Gaussian, Inc. or will provide
 assistance to any competitor of Gaussian, Inc.  The licensee
 of this program is prohibited from giving any competitor of
 Gaussian, Inc. access to this program.  By using this program,
 the user acknowledges that Gaussian, Inc. is engaged in the
 business of creating and licensing software in the field of
 computational chemistry and represents and warrants to the
 licensee that it is not a competitor of Gaussian, Inc. and that
 it will not use this program in any manner prohibited above.
 ---------------------------------------------------------------
  

 Cite this work as:
 Gaussian 03, Revision B.05,
 M. J. Frisch, G. W. Trucks, H. B. Schlegel, G. E. Scuseria, 
 M. A. Robb, J. R. Cheeseman, J. A. Montgomery, Jr., T. Vreven, 
 K. N. Kudin, J. C. Burant, J. M. Millam, S. S. Iyengar, J. Tomasi, 
 V. Barone, B. Mennucci, M. Cossi, G. Scalmani, N. Rega, 
 G. A. Petersson, H. Nakatsuji, M. Hada, M. Ehara, K. Toyota, 
 R. Fukuda, J. Hasegawa, M. Ishida, T. Nakajima, Y. Honda, O. Kitao, 
 H. Nakai, M. Klene, X. Li, J. E. Knox, H. P. Hratchian, J. B. Cross, 
 C. Adamo, J. Jaramillo, R. Gomperts, R. E. Stratmann, O. Yazyev, 
 A. J. Austin, R. Cammi, C. Pomelli, J. W. Ochterski, P. Y. Ayala, 
 K. Morokuma, G. A. Voth, P. Salvador, J. J. Dannenberg, 
 V. G. Zakrzewski, S. Dapprich, A. D. Daniels, M. C. Strain, 
 O. Farkas, D. K. Malick, A. D. Rabuck, K. Raghavachari, 
 J. B. Foresman, J. V. Ortiz, Q. Cui, A. G. Baboul, S. Clifford, 
 J. Cioslowski, B. B. Stefanov, G. Liu, A. Liashenko, P. Piskorz, 
 I. Komaromi, R. L. Martin, D. J. Fox, T. Keith, M. A. Al-Laham, 
 C. Y. Peng, A. Nanayakkara, M. Challacombe, P. M. W. Gill, 
 B. Johnson, W. Chen, M. W. Wong, C. Gonzalez, and J. A. Pople, 
 Gaussian, Inc., Pittsburgh PA, 2003.
 
 ******************************************
 Gaussian 03:  SGI64-G03RevB.05  8-Nov-2003
                25-Mar-2004 
 ******************************************
 %mem=56000000
 -------------------------
 #PBEPBE/6-31+G** opt freq
 -------------------------
 1/14=-1,18=20,26=3,38=1/1,3;
 2/9=110,17=6,18=5,40=1/2;
 3/5=1,6=6,7=111,11=2,16=1,25=1,30=1,74=1009/1,2,3;
 4//1;
 5/5=2,38=5/2;
 6/7=2,8=2,9=2,10=2,28=1/1;
 7//1,2,3,16;
 1/14=-1,18=20/3(1);
 99//99;
 2/9=110/2;
 3/5=1,6=6,7=111,11=2,16=1,25=1,30=1,74=1009/1,2,3;
 4/5=5,16=3/1;
 5/5=2,38=5/2;
 7//1,2,3,16;
 1/14=-1,18=20/3(-5);
 2/9=110/2;
 6/7=2,8=2,9=2,10=2,19=2,28=1/1;
 99/9=1/99;
 Leave Link    1 at Thu Mar 25 13:38:20 2004, MaxMem=   56000000 cpu:       0.3
 (Enter /usr/local/apps/g03b05/g03/l101.exe)
 -----------------------------------
 1htz casno=288948 method=61 basis=4
 -----------------------------------
 Symbolic Z-matrix:
 Charge =  0 Multiplicity = 1
 N                    -0.71631  -0.90193   0. 
 N                    -1.09552   0.29142   0. 
 N                     0.        1.03878   0. 
 H                    -0.06148   2.03099   0. 
 N                     0.62215  -0.9895    0. 
 C                     1.05281   0.22578   0. 
 H                     2.07237   0.54298   0. 
 
                    Isotopes and Nuclear Properties:

  Atom         1           2           3           4           5           6           7
 IAtWgt=          14          14          14           1          14          12           1
 AtmWgt=  14.0030740  14.0030740  14.0030740   1.0078250  14.0030740  12.0000000   1.0078250
 IAtSpn=           2           2           2           1           2           0           1
 AtZEff=   0.0000000   0.0000000   0.0000000   0.0000000   0.0000000   0.0000000   0.0000000
 AtQMom=   1.5600000   1.5600000   1.5600000   0.0000000   1.5600000   0.0000000   0.0000000
 AtGFac=   0.4037610   0.4037610   0.4037610   2.7928460   0.4037610   0.0000000   2.7928460
 Leave Link  101 at Thu Mar 25 13:38:20 2004, MaxMem=   56000000 cpu:       0.2
 (Enter /usr/local/apps/g03b05/g03/l103.exe)

 GradGradGradGradGradGradGradGradGradGradGradGradGradGradGradGradGradGrad
 Berny optimization.
 Initialization pass.
                           ----------------------------
                           !    Initial Parameters    !
                           ! (Angstroms and Degrees)  !
 --------------------------                            --------------------------
 ! Name  Definition              Value          Derivative Info.                !
 --------------------------------------------------------------------------------
 ! R1    R(1,2)                  1.2522         estimate D2E/DX2                !
 ! R2    R(1,5)                  1.3413         estimate D2E/DX2                !
 ! R3    R(2,3)                  1.3262         estimate D2E/DX2                !
 ! R4    R(3,4)                  0.9941         estimate D2E/DX2                !
 ! R5    R(3,6)                  1.3302         estimate D2E/DX2                !
 ! R6    R(5,6)                  1.2893         estimate D2E/DX2                !
 ! R7    R(6,7)                  1.0678         estimate D2E/DX2                !
 ! A1    A(2,1,5)              111.3714         estimate D2E/DX2                !
 ! A2    A(1,2,3)              106.673          estimate D2E/DX2                !
 ! A3    A(2,3,4)              120.7559         estimate D2E/DX2                !
 ! A4    A(2,3,6)              108.0227         estimate D2E/DX2                !
 ! A5    A(4,3,6)              131.2214         estimate D2E/DX2                !
 ! A6    A(1,5,6)              105.7701         estimate D2E/DX2                !
 ! A7    A(3,6,5)              108.1628         estimate D2E/DX2                !
 ! A8    A(3,6,7)              125.0426         estimate D2E/DX2                !
 ! A9    A(5,6,7)              126.7946         estimate D2E/DX2                !
 ! D1    D(5,1,2,3)              0.0            estimate D2E/DX2                !
 ! D2    D(2,1,5,6)              0.0            estimate D2E/DX2                !
 ! D3    D(1,2,3,4)            180.0            estimate D2E/DX2                !
 ! D4    D(1,2,3,6)              0.0            estimate D2E/DX2                !
 ! D5    D(2,3,6,5)              0.0            estimate D2E/DX2                !
 ! D6    D(2,3,6,7)            180.0            estimate D2E/DX2                !
 ! D7    D(4,3,6,5)            180.0            estimate D2E/DX2                !
 ! D8    D(4,3,6,7)              0.0            estimate D2E/DX2                !
 ! D9    D(1,5,6,3)              0.0            estimate D2E/DX2                !
 ! D10   D(1,5,6,7)            180.0            estimate D2E/DX2                !
 --------------------------------------------------------------------------------
 Trust Radius=3.00D-01 FncErr=1.00D-07 GrdErr=1.00D-06
 Number of steps in this run=  36 maximum allowed number of steps= 100.
 GradGradGradGradGradGradGradGradGradGradGradGradGradGradGradGradGradGrad

 Leave Link  103 at Thu Mar 25 13:38:21 2004, MaxMem=   56000000 cpu:       0.1
 (Enter /usr/local/apps/g03b05/g03/l202.exe)
                          Input orientation:                          
 ---------------------------------------------------------------------
 Center     Atomic     Atomic              Coordinates (Angstroms)
 Number     Number      Type              X           Y           Z
 ---------------------------------------------------------------------
    1          7             0       -0.716312   -0.901934    0.000000
    2          7             0       -1.095520    0.291420    0.000000
    3          7             0        0.000000    1.038775    0.000000
    4          1             0       -0.061479    2.030994    0.000000
    5          7             0        0.622151   -0.989495    0.000000
    6          6             0        1.052813    0.225779    0.000000
    7          1             0        2.072370    0.542976    0.000000
 ---------------------------------------------------------------------
                    Distance matrix (angstroms):
                    1          2          3          4          5
     1  N    0.000000
     2  N    1.252155   0.000000
     3  N    2.068684   1.326161   0.000000
     4  H    3.005141   2.023699   0.994122   0.000000
     5  N    1.341324   2.142694   2.121544   3.096886   0.000000
     6  C    2.097985   2.149336   1.330180   2.121426   1.289326
     7  H    3.140782   3.177862   2.130853   2.601444   2.109882
                    6          7
     6  C    0.000000
     7  H    1.067760   0.000000
 Stoichiometry    CH2N4
 Framework group  CS[SG(CH2N4)]
 Deg. of freedom    11
 Full point group                 CS      NOp   2
 Largest Abelian subgroup         CS      NOp   2
 Largest concise Abelian subgroup C1      NOp   1
                         Standard orientation:                         
 ---------------------------------------------------------------------
 Center     Atomic     Atomic              Coordinates (Angstroms)
 Number     Number      Type              X           Y           Z
 ---------------------------------------------------------------------
    1          7             0       -0.716312   -0.901934    0.000000
    2          7             0       -1.095520    0.291420    0.000000
    3          7             0        0.000000    1.038775    0.000000
    4          1             0       -0.061479    2.030994    0.000000
    5          7             0        0.622151   -0.989495    0.000000
    6          6             0        1.052813    0.225779    0.000000
    7          1             0        2.072370    0.542976    0.000000
 ---------------------------------------------------------------------
 Rotational constants (GHZ):     10.9198649     10.7343934      5.4131674
 Leave Link  202 at Thu Mar 25 13:38:21 2004, MaxMem=   56000000 cpu:       0.2
 (Enter /usr/local/apps/g03b05/g03/l301.exe)
 Standard basis: 6-31+G(d,p) (6D, 7F)
 There are    78 symmetry adapted basis functions of A'  symmetry.
 There are    27 symmetry adapted basis functions of A"  symmetry.
 Integral buffers will be    131072 words long.
 Raffenetti 2 integral format.
 Two-electron integral symmetry is turned on.
   105 basis functions,   174 primitive gaussians,   105 cartesian basis functions
    18 alpha electrons       18 beta electrons
       nuclear repulsion energy       169.8288229759 Hartrees.
 IExCor=1009 DFT=T Ex=PBE Corr=PBE ExCW=0 ScaHFX=  0.000000
 ScaDFX=  1.000000  1.000000  1.000000  1.000000
 IRadAn=      0 IRanWt=     -1 IRanGd=            0 ICorTp=0
 NAtoms=    7 NActive=    7 NUniq=    7 SFac= 1.00D+00 NAtFMM=   60 Big=F
 Leave Link  301 at Thu Mar 25 13:38:21 2004, MaxMem=   56000000 cpu:       0.2
 (Enter /usr/local/apps/g03b05/g03/l302.exe)
 NPDir=0 NMtPBC=     1 NCelOv=     1 NCel=       1 NClECP=     1 NCelD=      1
         NCelK=      1 NCelE2=     1 NClLst=     1 CellRange=     0.0.
 One-electron integrals computed using PRISM.
 NBasis=   105 RedAO= T  NBF=    78    27
 NBsUse=   105 1.00D-06 NBFU=    78    27
 Precomputing XC quadrature grid using
 IXCGrd= 2 IRadAn=           0 IRanWt=          -1 IRanGd=           0.
 NRdTot=     446 NPtTot=       56566 NUsed=       59717 NTot=       59749
 NSgBfM=   105   105   105   105.
 Leave Link  302 at Thu Mar 25 13:38:22 2004, MaxMem=   56000000 cpu:       0.6
 (Enter /usr/local/apps/g03b05/g03/l303.exe)
 DipDrv:  MaxL=1.
 Leave Link  303 at Thu Mar 25 13:38:22 2004, MaxMem=   56000000 cpu:       0.0
 (Enter /usr/local/apps/g03b05/g03/l401.exe)
 Harris functional with IExCor= 1009 diagonalized for initial guess.
 ExpMin= 4.38D-02 ExpMax= 4.17D+03 ExpMxC= 6.27D+02 IAcc=2 IRadAn=         4 AccDes= 0.00D+00
 HarFok:  IExCor=1009 AccDes= 0.00D+00 IRadAn=         4 IDoV=1
 ScaDFX=  1.000000  1.000000  1.000000  1.000000
 Harris En= -258.066157604715    
 Initial guess orbital symmetries:
       Occupied  (A') (A') (A') (A') (A') (A') (A') (A') (A') (A')
                 (A') (A') (A") (A') (A") (A') (A") (A')
       Virtual   (A") (A") (A') (A') (A') (A") (A') (A') (A') (A')
                 (A") (A") (A') (A') (A') (A') (A') (A") (A") (A')
                 (A') (A') (A') (A') (A') (A') (A') (A') (A') (A")
                 (A') (A') (A') (A') (A') (A") (A') (A") (A') (A")
                 (A") (A') (A') (A') (A') (A') (A") (A') (A') (A")
                 (A") (A') (A') (A") (A") (A') (A') (A') (A') (A')
                 (A") (A') (A') (A") (A") (A') (A") (A') (A') (A")
                 (A') (A") (A') (A') (A") (A') (A') (A') (A') (A')
                 (A') (A') (A') (A') (A') (A') (A')
 The electronic state of the initial guess is 1-A'.
 Leave Link  401 at Thu Mar 25 13:38:24 2004, MaxMem=   56000000 cpu:       1.9
 (Enter /usr/local/apps/g03b05/g03/l502.exe)
 Closed shell SCF:
 Requested convergence on RMS density matrix=1.00D-08 within 128 cycles.
 Requested convergence on MAX density matrix=1.00D-06.
 Requested convergence on             energy=1.00D-06.
 No special actions if energy rises.
 Using DIIS extrapolation, IDIIS=  1040.
 Integral symmetry usage will be decided dynamically.
        59716 words used for storage of precomputed grid.
 Keep R1 integrals in memory in canonical form, NReq=    17019559.
 IEnd=    116695 IEndB=    116695 NGot=  56000000 MDV=  40423667
 LenX=  40423667
 Symmetry not used in FoFDir.
 MinBra= 0 MaxBra= 2 Meth= 1.
 IRaf=       0 NMat=   1 IRICut=       1 DoRegI=T DoRafI=F ISym2E= 0 JSym2E=0.

 Cycle   1  Pass 1  IDiag  1:
 E= -257.931409483620    
 DIIS: error= 1.65D-02 at cycle   1 NSaved=   1.
 NSaved= 1 IEnMin= 1 EnMin= -257.931409483620     IErMin= 1 ErrMin= 1.65D-02
 ErrMax= 1.65D-02 EMaxC= 1.00D-01 BMatC= 5.31D-02 BMatP= 5.31D-02
 IDIUse=3 WtCom= 8.35D-01 WtEn= 1.65D-01
 Coeff-Com:  0.100D+01
 Coeff-En:   0.100D+01
 Coeff:      0.100D+01
 Gap=     0.154 Goal=   None    Shift=    0.000
 GapD=    0.154 DampG=1.000 DampE=0.500 DampFc=0.5000 IDamp=-1.
 Damping current iteration by 5.00D-01
 RMSDP=2.16D-02 MaxDP=4.48D-01              OVMax= 2.12D-01

 Cycle   2  Pass 1  IDiag  1:
 E= -257.934437528090     Delta-E=       -0.003028044470 Rises=F Damp=T
 DIIS: error= 1.56D-02 at cycle   2 NSaved=   2.
 NSaved= 2 IEnMin= 2 EnMin= -257.934437528090     IErMin= 2 ErrMin= 1.56D-02
 ErrMax= 1.56D-02 EMaxC= 1.00D-01 BMatC= 1.96D-02 BMatP= 5.31D-02
 IDIUse=3 WtCom= 8.44D-01 WtEn= 1.56D-01
 Coeff-Com:  0.330D+00 0.670D+00
 Coeff-En:   0.478D+00 0.522D+00
 Coeff:      0.353D+00 0.647D+00
 Gap=     0.204 Goal=   None    Shift=    0.000
 RMSDP=5.96D-03 MaxDP=1.98D-01 DE=-3.03D-03 OVMax= 1.73D-01

 Cycle   3  Pass 1  IDiag  1:
 E= -257.972099318601     Delta-E=       -0.037661790511 Rises=F Damp=F
 DIIS: error= 1.77D-02 at cycle   3 NSaved=   3.
 NSaved= 3 IEnMin= 3 EnMin= -257.972099318601     IErMin= 2 ErrMin= 1.56D-02
 ErrMax= 1.77D-02 EMaxC= 1.00D-01 BMatC= 1.91D-02 BMatP= 1.96D-02
 IDIUse=3 WtCom= 8.23D-01 WtEn= 1.77D-01
 Coeff-Com:  0.100D+00 0.469D+00 0.430D+00
 Coeff-En:   0.000D+00 0.943D-01 0.906D+00
 Coeff:      0.825D-01 0.403D+00 0.514D+00
 Gap=     0.185 Goal=   None    Shift=    0.000
 RMSDP=2.91D-03 MaxDP=7.46D-02 DE=-3.77D-02 OVMax= 6.76D-02

 Cycle   4  Pass 1  IDiag  1:
 E= -257.984198659530     Delta-E=       -0.012099340929 Rises=F Damp=F
 DIIS: error= 9.32D-03 at cycle   4 NSaved=   4.
 NSaved= 4 IEnMin= 4 EnMin= -257.984198659530     IErMin= 4 ErrMin= 9.32D-03
 ErrMax= 9.32D-03 EMaxC= 1.00D-01 BMatC= 5.54D-03 BMatP= 1.91D-02
 IDIUse=3 WtCom= 9.07D-01 WtEn= 9.32D-02
 Coeff-Com:  0.530D-01 0.199D+00 0.359D+00 0.390D+00
 Coeff-En:   0.000D+00 0.000D+00 0.281D+00 0.719D+00
 Coeff:      0.480D-01 0.180D+00 0.351D+00 0.420D+00
 Gap=     0.191 Goal=   None    Shift=    0.000
 RMSDP=9.66D-04 MaxDP=1.62D-02 DE=-1.21D-02 OVMax= 2.75D-02

 Cycle   5  Pass 1  IDiag  1:
 E= -257.988840767551     Delta-E=       -0.004642108021 Rises=F Damp=F
 DIIS: error= 1.97D-03 at cycle   5 NSaved=   5.
 NSaved= 5 IEnMin= 5 EnMin= -257.988840767551     IErMin= 5 ErrMin= 1.97D-03
 ErrMax= 1.97D-03 EMaxC= 1.00D-01 BMatC= 2.70D-04 BMatP= 5.54D-03
 IDIUse=3 WtCom= 9.80D-01 WtEn= 1.97D-02
 Coeff-Com:  0.247D-01 0.847D-01 0.196D+00 0.286D+00 0.408D+00
 Coeff-En:   0.000D+00 0.000D+00 0.000D+00 0.000D+00 0.100D+01
 Coeff:      0.242D-01 0.830D-01 0.192D+00 0.280D+00 0.420D+00
 Gap=     0.190 Goal=   None    Shift=    0.000
 RMSDP=3.08D-04 MaxDP=7.76D-03 DE=-4.64D-03 OVMax= 6.99D-03

 Cycle   6  Pass 1  IDiag  1:
 E= -257.989051074311     Delta-E=       -0.000210306761 Rises=F Damp=F
 DIIS: error= 4.27D-04 at cycle   6 NSaved=   6.
 NSaved= 6 IEnMin= 6 EnMin= -257.989051074311     IErMin= 6 ErrMin= 4.27D-04
 ErrMax= 4.27D-04 EMaxC= 1.00D-01 BMatC= 1.70D-05 BMatP= 2.70D-04
 IDIUse=3 WtCom= 9.96D-01 WtEn= 4.27D-03
 Coeff-Com:  0.499D-03 0.416D-02 0.269D-01 0.636D-01 0.243D+00 0.662D+00
 Coeff-En:   0.000D+00 0.000D+00 0.000D+00 0.000D+00 0.542D-01 0.946D+00
 Coeff:      0.496D-03 0.414D-02 0.267D-01 0.633D-01 0.242D+00 0.663D+00
 Gap=     0.190 Goal=   None    Shift=    0.000
 RMSDP=6.29D-05 MaxDP=1.19D-03 DE=-2.10D-04 OVMax= 1.61D-03

 Cycle   7  Pass 1  IDiag  1:
 E= -257.989064418309     Delta-E=       -0.000013343998 Rises=F Damp=F
 DIIS: error= 8.52D-05 at cycle   7 NSaved=   7.
 NSaved= 7 IEnMin= 7 EnMin= -257.989064418309     IErMin= 7 ErrMin= 8.52D-05
 ErrMax= 8.52D-05 EMaxC= 1.00D-01 BMatC= 6.14D-07 BMatP= 1.70D-05
 IDIUse=1 WtCom= 1.00D+00 WtEn= 0.00D+00
 Coeff-Com:  0.181D-03 0.189D-02 0.150D-01 0.373D-01 0.149D+00 0.424D+00
 Coeff-Com:  0.373D+00
 Coeff:      0.181D-03 0.189D-02 0.150D-01 0.373D-01 0.149D+00 0.424D+00
 Coeff:      0.373D+00
 Gap=     0.190 Goal=   None    Shift=    0.000
 RMSDP=2.01D-05 MaxDP=4.93D-04 DE=-1.33D-05 OVMax= 4.59D-04

 Cycle   8  Pass 1  IDiag  1:
 E= -257.989064969949     Delta-E=       -0.000000551640 Rises=F Damp=F
 DIIS: error= 2.88D-05 at cycle   8 NSaved=   8.
 NSaved= 8 IEnMin= 8 EnMin= -257.989064969949     IErMin= 8 ErrMin= 2.88D-05
 ErrMax= 2.88D-05 EMaxC= 1.00D-01 BMatC= 6.72D-08 BMatP= 6.14D-07
 IDIUse=1 WtCom= 1.00D+00 WtEn= 0.00D+00
 Coeff-Com: -0.473D-04-0.846D-04 0.225D-02 0.695D-02 0.314D-01 0.983D-01
 Coeff-Com:  0.248D+00 0.614D+00
 Coeff:     -0.473D-04-0.846D-04 0.225D-02 0.695D-02 0.314D-01 0.983D-01
 Coeff:      0.248D+00 0.614D+00
 Gap=     0.190 Goal=   None    Shift=    0.000
 RMSDP=3.74D-06 MaxDP=8.73D-05 DE=-5.52D-07 OVMax= 1.07D-04

 Cycle   9  Pass 1  IDiag  1:
 E= -257.989065029275     Delta-E=       -0.000000059326 Rises=F Damp=F
 DIIS: error= 3.27D-06 at cycle   9 NSaved=   9.
 NSaved= 9 IEnMin= 9 EnMin= -257.989065029275     IErMin= 9 ErrMin= 3.27D-06
 ErrMax= 3.27D-06 EMaxC= 1.00D-01 BMatC= 1.59D-09 BMatP= 6.72D-08
 IDIUse=1 WtCom= 1.00D+00 WtEn= 0.00D+00
 Coeff-Com: -0.986D-05-0.715D-04 0.543D-03 0.188D-02 0.899D-02 0.286D-01
 Coeff-Com:  0.950D-01 0.265D+00 0.600D+00
 Coeff:     -0.986D-05-0.715D-04 0.543D-03 0.188D-02 0.899D-02 0.286D-01
 Coeff:      0.950D-01 0.265D+00 0.600D+00
 Gap=     0.190 Goal=   None    Shift=    0.000
 RMSDP=8.13D-07 MaxDP=1.42D-05 DE=-5.93D-08 OVMax= 1.44D-05

 Cycle  10  Pass 1  IDiag  1:
 E= -257.989065030121     Delta-E=       -0.000000000846 Rises=F Damp=F
 DIIS: error= 2.43D-06 at cycle  10 NSaved=  10.
 NSaved=10 IEnMin=10 EnMin= -257.989065030121     IErMin=10 ErrMin= 2.43D-06
 ErrMax= 2.43D-06 EMaxC= 1.00D-01 BMatC= 5.68D-10 BMatP= 1.59D-09
 IDIUse=1 WtCom= 1.00D+00 WtEn= 0.00D+00
 Coeff-Com: -0.428D-06-0.386D-04 0.152D-03 0.596D-03 0.301D-02 0.946D-02
 Coeff-Com:  0.389D-01 0.114D+00 0.400D+00 0.434D+00
 Coeff:     -0.428D-06-0.386D-04 0.152D-03 0.596D-03 0.301D-02 0.946D-02
 Coeff:      0.389D-01 0.114D+00 0.400D+00 0.434D+00
 Gap=     0.190 Goal=   None    Shift=    0.000
 RMSDP=2.28D-07 MaxDP=6.03D-06 DE=-8.46D-10 OVMax= 6.67D-06

 Cycle  11  Pass 1  IDiag  1:
 E= -257.989065030595     Delta-E=       -0.000000000473 Rises=F Damp=F
 DIIS: error= 2.69D-07 at cycle  11 NSaved=  11.
 NSaved=11 IEnMin=11 EnMin= -257.989065030595     IErMin=11 ErrMin= 2.69D-07
 ErrMax= 2.69D-07 EMaxC= 1.00D-01 BMatC= 5.55D-12 BMatP= 5.68D-10
 IDIUse=1 WtCom= 1.00D+00 WtEn= 0.00D+00
 Coeff-Com:  0.132D-05-0.678D-05 0.121D-04 0.614D-04 0.360D-03 0.102D-02
 Coeff-Com:  0.621D-02 0.169D-01 0.856D-01 0.141D+00 0.749D+00
 Coeff:      0.132D-05-0.678D-05 0.121D-04 0.614D-04 0.360D-03 0.102D-02
 Coeff:      0.621D-02 0.169D-01 0.856D-01 0.141D+00 0.749D+00
 Gap=     0.190 Goal=   None    Shift=    0.000
 RMSDP=4.87D-08 MaxDP=5.82D-07 DE=-4.73D-10 OVMax= 7.91D-07

 Cycle  12  Pass 1  IDiag  1:
 E= -257.989065030599     Delta-E=       -0.000000000005 Rises=F Damp=F
 DIIS: error= 2.10D-08 at cycle  12 NSaved=  12.
 NSaved=12 IEnMin=12 EnMin= -257.989065030599     IErMin=12 ErrMin= 2.10D-08
 ErrMax= 2.10D-08 EMaxC= 1.00D-01 BMatC= 5.24D-14 BMatP= 5.55D-12
 IDIUse=1 WtCom= 1.00D+00 WtEn= 0.00D+00
 Coeff-Com:  0.516D-06-0.922D-06 0.478D-06 0.286D-05 0.222D-04 0.508D-04
 Coeff-Com:  0.630D-03 0.149D-02 0.105D-01 0.232D-01 0.165D+00 0.799D+00
 Coeff:      0.516D-06-0.922D-06 0.478D-06 0.286D-05 0.222D-04 0.508D-04
 Coeff:      0.630D-03 0.149D-02 0.105D-01 0.232D-01 0.165D+00 0.799D+00
 Gap=     0.190 Goal=   None    Shift=    0.000
 RMSDP=5.40D-09 MaxDP=9.66D-08 DE=-4.66D-12 OVMax= 7.45D-08

 SCF Done:  E(RPBE-PBE) =  -257.989065031     A.U. after   12 cycles
             Convg  =    0.5403D-08             -V/T =  2.0072
             S**2   =   0.0000
 KE= 2.561521166780D+02 PE=-9.411199456523D+02 EE= 2.571499409678D+02
 Leave Link  502 at Thu Mar 25 13:39:01 2004, MaxMem=   56000000 cpu:      36.8
 (Enter /usr/local/apps/g03b05/g03/l601.exe)
 Copying SCF densities to generalized density rwf, ISCF=0 IROHF=0.

 **********************************************************************

            Population analysis using the SCF density.

 **********************************************************************

 Orbital symmetries:
       Occupied  (A') (A') (A') (A') (A') (A') (A') (A') (A') (A')
                 (A') (A") (A') (A') (A") (A") (A') (A')
       Virtual   (A") (A') (A") (A') (A') (A") (A') (A') (A') (A")
                 (A") (A') (A') (A') (A') (A') (A") (A') (A') (A")
                 (A') (A') (A') (A') (A') (A') (A') (A') (A') (A")
                 (A') (A') (A') (A') (A') (A") (A") (A') (A") (A')
                 (A') (A") (A') (A') (A') (A') (A") (A') (A') (A")
                 (A') (A") (A') (A") (A") (A') (A') (A') (A') (A')
                 (A") (A') (A') (A") (A") (A') (A") (A') (A') (A")
                 (A') (A') (A") (A') (A") (A') (A') (A') (A') (A')
                 (A') (A') (A') (A') (A') (A') (A')
 The electronic state is 1-A'.
 Alpha  occ. eigenvalues --  -14.12517 -14.08532 -14.06737 -14.04090  -9.99127
 Alpha  occ. eigenvalues --   -1.09379  -0.89124  -0.84256  -0.63795  -0.62681
 Alpha  occ. eigenvalues --   -0.56140  -0.47231  -0.46511  -0.34324  -0.31232
 Alpha  occ. eigenvalues --   -0.29509  -0.26512  -0.24834
 Alpha virt. eigenvalues --   -0.05873  -0.02870  -0.02647   0.01083   0.03085
 Alpha virt. eigenvalues --    0.03997   0.05810   0.07744   0.09514   0.11366
 Alpha virt. eigenvalues --    0.12672   0.12830   0.15137   0.16372   0.16655
 Alpha virt. eigenvalues --    0.18428   0.19332   0.20476   0.20637   0.20822
 Alpha virt. eigenvalues --    0.22365   0.23435   0.25148   0.28603   0.30410
 Alpha virt. eigenvalues --    0.30754   0.35041   0.40817   0.43154   0.59676
 Alpha virt. eigenvalues --    0.71142   0.72849   0.75975   0.78693   0.79423
 Alpha virt. eigenvalues --    0.80425   0.82897   0.84862   0.88493   0.88947
 Alpha virt. eigenvalues --    0.90107   0.91563   0.93570   0.99237   1.01851
 Alpha virt. eigenvalues --    1.05356   1.16181   1.17210   1.21396   1.25851
 Alpha virt. eigenvalues --    1.26705   1.27834   1.39565   1.44828   1.45759
 Alpha virt. eigenvalues --    1.52160   1.60872   1.80923   1.83193   1.89251
 Alpha virt. eigenvalues --    1.98873   2.00088   2.11547   2.13238   2.18264
 Alpha virt. eigenvalues --    2.23815   2.28278   2.31138   2.38179   2.43535
 Alpha virt. eigenvalues --    2.49066   2.54363   2.56238   2.58546   2.65062
 Alpha virt. eigenvalues --    2.71463   2.77733   2.86419   2.99629   3.06888
 Alpha virt. eigenvalues --    3.24832   3.60990   3.83389   3.90104   4.13202
 Alpha virt. eigenvalues --    4.18928   4.43458
          Condensed to atoms (all electrons):
              1          2          3          4          5          6
     1  N    6.752076   0.067144   0.122027  -0.002464  -0.045745   0.124725
     2  N    0.067144   6.965415  -0.122300   0.003449   0.247198  -0.155426
     3  N    0.122027  -0.122300   7.054369   0.279984  -0.184756   0.186377
     4  H   -0.002464   0.003449   0.279984   0.388390   0.007503  -0.008292
     5  N   -0.045745   0.247198  -0.184756   0.007503   7.050394   0.208037
     6  C    0.124725  -0.155426   0.186377  -0.008292   0.208037   5.203055
     7  H    0.002678   0.009650  -0.077305   0.002593  -0.041480   0.420487
              7
     1  N    0.002678
     2  N    0.009650
     3  N   -0.077305
     4  H    0.002593
     5  N   -0.041480
     6  C    0.420487
     7  H    0.498129
 Mulliken atomic charges:
              1
     1  N   -0.020441
     2  N   -0.015131
     3  N   -0.258396
     4  H    0.328837
     5  N   -0.241151
     6  C    0.021036
     7  H    0.185247
 Sum of Mulliken charges=   0.00000
 Atomic charges with hydrogens summed into heavy atoms:
              1
     1  N   -0.020441
     2  N   -0.015131
     3  N    0.070441
     4  H    0.000000
     5  N   -0.241151
     6  C    0.206283
     7  H    0.000000
 Sum of Mulliken charges=   0.00000
 Electronic spatial extent (au):  <R**2>=   245.7762
 Charge=     0.0000 electrons
 Dipole moment (field-independent basis, Debye):
    X=     2.5141    Y=     4.7826    Z=     0.0000  Tot=     5.4031
 Quadrupole moment (field-independent basis, Debye-Ang):
   XX=   -29.6343   YY=   -27.0385   ZZ=   -28.5909
   XY=     1.8148   XZ=     0.0000   YZ=     0.0000
 Traceless Quadrupole moment (field-independent basis, Debye-Ang):
   XX=    -1.2130   YY=     1.3827   ZZ=    -0.1697
   XY=     1.8148   XZ=     0.0000   YZ=     0.0000
 Octapole moment (field-independent basis, Debye-Ang**2):
  XXX=    12.2270  YYY=    22.7253  ZZZ=     0.0000  XYY=    -0.4677
  XXY=     4.7065  XXZ=     0.0000  XZZ=    -0.5079  YZZ=     0.7579
  YYZ=     0.0000  XYZ=     0.0000
 Hexadecapole moment (field-independent basis, Debye-Ang**3):
 XXXX=  -146.9990 YYYY=  -124.7691 ZZZZ=   -27.7338 XXXY=     6.9331
 XXXZ=     0.0000 YYYX=    -0.0494 YYYZ=     0.0000 ZZZX=     0.0000
 ZZZY=     0.0000 XXYY=   -55.3413 XXZZ=   -31.5490 YYZZ=   -29.8097
 XXYZ=     0.0000 YYXZ=     0.0000 ZZXY=     0.0454
 N-N= 1.698288229759D+02 E-N=-9.411199466616D+02  KE= 2.561521166780D+02
 Symmetry A'   KE= 2.466068770020D+02
 Symmetry A"   KE= 9.545239676030D+00
 No NMR shielding tensors so no spin-rotation constants.
 Leave Link  601 at Thu Mar 25 13:39:02 2004, MaxMem=   56000000 cpu:       0.6
 (Enter /usr/local/apps/g03b05/g03/l701.exe)
 Compute integral first derivatives.
 ... and contract with generalized density number  0.
 Leave Link  701 at Thu Mar 25 13:39:03 2004, MaxMem=   56000000 cpu:       0.6
 (Enter /usr/local/apps/g03b05/g03/l702.exe)
 L702 exits ... SP integral derivatives will be done elsewhere.
 Leave Link  702 at Thu Mar 25 13:39:03 2004, MaxMem=   56000000 cpu:       0.0
 (Enter /usr/local/apps/g03b05/g03/l703.exe)
 Compute integral first derivatives, UseDBF=F.
 Integral derivatives from FoFDir, PRISM(SPDF).
 Calling FoFCou, ICntrl=  2527 FMM=F ISym2X=1 I1Cent= 0 ISCF1= 0.
 FoFCou: FMM=F IPFlag=           0 FMFlag=           0 FMFlg1=           0
 NFxFlg=           0 DoJE=F BraDBF=F KetDBF=F FulRan=T.
 Petite list used in FoFCou.
 Leave Link  703 at Thu Mar 25 13:39:25 2004, MaxMem=   56000000 cpu:      22.2
 (Enter /usr/local/apps/g03b05/g03/l716.exe)
 Dipole        = 9.89107544D-01 1.88162561D+00 0.00000000D+00
 ***** Axes restored to original set *****
 -------------------------------------------------------------------
 Center     Atomic                   Forces (Hartrees/Bohr)
 Number     Number              X              Y              Z
 -------------------------------------------------------------------
    1          7          -0.011613817   -0.057372952    0.000000000
    2          7          -0.048477778    0.040789614    0.000000000
    3          7           0.005379350    0.015535969    0.000000000
    4          1          -0.001331536    0.021985092    0.000000000
    5          7           0.015947388   -0.045040848    0.000000000
    6          6           0.026251388    0.019766686    0.000000000
    7          1           0.013845004    0.004336440    0.000000000
 -------------------------------------------------------------------
 Cartesian Forces:  Max     0.057372952 RMS     0.023673562
 Leave Link  716 at Thu Mar 25 13:39:25 2004, MaxMem=   56000000 cpu:       0.0
 (Enter /usr/local/apps/g03b05/g03/l103.exe)

 GradGradGradGradGradGradGradGradGradGradGradGradGradGradGradGradGradGrad
 Berny optimization.
 Internal  Forces:  Max     0.060917373 RMS     0.019403882
 Search for a local minimum.
 Step number   1 out of a maximum of  36
 All quantities printed in internal units (Hartrees-Bohrs-Radians)
 Second derivative matrix not updated -- first step.
     Eigenvalues ---    0.02505   0.02639   0.02674   0.02834   0.16000
     Eigenvalues ---    0.16000   0.22605   0.24688   0.37515   0.48737
     Eigenvalues ---    0.50885   0.56605   0.58506   0.66912   0.78894
     Eigenvalues --- 1000.000001000.000001000.000001000.000001000.00000
     Eigenvalues --- 1000.000001000.000001000.000001000.000001000.00000
     Eigenvalues --- 1000.00000
 RFO step:  Lambda=-1.42688066D-02.
 Linear search not attempted -- first point.
 Iteration  1 RMS(Cart)=  0.03138464 RMS(Int)=  0.00003423
 Iteration  2 RMS(Cart)=  0.00002592 RMS(Int)=  0.00002230
 Iteration  3 RMS(Cart)=  0.00000000 RMS(Int)=  0.00002230
 Variable       Old X    -DE/DX   Delta X   Delta X   Delta X     New X
                                 (Linear)    (Quad)   (Total)
    R1        2.36623   0.06092   0.00000   0.07439   0.07443   2.44066
    R2        2.53474   0.02998   0.00000   0.05307   0.05309   2.58783
    R3        2.50608   0.03460   0.00000   0.05589   0.05589   2.56197
    R4        1.87862   0.02202   0.00000   0.04390   0.04390   1.92252
    R5        2.51368   0.03298   0.00000   0.05172   0.05169   2.56537
    R6        2.43647   0.04649   0.00000   0.06361   0.06359   2.50007
    R7        2.01777   0.01451   0.00000   0.03726   0.03726   2.05503
    A1        1.94380  -0.00291   0.00000  -0.00105  -0.00099   1.94281
    A2        1.86179  -0.00278   0.00000  -0.00475  -0.00472   1.85708
    A3        2.10759  -0.00129   0.00000  -0.00211  -0.00209   2.10550
    A4        1.88535   0.00262   0.00000   0.00447   0.00443   1.88978
    A5        2.29024  -0.00133   0.00000  -0.00236  -0.00234   2.28791
    A6        1.84604   0.00029   0.00000  -0.00049  -0.00050   1.84554
    A7        1.88780   0.00277   0.00000   0.00182   0.00177   1.88957
    A8        2.18241  -0.00142   0.00000  -0.00112  -0.00109   2.18131
    A9        2.21298  -0.00135   0.00000  -0.00070  -0.00068   2.21231
    D1        0.00000   0.00000   0.00000   0.00000   0.00000   0.00000
    D2        0.00000   0.00000   0.00000   0.00000   0.00000   0.00000
    D3        3.14159   0.00000   0.00000   0.00000   0.00000   3.14159
    D4        0.00000   0.00000   0.00000   0.00000   0.00000   0.00000
    D5        0.00000   0.00000   0.00000   0.00000   0.00000   0.00000
    D6        3.14159   0.00000   0.00000   0.00000   0.00000   3.14159
    D7        3.14159   0.00000   0.00000   0.00000   0.00000   3.14159
    D8        0.00000   0.00000   0.00000   0.00000   0.00000   0.00000
    D9        0.00000   0.00000   0.00000   0.00000   0.00000   0.00000
   D10        3.14159   0.00000   0.00000   0.00000   0.00000   3.14159
         Item               Value     Threshold  Converged?
 Maximum Force            0.060917     0.000450     NO 
 RMS     Force            0.019404     0.000300     NO 
 Maximum Displacement     0.074492     0.001800     NO 
 RMS     Displacement     0.031377     0.001200     NO 
 Predicted change in Energy=-7.287710D-03
 GradGradGradGradGradGradGradGradGradGradGradGradGradGradGradGradGradGrad

 Leave Link  103 at Thu Mar 25 13:39:25 2004, MaxMem=   56000000 cpu:       0.1
 (Enter /usr/local/apps/g03b05/g03/l202.exe)
                          Input orientation:                          
 ---------------------------------------------------------------------
 Center     Atomic     Atomic              Coordinates (Angstroms)
 Number     Number      Type              X           Y           Z
 ---------------------------------------------------------------------
    1          7             0       -0.736119   -0.935126    0.000000
    2          7             0       -1.127893    0.295559    0.000000
    3          7             0       -0.004743    1.054875    0.000000
    4          1             0       -0.065522    2.070413    0.000000
    5          7             0        0.630514   -1.022464    0.000000
    6          6             0        1.069916    0.225413    0.000000
    7          1             0        2.107870    0.549845    0.000000
 ---------------------------------------------------------------------
                    Distance matrix (angstroms):
                    1          2          3          4          5
     1  N    0.000000
     2  N    1.291539   0.000000
     3  N    2.120146   1.355738   0.000000
     4  H    3.079443   2.068511   1.017355   0.000000
     5  N    1.369420   2.197539   2.172300   3.170230   0.000000
     6  C    2.146768   2.198927   1.357534   2.166390   1.322978
     7  H    3.208335   3.245739   2.172139   2.652501   2.157484
                    6          7
     6  C    0.000000
     7  H    1.087477   0.000000
 Stoichiometry    CH2N4
 Framework group  CS[SG(CH2N4)]
 Deg. of freedom    11
 Full point group                 CS      NOp   2
 Largest Abelian subgroup         CS      NOp   2
 Largest concise Abelian subgroup C1      NOp   1
                         Standard orientation:                         
 ---------------------------------------------------------------------
 Center     Atomic     Atomic              Coordinates (Angstroms)
 Number     Number      Type              X           Y           Z
 ---------------------------------------------------------------------
    1          7             0       -0.729550   -0.928092    0.000000
    2          7             0       -1.122452    0.302234    0.000000
    3          7             0        0.000000    1.062580    0.000000
    4          1             0       -0.061711    2.078062    0.000000
    5          7             0        0.637162   -1.014176    0.000000
    6          6             0        1.075419    0.234104    0.000000
    7          1             0        2.113076    0.559488    0.000000
 ---------------------------------------------------------------------
 Rotational constants (GHZ):     10.4003537     10.2527102      5.1630021
 Leave Link  202 at Thu Mar 25 13:39:26 2004, MaxMem=   56000000 cpu:       0.2
 (Enter /usr/local/apps/g03b05/g03/l301.exe)
 Standard basis: 6-31+G(d,p) (6D, 7F)
 There are    78 symmetry adapted basis functions of A'  symmetry.
 There are    27 symmetry adapted basis functions of A"  symmetry.
 Integral buffers will be    131072 words long.
 Raffenetti 2 integral format.
 Two-electron integral symmetry is turned on.
   105 basis functions,   174 primitive gaussians,   105 cartesian basis functions
    18 alpha electrons       18 beta electrons
       nuclear repulsion energy       165.8411902011 Hartrees.
 IExCor=1009 DFT=T Ex=PBE Corr=PBE ExCW=0 ScaHFX=  0.000000
 ScaDFX=  1.000000  1.000000  1.000000  1.000000
 IRadAn=      0 IRanWt=     -1 IRanGd=            0 ICorTp=0
 NAtoms=    7 NActive=    7 NUniq=    7 SFac= 1.00D+00 NAtFMM=   60 Big=F
 Leave Link  301 at Thu Mar 25 13:39:26 2004, MaxMem=   56000000 cpu:       0.2
 (Enter /usr/local/apps/g03b05/g03/l302.exe)
 NPDir=0 NMtPBC=     1 NCelOv=     1 NCel=       1 NClECP=     1 NCelD=      1
         NCelK=      1 NCelE2=     1 NClLst=     1 CellRange=     0.0.
 One-electron integrals computed using PRISM.
 NBasis=   105 RedAO= T  NBF=    78    27
 NBsUse=   105 1.00D-06 NBFU=    78    27
 Precomputing XC quadrature grid using
 IXCGrd= 2 IRadAn=           0 IRanWt=          -1 IRanGd=           0.
 NRdTot=     446 NPtTot=       56566 NUsed=       59717 NTot=       59749
 NSgBfM=   105   105   105   105.
 Leave Link  302 at Thu Mar 25 13:39:27 2004, MaxMem=   56000000 cpu:       0.6
 (Enter /usr/local/apps/g03b05/g03/l303.exe)
 DipDrv:  MaxL=1.
 Leave Link  303 at Thu Mar 25 13:39:27 2004, MaxMem=   56000000 cpu:       0.1
 (Enter /usr/local/apps/g03b05/g03/l401.exe)
 Initial guess read from the read-write file:
 Guess basis will be translated and rotated to current coordinates.
 Initial guess orbital symmetries:
       Occupied  (A') (A') (A') (A') (A') (A') (A') (A') (A') (A')
                 (A') (A") (A') (A') (A") (A") (A') (A')
       Virtual   (A") (A') (A") (A') (A') (A") (A') (A') (A') (A")
                 (A") (A') (A') (A') (A') (A') (A") (A') (A') (A")
                 (A') (A') (A') (A') (A') (A') (A') (A') (A') (A")
                 (A') (A') (A') (A') (A') (A") (A") (A') (A") (A')
                 (A') (A") (A') (A') (A') (A') (A") (A') (A') (A")
                 (A') (A") (A') (A") (A") (A') (A') (A') (A') (A')
                 (A") (A') (A') (A") (A") (A') (A") (A') (A') (A")
                 (A') (A') (A") (A') (A") (A') (A') (A') (A') (A')
                 (A') (A') (A') (A') (A') (A') (A')
 The electronic state of the initial guess is 1-A'.
 Generating alternative initial guess.
 Harris functional with IExCor= 1009 diagonalized for initial guess.
 ExpMin= 4.38D-02 ExpMax= 4.17D+03 ExpMxC= 6.27D+02 IAcc=2 IRadAn=         4 AccDes= 0.00D+00
 HarFok:  IExCor=1009 AccDes= 0.00D+00 IRadAn=         4 IDoV=1
 ScaDFX=  1.000000  1.000000  1.000000  1.000000
 Harris En= -258.064775902432    
 Leave Link  401 at Thu Mar 25 13:39:29 2004, MaxMem=   56000000 cpu:       2.1
 (Enter /usr/local/apps/g03b05/g03/l502.exe)
 Closed shell SCF:
 Requested convergence on RMS density matrix=1.00D-08 within 128 cycles.
 Requested convergence on MAX density matrix=1.00D-06.
 Requested convergence on             energy=1.00D-06.
 No special actions if energy rises.
 Using DIIS extrapolation, IDIIS=  1040.
 Integral symmetry usage will be decided dynamically.
        59716 words used for storage of precomputed grid.
 Keep R1 integrals in memory in canonical form, NReq=    17019559.
 IEnd=    116695 IEndB=    116695 NGot=  56000000 MDV=  40423667
 LenX=  40423667
 Symmetry not used in FoFDir.
 MinBra= 0 MaxBra= 2 Meth= 1.
 IRaf=       0 NMat=   1 IRICut=       1 DoRegI=T DoRafI=F ISym2E= 0 JSym2E=0.

 Cycle   1  Pass 1  IDiag  1:
 E= -257.994327686451    
 DIIS: error= 3.68D-03 at cycle   1 NSaved=   1.
 NSaved= 1 IEnMin= 1 EnMin= -257.994327686451     IErMin= 1 ErrMin= 3.68D-03
 ErrMax= 3.68D-03 EMaxC= 1.00D-01 BMatC= 1.84D-03 BMatP= 1.84D-03
 IDIUse=3 WtCom= 9.63D-01 WtEn= 3.68D-02
 Coeff-Com:  0.100D+01
 Coeff-En:   0.100D+01
 Coeff:      0.100D+01
 Gap=     0.189 Goal=   None    Shift=    0.000
 GapD=    0.189 DampG=1.000 DampE=1.000 DampFc=1.0000 IDamp=-1.
 RMSDP=1.39D-03 MaxDP=3.81D-02              OVMax= 1.80D-02

 Cycle   2  Pass 1  IDiag  1:
 E= -257.996267332609     Delta-E=       -0.001939646158 Rises=F Damp=F
 DIIS: error= 1.95D-03 at cycle   2 NSaved=   2.
 NSaved= 2 IEnMin= 2 EnMin= -257.996267332609     IErMin= 2 ErrMin= 1.95D-03
 ErrMax= 1.95D-03 EMaxC= 1.00D-01 BMatC= 4.80D-04 BMatP= 1.84D-03
 IDIUse=3 WtCom= 9.80D-01 WtEn= 1.95D-02
 Coeff-Com:  0.292D+00 0.708D+00
 Coeff-En:   0.000D+00 0.100D+01
 Coeff:      0.287D+00 0.713D+00
 Gap=     0.185 Goal=   None    Shift=    0.000
 RMSDP=6.97D-04 MaxDP=1.49D-02 DE=-1.94D-03 OVMax= 9.09D-03

 Cycle   3  Pass 1  IDiag  1:
 E= -257.996469948924     Delta-E=       -0.000202616315 Rises=F Damp=F
 DIIS: error= 1.65D-03 at cycle   3 NSaved=   3.
 NSaved= 3 IEnMin= 3 EnMin= -257.996469948924     IErMin= 3 ErrMin= 1.65D-03
 ErrMax= 1.65D-03 EMaxC= 1.00D-01 BMatC= 2.78D-04 BMatP= 4.80D-04
 IDIUse=3 WtCom= 9.84D-01 WtEn= 1.65D-02
 Coeff-Com:  0.545D-01 0.432D+00 0.513D+00
 Coeff-En:   0.000D+00 0.368D+00 0.632D+00
 Coeff:      0.536D-01 0.431D+00 0.515D+00
 Gap=     0.188 Goal=   None    Shift=    0.000
 RMSDP=2.44D-04 MaxDP=5.54D-03 DE=-2.03D-04 OVMax= 8.35D-03

 Cycle   4  Pass 1  IDiag  1:
 E= -257.996629447493     Delta-E=       -0.000159498569 Rises=F Damp=F
 DIIS: error= 1.10D-03 at cycle   4 NSaved=   4.
 NSaved= 4 IEnMin= 4 EnMin= -257.996629447493     IErMin= 4 ErrMin= 1.10D-03
 ErrMax= 1.10D-03 EMaxC= 1.00D-01 BMatC= 1.02D-04 BMatP= 2.78D-04
 IDIUse=3 WtCom= 9.89D-01 WtEn= 1.10D-02
 Coeff-Com:  0.143D-01 0.269D+00 0.402D+00 0.315D+00
 Coeff-En:   0.000D+00 0.000D+00 0.276D+00 0.724D+00
 Coeff:      0.141D-01 0.266D+00 0.401D+00 0.319D+00
 Gap=     0.186 Goal=   None    Shift=    0.000
 RMSDP=1.72D-04 MaxDP=3.22D-03 DE=-1.59D-04 OVMax= 4.30D-03

 Cycle   5  Pass 1  IDiag  1:
 E= -257.996721038412     Delta-E=       -0.000091590919 Rises=F Damp=F
 DIIS: error= 2.62D-04 at cycle   5 NSaved=   5.
 NSaved= 5 IEnMin= 5 EnMin= -257.996721038412     IErMin= 5 ErrMin= 2.62D-04
 ErrMax= 2.62D-04 EMaxC= 1.00D-01 BMatC= 3.21D-06 BMatP= 1.02D-04
 IDIUse=3 WtCom= 9.97D-01 WtEn= 2.62D-03
 Coeff-Com:  0.432D-02 0.126D+00 0.200D+00 0.204D+00 0.466D+00
 Coeff-En:   0.000D+00 0.000D+00 0.000D+00 0.000D+00 0.100D+01
 Coeff:      0.431D-02 0.126D+00 0.200D+00 0.203D+00 0.467D+00
 Gap=     0.187 Goal=   None    Shift=    0.000
 RMSDP=2.92D-05 MaxDP=5.91D-04 DE=-9.16D-05 OVMax= 9.43D-04

 Cycle   6  Pass 1  IDiag  1:
 E= -257.996723265951     Delta-E=       -0.000002227539 Rises=F Damp=F
 DIIS: error= 1.18D-04 at cycle   6 NSaved=   6.
 NSaved= 6 IEnMin= 6 EnMin= -257.996723265951     IErMin= 6 ErrMin= 1.18D-04
 ErrMax= 1.18D-04 EMaxC= 1.00D-01 BMatC= 8.52D-07 BMatP= 3.21D-06
 IDIUse=3 WtCom= 9.99D-01 WtEn= 1.18D-03
 Coeff-Com:  0.703D-03 0.437D-01 0.757D-01 0.969D-01 0.363D+00 0.420D+00
 Coeff-En:   0.000D+00 0.000D+00 0.000D+00 0.000D+00 0.219D+00 0.781D+00
 Coeff:      0.702D-03 0.437D-01 0.756D-01 0.968D-01 0.363D+00 0.421D+00
 Gap=     0.187 Goal=   None    Shift=    0.000
 RMSDP=1.15D-05 MaxDP=3.16D-04 DE=-2.23D-06 OVMax= 3.96D-04

 Cycle   7  Pass 1  IDiag  1:
 E= -257.996723953800     Delta-E=       -0.000000687850 Rises=F Damp=F
 DIIS: error= 1.90D-05 at cycle   7 NSaved=   7.
 NSaved= 7 IEnMin= 7 EnMin= -257.996723953800     IErMin= 7 ErrMin= 1.90D-05
 ErrMax= 1.90D-05 EMaxC= 1.00D-01 BMatC= 2.74D-08 BMatP= 8.52D-07
 IDIUse=1 WtCom= 1.00D+00 WtEn= 0.00D+00
 Coeff-Com:  0.192D-03 0.191D-01 0.345D-01 0.448D-01 0.185D+00 0.245D+00
 Coeff-Com:  0.471D+00
 Coeff:      0.192D-03 0.191D-01 0.345D-01 0.448D-01 0.185D+00 0.245D+00
 Coeff:      0.471D+00
 Gap=     0.187 Goal=   None    Shift=    0.000
 RMSDP=3.48D-06 MaxDP=6.31D-05 DE=-6.88D-07 OVMax= 1.24D-04

 Cycle   8  Pass 1  IDiag  1:
 E= -257.996723975128     Delta-E=       -0.000000021327 Rises=F Damp=F
 DIIS: error= 7.57D-06 at cycle   8 NSaved=   8.
 NSaved= 8 IEnMin= 8 EnMin= -257.996723975128     IErMin= 8 ErrMin= 7.57D-06
 ErrMax= 7.57D-06 EMaxC= 1.00D-01 BMatC= 7.90D-09 BMatP= 2.74D-08
 IDIUse=1 WtCom= 1.00D+00 WtEn= 0.00D+00
 Coeff-Com: -0.610D-05 0.392D-02 0.823D-02 0.110D-01 0.578D-01 0.906D-01
 Coeff-Com:  0.350D+00 0.478D+00
 Coeff:     -0.610D-05 0.392D-02 0.823D-02 0.110D-01 0.578D-01 0.906D-01
 Coeff:      0.350D+00 0.478D+00
 Gap=     0.187 Goal=   None    Shift=    0.000
 RMSDP=1.49D-06 MaxDP=2.90D-05 DE=-2.13D-08 OVMax= 3.71D-05

 Cycle   9  Pass 1  IDiag  1:
 E= -257.996723982651     Delta-E=       -0.000000007524 Rises=F Damp=F
 DIIS: error= 1.50D-06 at cycle   9 NSaved=   9.
 NSaved= 9 IEnMin= 9 EnMin= -257.996723982651     IErMin= 9 ErrMin= 1.50D-06
 ErrMax= 1.50D-06 EMaxC= 1.00D-01 BMatC= 1.78D-10 BMatP= 7.90D-09
 IDIUse=1 WtCom= 1.00D+00 WtEn= 0.00D+00
 Coeff-Com: -0.707D-05 0.194D-02 0.418D-02 0.560D-02 0.303D-01 0.492D-01
 Coeff-Com:  0.197D+00 0.285D+00 0.427D+00
 Coeff:     -0.707D-05 0.194D-02 0.418D-02 0.560D-02 0.303D-01 0.492D-01
 Coeff:      0.197D+00 0.285D+00 0.427D+00
 Gap=     0.187 Goal=   None    Shift=    0.000
 RMSDP=2.23D-07 MaxDP=4.13D-06 DE=-7.52D-09 OVMax= 6.92D-06

 Cycle  10  Pass 1  IDiag  1:
 E= -257.996723982773     Delta-E=       -0.000000000121 Rises=F Damp=F
 DIIS: error= 7.63D-07 at cycle  10 NSaved=  10.
 NSaved=10 IEnMin=10 EnMin= -257.996723982773     IErMin=10 ErrMin= 7.63D-07
 ErrMax= 7.63D-07 EMaxC= 1.00D-01 BMatC= 4.15D-11 BMatP= 1.78D-10
 IDIUse=1 WtCom= 1.00D+00 WtEn= 0.00D+00
 Coeff-Com: -0.253D-05 0.458D-03 0.102D-02 0.142D-02 0.789D-02 0.140D-01
 Coeff-Com:  0.576D-01 0.903D-01 0.321D+00 0.506D+00
 Coeff:     -0.253D-05 0.458D-03 0.102D-02 0.142D-02 0.789D-02 0.140D-01
 Coeff:      0.576D-01 0.903D-01 0.321D+00 0.506D+00
 Gap=     0.187 Goal=   None    Shift=    0.000
 RMSDP=7.27D-08 MaxDP=1.43D-06 DE=-1.21D-10 OVMax= 2.24D-06

 Cycle  11  Pass 1  IDiag  1:
 E= -257.996723982812     Delta-E=       -0.000000000040 Rises=F Damp=F
 DIIS: error= 7.76D-08 at cycle  11 NSaved=  11.
 NSaved=11 IEnMin=11 EnMin= -257.996723982812     IErMin=11 ErrMin= 7.76D-08
 ErrMax= 7.76D-08 EMaxC= 1.00D-01 BMatC= 3.66D-13 BMatP= 4.15D-11
 IDIUse=1 WtCom= 1.00D+00 WtEn= 0.00D+00
 Coeff-Com: -0.624D-06 0.663D-04 0.149D-03 0.242D-03 0.122D-02 0.237D-02
 Coeff-Com:  0.102D-01 0.153D-01 0.813D-01 0.154D+00 0.735D+00
 Coeff:     -0.624D-06 0.663D-04 0.149D-03 0.242D-03 0.122D-02 0.237D-02
 Coeff:      0.102D-01 0.153D-01 0.813D-01 0.154D+00 0.735D+00
 Gap=     0.187 Goal=   None    Shift=    0.000
 RMSDP=1.24D-08 MaxDP=1.57D-07 DE=-3.96D-11 OVMax= 2.98D-07

 Cycle  12  Pass 1  IDiag  1:
 E= -257.996723982811     Delta-E=        0.000000000001 Rises=F Damp=F
 DIIS: error= 4.56D-09 at cycle  12 NSaved=  12.
 NSaved=12 IEnMin=11 EnMin= -257.996723982812     IErMin=12 ErrMin= 4.56D-09
 ErrMax= 4.56D-09 EMaxC= 1.00D-01 BMatC= 3.20D-15 BMatP= 3.66D-13
 IDIUse=1 WtCom= 1.00D+00 WtEn= 0.00D+00
 Coeff-Com: -0.717D-07 0.574D-05 0.127D-04 0.259D-04 0.120D-03 0.244D-03
 Coeff-Com:  0.120D-02 0.163D-02 0.123D-01 0.274D-01 0.178D+00 0.779D+00
 Coeff:     -0.717D-07 0.574D-05 0.127D-04 0.259D-04 0.120D-03 0.244D-03
 Coeff:      0.120D-02 0.163D-02 0.123D-01 0.274D-01 0.178D+00 0.779D+00
 Gap=     0.187 Goal=   None    Shift=    0.000
 RMSDP=1.18D-09 MaxDP=1.96D-08 DE= 1.08D-12 OVMax= 1.85D-08

 SCF Done:  E(RPBE-PBE) =  -257.996723983     A.U. after   12 cycles
             Convg  =    0.1176D-08             -V/T =  2.0091
             S**2   =   0.0000
 KE= 2.556613270646D+02 PE=-9.328817559073D+02 EE= 2.533825146588D+02
 Leave Link  502 at Thu Mar 25 13:40:09 2004, MaxMem=   56000000 cpu:      39.1
 (Enter /usr/local/apps/g03b05/g03/l701.exe)
 Compute integral first derivatives.
 ... and contract with generalized density number  0.
 Leave Link  701 at Thu Mar 25 13:40:09 2004, MaxMem=   56000000 cpu:       0.5
 (Enter /usr/local/apps/g03b05/g03/l702.exe)
 L702 exits ... SP integral derivatives will be done elsewhere.
 Leave Link  702 at Thu Mar 25 13:40:10 2004, MaxMem=   56000000 cpu:       0.0
 (Enter /usr/local/apps/g03b05/g03/l703.exe)
 Compute integral first derivatives, UseDBF=F.
 Integral derivatives from FoFDir, PRISM(SPDF).
 Calling FoFCou, ICntrl=  2527 FMM=F ISym2X=1 I1Cent= 0 ISCF1= 0.
 FoFCou: FMM=F IPFlag=           0 FMFlag=           0 FMFlg1=           0
 NFxFlg=           0 DoJE=F BraDBF=F KetDBF=F FulRan=T.
 Petite list used in FoFCou.
 Leave Link  703 at Thu Mar 25 13:40:32 2004, MaxMem=   56000000 cpu:      22.0
 (Enter /usr/local/apps/g03b05/g03/l716.exe)
 Dipole        = 1.00548759D+00 1.89051814D+00 0.00000000D+00
 ***** Axes restored to original set *****
 -------------------------------------------------------------------
 Center     Atomic                   Forces (Hartrees/Bohr)
 Number     Number              X              Y              Z
 -------------------------------------------------------------------
    1          7           0.001771928   -0.009120829    0.000000000
    2          7          -0.010222881    0.010057475    0.000000000
    3          7           0.004878531   -0.001472606    0.000000000
    4          1          -0.000226867    0.000702610    0.000000000
    5          7           0.003061972   -0.004242980    0.000000000
    6          6           0.000919620    0.004171948    0.000000000
    7          1          -0.000182303   -0.000095618    0.000000000
 -------------------------------------------------------------------
 Cartesian Forces:  Max     0.010222881 RMS     0.004164332
 Leave Link  716 at Thu Mar 25 13:40:32 2004, MaxMem=   56000000 cpu:       0.0
 (Enter /usr/local/apps/g03b05/g03/l103.exe)

 GradGradGradGradGradGradGradGradGradGradGradGradGradGradGradGradGradGrad
 Berny optimization.
 Internal  Forces:  Max     0.010819635 RMS     0.002680522
 Search for a local minimum.
 Step number   2 out of a maximum of  36
 All quantities printed in internal units (Hartrees-Bohrs-Radians)
 Update second derivatives using D2CorX and points  1  2
 Trust test= 1.05D+00 RLast= 1.47D-01 DXMaxT set to 4.24D-01
     Eigenvalues ---    0.02505   0.02639   0.02675   0.02834   0.16000
     Eigenvalues ---    0.16000   0.22557   0.24556   0.37787   0.48870
     Eigenvalues ---    0.50898   0.55760   0.58892   0.67091   0.73171
     Eigenvalues --- 1000.000001000.000001000.000001000.000001000.00000
     Eigenvalues --- 1000.000001000.000001000.000001000.000001000.00000
     Eigenvalues --- 1000.00000
 RFO step:  Lambda=-1.87299840D-04.
 Quartic linear search produced a step of  0.13341.
 Iteration  1 RMS(Cart)=  0.00508215 RMS(Int)=  0.00002813
 Iteration  2 RMS(Cart)=  0.00002761 RMS(Int)=  0.00001190
 Iteration  3 RMS(Cart)=  0.00000000 RMS(Int)=  0.00001190
 Variable       Old X    -DE/DX   Delta X   Delta X   Delta X     New X
                                 (Linear)    (Quad)   (Total)
    R1        2.44066   0.01082   0.00993   0.00758   0.01752   2.45818
    R2        2.58783   0.00325   0.00708   0.00162   0.00870   2.59653
    R3        2.56197   0.00417   0.00746   0.00186   0.00933   2.57130
    R4        1.92252   0.00071   0.00586  -0.00295   0.00291   1.92544
    R5        2.56537   0.00017   0.00690  -0.00655   0.00034   2.56571
    R6        2.50007   0.00345   0.00848  -0.00215   0.00631   2.50638
    R7        2.05503  -0.00020   0.00497  -0.00435   0.00063   2.05566
    A1        1.94281   0.00050  -0.00013   0.00772   0.00760   1.95041
    A2        1.85708  -0.00389  -0.00063  -0.01370  -0.01430   1.84278
    A3        2.10550  -0.00153  -0.00028  -0.00618  -0.00646   2.09903
    A4        1.88978   0.00269   0.00059   0.00974   0.01034   1.90012
    A5        2.28791  -0.00116  -0.00031  -0.00356  -0.00387   2.28403
    A6        1.84554  -0.00062  -0.00007  -0.00438  -0.00448   1.84106
    A7        1.88957   0.00132   0.00024   0.00062   0.00083   1.89040
    A8        2.18131  -0.00063  -0.00015  -0.00008  -0.00021   2.18110
    A9        2.21231  -0.00069  -0.00009  -0.00054  -0.00062   2.21169
    D1        0.00000   0.00000   0.00000   0.00000   0.00000   0.00000
    D2        0.00000   0.00000   0.00000   0.00000   0.00000   0.00000
    D3        3.14159   0.00000   0.00000   0.00000   0.00000   3.14159
    D4        0.00000   0.00000   0.00000   0.00000   0.00000   0.00000
    D5        0.00000   0.00000   0.00000   0.00000   0.00000   0.00000
    D6        3.14159   0.00000   0.00000   0.00000   0.00000   3.14159
    D7        3.14159   0.00000   0.00000   0.00000   0.00000   3.14159
    D8        0.00000   0.00000   0.00000   0.00000   0.00000   0.00000
    D9        0.00000   0.00000   0.00000   0.00000   0.00000   0.00000
   D10        3.14159   0.00000   0.00000   0.00000   0.00000   3.14159
         Item               Value     Threshold  Converged?
 Maximum Force            0.010820     0.000450     NO 
 RMS     Force            0.002681     0.000300     NO 
 Maximum Displacement     0.019294     0.001800     NO 
 RMS     Displacement     0.005083     0.001200     NO 
 Predicted change in Energy=-1.793638D-04
 GradGradGradGradGradGradGradGradGradGradGradGradGradGradGradGradGradGrad

 Leave Link  103 at Thu Mar 25 13:40:32 2004, MaxMem=   56000000 cpu:       0.1
 (Enter /usr/local/apps/g03b05/g03/l202.exe)
                          Input orientation:                          
 ---------------------------------------------------------------------
 Center     Atomic     Atomic              Coordinates (Angstroms)
 Number     Number      Type              X           Y           Z
 ---------------------------------------------------------------------
    1          7             0       -0.736203   -0.936682    0.000000
    2          7             0       -1.138103    0.300487    0.000000
    3          7             0       -0.004509    1.053085    0.000000
    4          1             0       -0.063422    2.070276    0.000000
    5          7             0        0.634876   -1.026641    0.000000
    6          6             0        1.071908    0.225608    0.000000
    7          1             0        2.109475    0.552381    0.000000
 ---------------------------------------------------------------------
                    Distance matrix (angstroms):
                    1          2          3          4          5
     1  N    0.000000
     2  N    1.300811   0.000000
     3  N    2.120034   1.360675   0.000000
     4  H    3.081303   2.070529   1.018896   0.000000
     5  N    1.374027   2.214661   2.175792   3.174668   0.000000
     6  C    2.149461   2.211279   1.357716   2.166051   1.326319
     7  H    3.211727   3.257332   2.172472   2.650563   2.160498
                    6          7
     6  C    0.000000
     7  H    1.087807   0.000000
 Stoichiometry    CH2N4
 Framework group  CS[SG(CH2N4)]
 Deg. of freedom    11
 Full point group                 CS      NOp   2
 Largest Abelian subgroup         CS      NOp   2
 Largest concise Abelian subgroup C1      NOp   1
                         Standard orientation:                         
 ---------------------------------------------------------------------
 Center     Atomic     Atomic              Coordinates (Angstroms)
 Number     Number      Type              X           Y           Z
 ---------------------------------------------------------------------
    1          7             0       -0.728165   -0.929864    0.000000
    2          7             0       -1.132257    0.306590    0.000000
    3          7             0        0.000000    1.061196    0.000000
    4          1             0       -0.060716    2.078282    0.000000
    5          7             0        0.643072   -1.017392    0.000000
    6          6             0        1.077883    0.235629    0.000000
    7          1             0        2.114869    0.564241    0.000000
 ---------------------------------------------------------------------
 Rotational constants (GHZ):     10.3861860     10.1415879      5.1312148
 Leave Link  202 at Thu Mar 25 13:40:32 2004, MaxMem=   56000000 cpu:       0.2
 (Enter /usr/local/apps/g03b05/g03/l301.exe)
 Standard basis: 6-31+G(d,p) (6D, 7F)
 There are    78 symmetry adapted basis functions of A'  symmetry.
 There are    27 symmetry adapted basis functions of A"  symmetry.
 Integral buffers will be    131072 words long.
 Raffenetti 2 integral format.
 Two-electron integral symmetry is turned on.
   105 basis functions,   174 primitive gaussians,   105 cartesian basis functions
    18 alpha electrons       18 beta electrons
       nuclear repulsion energy       165.3234704741 Hartrees.
 IExCor=1009 DFT=T Ex=PBE Corr=PBE ExCW=0 ScaHFX=  0.000000
 ScaDFX=  1.000000  1.000000  1.000000  1.000000
 IRadAn=      0 IRanWt=     -1 IRanGd=            0 ICorTp=0
 NAtoms=    7 NActive=    7 NUniq=    7 SFac= 1.00D+00 NAtFMM=   60 Big=F
 Leave Link  301 at Thu Mar 25 13:40:33 2004, MaxMem=   56000000 cpu:       0.1
 (Enter /usr/local/apps/g03b05/g03/l302.exe)
 NPDir=0 NMtPBC=     1 NCelOv=     1 NCel=       1 NClECP=     1 NCelD=      1
         NCelK=      1 NCelE2=     1 NClLst=     1 CellRange=     0.0.
 One-electron integrals computed using PRISM.
 NBasis=   105 RedAO= T  NBF=    78    27
 NBsUse=   105 1.00D-06 NBFU=    78    27
 Precomputing XC quadrature grid using
 IXCGrd= 2 IRadAn=           0 IRanWt=          -1 IRanGd=           0.
 NRdTot=     446 NPtTot=       56566 NUsed=       59717 NTot=       59749
 NSgBfM=   105   105   105   105.
 Leave Link  302 at Thu Mar 25 13:40:33 2004, MaxMem=   56000000 cpu:       0.6
 (Enter /usr/local/apps/g03b05/g03/l303.exe)
 DipDrv:  MaxL=1.
 Leave Link  303 at Thu Mar 25 13:40:34 2004, MaxMem=   56000000 cpu:       0.0
 (Enter /usr/local/apps/g03b05/g03/l401.exe)
 Initial guess read from the read-write file:
 Guess basis will be translated and rotated to current coordinates.
 Initial guess orbital symmetries:
       Occupied  (A') (A') (A') (A') (A') (A') (A') (A') (A') (A')
                 (A') (A') (A") (A') (A") (A") (A') (A')
       Virtual   (A") (A") (A') (A') (A') (A") (A') (A') (A') (A")
                 (A') (A") (A') (A') (A') (A') (A") (A') (A') (A")
                 (A') (A') (A') (A') (A') (A') (A') (A') (A') (A")
                 (A') (A') (A') (A') (A') (A") (A") (A') (A") (A')
                 (A') (A") (A') (A') (A') (A') (A') (A") (A') (A")
                 (A') (A") (A') (A") (A") (A') (A') (A') (A') (A')
                 (A') (A") (A') (A") (A") (A') (A') (A") (A') (A")
                 (A') (A") (A') (A') (A") (A') (A') (A') (A') (A')
                 (A') (A') (A') (A') (A') (A') (A')
 The electronic state of the initial guess is 1-A'.
 Leave Link  401 at Thu Mar 25 13:40:34 2004, MaxMem=   56000000 cpu:       0.2
 (Enter /usr/local/apps/g03b05/g03/l502.exe)
 Closed shell SCF:
 Requested convergence on RMS density matrix=1.00D-08 within 128 cycles.
 Requested convergence on MAX density matrix=1.00D-06.
 Requested convergence on             energy=1.00D-06.
 No special actions if energy rises.
 Using DIIS extrapolation, IDIIS=  1040.
 Integral symmetry usage will be decided dynamically.
        59716 words used for storage of precomputed grid.
 Keep R1 integrals in memory in canonical form, NReq=    17019559.
 IEnd=    116695 IEndB=    116695 NGot=  56000000 MDV=  40423667
 LenX=  40423667
 Symmetry not used in FoFDir.
 MinBra= 0 MaxBra= 2 Meth= 1.
 IRaf=       0 NMat=   1 IRICut=       1 DoRegI=T DoRafI=F ISym2E= 0 JSym2E=0.

 Cycle   1  Pass 1  IDiag  1:
 E= -257.996775581395    
 DIIS: error= 6.29D-04 at cycle   1 NSaved=   1.
 NSaved= 1 IEnMin= 1 EnMin= -257.996775581395     IErMin= 1 ErrMin= 6.29D-04
 ErrMax= 6.29D-04 EMaxC= 1.00D-01 BMatC= 7.97D-05 BMatP= 7.97D-05
 IDIUse=3 WtCom= 9.94D-01 WtEn= 6.29D-03
 Coeff-Com:  0.100D+01
 Coeff-En:   0.100D+01
 Coeff:      0.100D+01
 Gap=     0.185 Goal=   None    Shift=    0.000
 RMSDP=3.39D-04 MaxDP=8.85D-03              OVMax= 4.36D-03

 Cycle   2  Pass 1  IDiag  1:
 E= -257.996886280887     Delta-E=       -0.000110699492 Rises=F Damp=F
 DIIS: error= 3.60D-04 at cycle   2 NSaved=   2.
 NSaved= 2 IEnMin= 2 EnMin= -257.996886280887     IErMin= 2 ErrMin= 3.60D-04
 ErrMax= 3.60D-04 EMaxC= 1.00D-01 BMatC= 1.77D-05 BMatP= 7.97D-05
 IDIUse=3 WtCom= 9.96D-01 WtEn= 3.60D-03
 Coeff-Com:  0.249D+00 0.751D+00
 Coeff-En:   0.000D+00 0.100D+01
 Coeff:      0.249D+00 0.751D+00
 Gap=     0.186 Goal=   None    Shift=    0.000
 RMSDP=2.17D-04 MaxDP=4.87D-03 DE=-1.11D-04 OVMax= 3.51D-03

 Cycle   3  Pass 1  IDiag  1:
 E= -257.996868921325     Delta-E=        0.000017359562 Rises=F Damp=F
 DIIS: error= 6.75D-04 at cycle   3 NSaved=   3.
 NSaved= 3 IEnMin= 2 EnMin= -257.996886280887     IErMin= 2 ErrMin= 3.60D-04
 ErrMax= 6.75D-04 EMaxC= 1.00D-01 BMatC= 3.51D-05 BMatP= 1.77D-05
 IDIUse=3 WtCom= 2.78D-01 WtEn= 7.22D-01
 Coeff-Com:  0.464D-01 0.574D+00 0.380D+00
 Coeff-En:   0.000D+00 0.637D+00 0.363D+00
 Coeff:      0.129D-01 0.620D+00 0.367D+00
 Gap=     0.185 Goal=   None    Shift=    0.000
 RMSDP=1.07D-04 MaxDP=2.26D-03 DE= 1.74D-05 OVMax= 2.66D-03

 Cycle   4  Pass 1  IDiag  1:
 E= -257.996900177601     Delta-E=       -0.000031256276 Rises=F Damp=F
 DIIS: error= 1.20D-04 at cycle   4 NSaved=   4.
 NSaved= 4 IEnMin= 4 EnMin= -257.996900177601     IErMin= 4 ErrMin= 1.20D-04
 ErrMax= 1.20D-04 EMaxC= 1.00D-01 BMatC= 2.31D-06 BMatP= 1.77D-05
 IDIUse=3 WtCom= 9.99D-01 WtEn= 1.20D-03
 Coeff-Com:  0.611D-02 0.342D+00 0.240D+00 0.412D+00
 Coeff-En:   0.000D+00 0.000D+00 0.000D+00 0.100D+01
 Coeff:      0.611D-02 0.341D+00 0.240D+00 0.413D+00
 Gap=     0.186 Goal=   None    Shift=    0.000
 RMSDP=2.46D-05 MaxDP=5.18D-04 DE=-3.13D-05 OVMax= 5.25D-04

 Cycle   5  Pass 1  IDiag  1:
 E= -257.996902109671     Delta-E=       -0.000001932069 Rises=F Damp=F
 DIIS: error= 5.34D-05 at cycle   5 NSaved=   5.
 NSaved= 5 IEnMin= 5 EnMin= -257.996902109671     IErMin= 5 ErrMin= 5.34D-05
 ErrMax= 5.34D-05 EMaxC= 1.00D-01 BMatC= 2.14D-07 BMatP= 2.31D-06
 IDIUse=1 WtCom= 1.00D+00 WtEn= 0.00D+00
 Coeff-Com:  0.256D-02 0.210D+00 0.154D+00 0.289D+00 0.345D+00
 Coeff:      0.256D-02 0.210D+00 0.154D+00 0.289D+00 0.345D+00
 Gap=     0.185 Goal=   None    Shift=    0.000
 RMSDP=6.56D-06 MaxDP=1.00D-04 DE=-1.93D-06 OVMax= 2.24D-04

 Cycle   6  Pass 1  IDiag  1:
 E= -257.996902293444     Delta-E=       -0.000000183773 Rises=F Damp=F
 DIIS: error= 2.16D-05 at cycle   6 NSaved=   6.
 NSaved= 6 IEnMin= 6 EnMin= -257.996902293444     IErMin= 6 ErrMin= 2.16D-05
 ErrMax= 2.16D-05 EMaxC= 1.00D-01 BMatC= 2.57D-08 BMatP= 2.14D-07
 IDIUse=1 WtCom= 1.00D+00 WtEn= 0.00D+00
 Coeff-Com:  0.433D-03 0.739D-01 0.604D-01 0.115D+00 0.251D+00 0.499D+00
 Coeff:      0.433D-03 0.739D-01 0.604D-01 0.115D+00 0.251D+00 0.499D+00
 Gap=     0.185 Goal=   None    Shift=    0.000
 RMSDP=2.59D-06 MaxDP=4.27D-05 DE=-1.84D-07 OVMax= 7.15D-05

 Cycle   7  Pass 1  IDiag  1:
 E= -257.996902315804     Delta-E=       -0.000000022360 Rises=F Damp=F
 DIIS: error= 6.68D-06 at cycle   7 NSaved=   7.
 NSaved= 7 IEnMin= 7 EnMin= -257.996902315804     IErMin= 7 ErrMin= 6.68D-06
 ErrMax= 6.68D-06 EMaxC= 1.00D-01 BMatC= 2.94D-09 BMatP= 2.57D-08
 IDIUse=1 WtCom= 1.00D+00 WtEn= 0.00D+00
 Coeff-Com:  0.188D-03 0.321D-01 0.280D-01 0.539D-01 0.141D+00 0.340D+00
 Coeff-Com:  0.405D+00
 Coeff:      0.188D-03 0.321D-01 0.280D-01 0.539D-01 0.141D+00 0.340D+00
 Coeff:      0.405D+00
 Gap=     0.185 Goal=   None    Shift=    0.000
 RMSDP=6.35D-07 MaxDP=1.78D-05 DE=-2.24D-08 OVMax= 1.76D-05

 Cycle   8  Pass 1  IDiag  1:
 E= -257.996902318098     Delta-E=       -0.000000002294 Rises=F Damp=F
 DIIS: error= 1.08D-06 at cycle   8 NSaved=   8.
 NSaved= 8 IEnMin= 8 EnMin= -257.996902318098     IErMin= 8 ErrMin= 1.08D-06
 ErrMax= 1.08D-06 EMaxC= 1.00D-01 BMatC= 1.55D-10 BMatP= 2.94D-09
 IDIUse=1 WtCom= 1.00D+00 WtEn= 0.00D+00
 Coeff-Com: -0.127D-04 0.659D-02 0.621D-02 0.128D-01 0.380D-01 0.108D+00
 Coeff-Com:  0.227D+00 0.602D+00
 Coeff:     -0.127D-04 0.659D-02 0.621D-02 0.128D-01 0.380D-01 0.108D+00
 Coeff:      0.227D+00 0.602D+00
 Gap=     0.185 Goal=   None    Shift=    0.000
 RMSDP=2.28D-07 MaxDP=5.85D-06 DE=-2.29D-09 OVMax= 4.64D-06

 Cycle   9  Pass 1  IDiag  1:
 E= -257.996902318211     Delta-E=       -0.000000000113 Rises=F Damp=F
 DIIS: error= 5.50D-07 at cycle   9 NSaved=   9.
 NSaved= 9 IEnMin= 9 EnMin= -257.996902318211     IErMin= 9 ErrMin= 5.50D-07
 ErrMax= 5.50D-07 EMaxC= 1.00D-01 BMatC= 2.61D-11 BMatP= 1.55D-10
 IDIUse=1 WtCom= 1.00D+00 WtEn= 0.00D+00
 Coeff-Com: -0.726D-05 0.328D-02 0.320D-02 0.686D-02 0.217D-01 0.637D-01
 Coeff-Com:  0.144D+00 0.415D+00 0.342D+00
 Coeff:     -0.726D-05 0.328D-02 0.320D-02 0.686D-02 0.217D-01 0.637D-01
 Coeff:      0.144D+00 0.415D+00 0.342D+00
 Gap=     0.185 Goal=   None    Shift=    0.000
 RMSDP=5.82D-08 MaxDP=1.28D-06 DE=-1.13D-10 OVMax= 2.51D-06

 Cycle  10  Pass 1  IDiag  1:
 E= -257.996902318232     Delta-E=       -0.000000000021 Rises=F Damp=F
 DIIS: error= 1.06D-07 at cycle  10 NSaved=  10.
 NSaved=10 IEnMin=10 EnMin= -257.996902318232     IErMin=10 ErrMin= 1.06D-07
 ErrMax= 1.06D-07 EMaxC= 1.00D-01 BMatC= 7.56D-13 BMatP= 2.61D-11
 IDIUse=1 WtCom= 1.00D+00 WtEn= 0.00D+00
 Coeff-Com: -0.165D-05 0.847D-03 0.811D-03 0.186D-02 0.621D-02 0.179D-01
 Coeff-Com:  0.445D-01 0.131D+00 0.179D+00 0.618D+00
 Coeff:     -0.165D-05 0.847D-03 0.811D-03 0.186D-02 0.621D-02 0.179D-01
 Coeff:      0.445D-01 0.131D+00 0.179D+00 0.618D+00
 Gap=     0.185 Goal=   None    Shift=    0.000
 RMSDP=1.57D-08 MaxDP=2.37D-07 DE=-2.10D-11 OVMax= 5.05D-07

 Cycle  11  Pass 1  IDiag  1:
 E= -257.996902318236     Delta-E=       -0.000000000004 Rises=F Damp=F
 DIIS: error= 5.55D-09 at cycle  11 NSaved=  11.
 NSaved=11 IEnMin=11 EnMin= -257.996902318236     IErMin=11 ErrMin= 5.55D-09
 ErrMax= 5.55D-09 EMaxC= 1.00D-01 BMatC= 5.15D-15 BMatP= 7.56D-13
 IDIUse=1 WtCom= 1.00D+00 WtEn= 0.00D+00
 Coeff-Com: -0.296D-06 0.891D-04 0.827D-04 0.201D-03 0.779D-03 0.205D-02
 Coeff-Com:  0.560D-02 0.163D-01 0.278D-01 0.145D+00 0.802D+00
 Coeff:     -0.296D-06 0.891D-04 0.827D-04 0.201D-03 0.779D-03 0.205D-02
 Coeff:      0.560D-02 0.163D-01 0.278D-01 0.145D+00 0.802D+00
 Gap=     0.185 Goal=   None    Shift=    0.000
 RMSDP=1.32D-09 MaxDP=1.83D-08 DE=-3.75D-12 OVMax= 2.72D-08

 SCF Done:  E(RPBE-PBE) =  -257.996902318     A.U. after   11 cycles
             Convg  =    0.1322D-08             -V/T =  2.0093
             S**2   =   0.0000
 KE= 2.556069960056D+02 PE=-9.318164510524D+02 EE= 2.528890822545D+02
 Leave Link  502 at Thu Mar 25 13:41:10 2004, MaxMem=   56000000 cpu:      35.8
 (Enter /usr/local/apps/g03b05/g03/l701.exe)
 Compute integral first derivatives.
 ... and contract with generalized density number  0.
 Leave Link  701 at Thu Mar 25 13:41:11 2004, MaxMem=   56000000 cpu:       0.5
 (Enter /usr/local/apps/g03b05/g03/l702.exe)
 L702 exits ... SP integral derivatives will be done elsewhere.
 Leave Link  702 at Thu Mar 25 13:41:11 2004, MaxMem=   56000000 cpu:       0.0
 (Enter /usr/local/apps/g03b05/g03/l703.exe)
 Compute integral first derivatives, UseDBF=F.
 Integral derivatives from FoFDir, PRISM(SPDF).
 Calling FoFCou, ICntrl=  2527 FMM=F ISym2X=1 I1Cent= 0 ISCF1= 0.
 FoFCou: FMM=F IPFlag=           0 FMFlag=           0 FMFlg1=           0
 NFxFlg=           0 DoJE=F BraDBF=F KetDBF=F FulRan=T.
 Petite list used in FoFCou.
 Leave Link  703 at Thu Mar 25 13:41:33 2004, MaxMem=   56000000 cpu:      21.9
 (Enter /usr/local/apps/g03b05/g03/l716.exe)
 Dipole        = 1.00962291D+00 1.89082946D+00 0.00000000D+00
 ***** Axes restored to original set *****
 -------------------------------------------------------------------
 Center     Atomic                   Forces (Hartrees/Bohr)
 Number     Number              X              Y              Z
 -------------------------------------------------------------------
    1          7           0.000316948   -0.004858570    0.000000000
    2          7           0.001404062    0.001678114    0.000000000
    3          7           0.002242253    0.000798580    0.000000000
    4          1           0.000253808   -0.000343932    0.000000000
    5          7          -0.001961992    0.000631113    0.000000000
    6          6          -0.001840499    0.002099674    0.000000000
    7          1          -0.000414579   -0.000004980    0.000000000
 -------------------------------------------------------------------
 Cartesian Forces:  Max     0.004858570 RMS     0.001488966
 Leave Link  716 at Thu Mar 25 13:41:33 2004, MaxMem=   56000000 cpu:       0.0
 (Enter /usr/local/apps/g03b05/g03/l103.exe)

 GradGradGradGradGradGradGradGradGradGradGradGradGradGradGradGradGradGrad
 Berny optimization.
 Internal  Forces:  Max     0.002910548 RMS     0.001172080
 Search for a local minimum.
 Step number   3 out of a maximum of  36
 All quantities printed in internal units (Hartrees-Bohrs-Radians)
 Update second derivatives using D2CorX and points  1  2  3
 Trust test= 9.94D-01 RLast= 3.11D-02 DXMaxT set to 4.24D-01
     Eigenvalues ---    0.02506   0.02638   0.02674   0.02834   0.15997
     Eigenvalues ---    0.16023   0.22860   0.32273   0.37618   0.39250
     Eigenvalues ---    0.49373   0.52267   0.63052   0.66039   0.69868
     Eigenvalues --- 1000.000001000.000001000.000001000.000001000.00000
     Eigenvalues --- 1000.000001000.000001000.000001000.000001000.00000
     Eigenvalues --- 1000.00000
 RFO step:  Lambda=-8.18293634D-05.
 Quartic linear search produced a step of -0.06647.
 Iteration  1 RMS(Cart)=  0.00312964 RMS(Int)=  0.00000689
 Iteration  2 RMS(Cart)=  0.00000512 RMS(Int)=  0.00000331
 Iteration  3 RMS(Cart)=  0.00000000 RMS(Int)=  0.00000331
 Variable       Old X    -DE/DX   Delta X   Delta X   Delta X     New X
                                 (Linear)    (Quad)   (Total)
    R1        2.45818   0.00263  -0.00116   0.00800   0.00683   2.46501
    R2        2.59653  -0.00146  -0.00058   0.00014  -0.00043   2.59610
    R3        2.57130   0.00047  -0.00062   0.00334   0.00272   2.57402
    R4        1.92544  -0.00036  -0.00019   0.00016  -0.00004   1.92540
    R5        2.56571  -0.00287  -0.00002  -0.00463  -0.00465   2.56106
    R6        2.50638   0.00127  -0.00042   0.00329   0.00287   2.50925
    R7        2.05566  -0.00040  -0.00004  -0.00076  -0.00080   2.05485
    A1        1.95041  -0.00291  -0.00051  -0.00758  -0.00807   1.94234
    A2        1.84278   0.00183   0.00095   0.00443   0.00537   1.84815
    A3        2.09903   0.00074   0.00043   0.00215   0.00259   2.10162
    A4        1.90012  -0.00104  -0.00069  -0.00240  -0.00310   1.89702
    A5        2.28403   0.00030   0.00026   0.00025   0.00051   2.28454
    A6        1.84106   0.00142   0.00030   0.00377   0.00408   1.84514
    A7        1.89040   0.00069  -0.00006   0.00178   0.00172   1.89212
    A8        2.18110  -0.00048   0.00001  -0.00161  -0.00159   2.17951
    A9        2.21169  -0.00021   0.00004  -0.00018  -0.00013   2.21155
    D1        0.00000   0.00000   0.00000   0.00000   0.00000   0.00000
    D2        0.00000   0.00000   0.00000   0.00000   0.00000   0.00000
    D3        3.14159   0.00000   0.00000   0.00000   0.00000   3.14159
    D4        0.00000   0.00000   0.00000   0.00000   0.00000   0.00000
    D5        0.00000   0.00000   0.00000   0.00000   0.00000   0.00000
    D6        3.14159   0.00000   0.00000   0.00000   0.00000   3.14159
    D7        3.14159   0.00000   0.00000   0.00000   0.00000   3.14159
    D8        0.00000   0.00000   0.00000   0.00000   0.00000   0.00000
    D9        0.00000   0.00000   0.00000   0.00000   0.00000   0.00000
   D10        3.14159   0.00000   0.00000   0.00000   0.00000   3.14159
         Item               Value     Threshold  Converged?
 Maximum Force            0.002911     0.000450     NO 
 RMS     Force            0.001172     0.000300     NO 
 Maximum Displacement     0.011036     0.001800     NO 
 RMS     Displacement     0.003131     0.001200     NO 
 Predicted change in Energy=-4.180579D-05
 GradGradGradGradGradGradGradGradGradGradGradGradGradGradGradGradGradGrad

 Leave Link  103 at Thu Mar 25 13:41:34 2004, MaxMem=   56000000 cpu:       0.1
 (Enter /usr/local/apps/g03b05/g03/l202.exe)
                          Input orientation:                          
 ---------------------------------------------------------------------
 Center     Atomic     Atomic              Coordinates (Angstroms)
 Number     Number      Type              X           Y           Z
 ---------------------------------------------------------------------
    1          7             0       -0.737935   -0.942521    0.000000
    2          7             0       -1.136269    0.299597    0.000000
    3          7             0       -0.002684    1.054802    0.000000
    4          1             0       -0.060590    2.072033    0.000000
    5          7             0        0.633289   -1.026566    0.000000
    6          6             0        1.070541    0.227216    0.000000
    7          1             0        2.107672    0.553955    0.000000
 ---------------------------------------------------------------------
                    Distance matrix (angstroms):
                    1          2          3          4          5
     1  N    0.000000
     2  N    1.304426   0.000000
     3  N    2.128355   1.362113   0.000000
     4  H    3.089714   2.073310   1.018877   0.000000
     5  N    1.373797   2.211344   2.176363   3.175340   0.000000
     6  C    2.153803   2.207997   1.355253   2.163980   1.327839
     7  H    3.215108   3.253898   2.168975   2.646870   2.161447
                    6          7
     6  C    0.000000
     7  H    1.087382   0.000000
 Stoichiometry    CH2N4
 Framework group  CS[SG(CH2N4)]
 Deg. of freedom    11
 Full point group                 CS      NOp   2
 Largest Abelian subgroup         CS      NOp   2
 Largest concise Abelian subgroup C1      NOp   1
                         Standard orientation:                         
 ---------------------------------------------------------------------
 Center     Atomic     Atomic              Coordinates (Angstroms)
 Number     Number      Type              X           Y           Z
 ---------------------------------------------------------------------
    1          7             0       -0.728034   -0.936447    0.000000
    2          7             0       -1.130851    0.304225    0.000000
    3          7             0        0.000000    1.063519    0.000000
    4          1             0       -0.061578    2.080534    0.000000
    5          7             0        0.643484   -1.015540    0.000000
    6          6             0        1.076206    0.239812    0.000000
    7          1             0        2.112151    0.570294    0.000000
 ---------------------------------------------------------------------
 Rotational constants (GHZ):     10.3253067     10.1770261      5.1253151
 Leave Link  202 at Thu Mar 25 13:41:34 2004, MaxMem=   56000000 cpu:       0.3
 (Enter /usr/local/apps/g03b05/g03/l301.exe)
 Standard basis: 6-31+G(d,p) (6D, 7F)
 There are    78 symmetry adapted basis functions of A'  symmetry.
 There are    27 symmetry adapted basis functions of A"  symmetry.
 Integral buffers will be    131072 words long.
 Raffenetti 2 integral format.
 Two-electron integral symmetry is turned on.
   105 basis functions,   174 primitive gaussians,   105 cartesian basis functions
    18 alpha electrons       18 beta electrons
       nuclear repulsion energy       165.2215025277 Hartrees.
 IExCor=1009 DFT=T Ex=PBE Corr=PBE ExCW=0 ScaHFX=  0.000000
 ScaDFX=  1.000000  1.000000  1.000000  1.000000
 IRadAn=      0 IRanWt=     -1 IRanGd=            0 ICorTp=0
 NAtoms=    7 NActive=    7 NUniq=    7 SFac= 1.00D+00 NAtFMM=   60 Big=F
 Leave Link  301 at Thu Mar 25 13:41:34 2004, MaxMem=   56000000 cpu:       0.2
 (Enter /usr/local/apps/g03b05/g03/l302.exe)
 NPDir=0 NMtPBC=     1 NCelOv=     1 NCel=       1 NClECP=     1 NCelD=      1
         NCelK=      1 NCelE2=     1 NClLst=     1 CellRange=     0.0.
 One-electron integrals computed using PRISM.
 NBasis=   105 RedAO= T  NBF=    78    27
 NBsUse=   105 1.00D-06 NBFU=    78    27
 Precomputing XC quadrature grid using
 IXCGrd= 2 IRadAn=           0 IRanWt=          -1 IRanGd=           0.
 NRdTot=     446 NPtTot=       56566 NUsed=       59717 NTot=       59749
 NSgBfM=   105   105   105   105.
 Leave Link  302 at Thu Mar 25 13:41:35 2004, MaxMem=   56000000 cpu:       0.6
 (Enter /usr/local/apps/g03b05/g03/l303.exe)
 DipDrv:  MaxL=1.
 Leave Link  303 at Thu Mar 25 13:41:35 2004, MaxMem=   56000000 cpu:       0.0
 (Enter /usr/local/apps/g03b05/g03/l401.exe)
 Initial guess read from the read-write file:
 Guess basis will be translated and rotated to current coordinates.
 Initial guess orbital symmetries:
       Occupied  (A') (A') (A') (A') (A') (A') (A') (A') (A') (A')
                 (A') (A') (A") (A') (A") (A") (A') (A')
       Virtual   (A") (A") (A') (A') (A') (A") (A') (A') (A') (A")
                 (A') (A") (A') (A') (A') (A') (A") (A') (A') (A")
                 (A') (A') (A') (A') (A') (A') (A') (A') (A') (A")
                 (A') (A') (A') (A') (A') (A") (A") (A') (A") (A')
                 (A') (A") (A') (A') (A') (A') (A') (A") (A') (A")
                 (A') (A") (A') (A") (A") (A') (A') (A') (A') (A')
                 (A') (A") (A') (A") (A") (A') (A') (A") (A') (A")
                 (A') (A") (A') (A') (A") (A') (A') (A') (A') (A')
                 (A') (A') (A') (A') (A') (A') (A')
 The electronic state of the initial guess is 1-A'.
 Leave Link  401 at Thu Mar 25 13:41:36 2004, MaxMem=   56000000 cpu:       0.2
 (Enter /usr/local/apps/g03b05/g03/l502.exe)
 Closed shell SCF:
 Requested convergence on RMS density matrix=1.00D-08 within 128 cycles.
 Requested convergence on MAX density matrix=1.00D-06.
 Requested convergence on             energy=1.00D-06.
 No special actions if energy rises.
 Using DIIS extrapolation, IDIIS=  1040.
 Integral symmetry usage will be decided dynamically.
        59716 words used for storage of precomputed grid.
 Keep R1 integrals in memory in canonical form, NReq=    17019559.
 IEnd=    116695 IEndB=    116695 NGot=  56000000 MDV=  40423667
 LenX=  40423667
 Symmetry not used in FoFDir.
 MinBra= 0 MaxBra= 2 Meth= 1.
 IRaf=       0 NMat=   1 IRICut=       1 DoRegI=T DoRafI=F ISym2E= 0 JSym2E=0.

 Cycle   1  Pass 1  IDiag  1:
 E= -257.996894028117    
 DIIS: error= 3.26D-04 at cycle   1 NSaved=   1.
 NSaved= 1 IEnMin= 1 EnMin= -257.996894028117     IErMin= 1 ErrMin= 3.26D-04
 ErrMax= 3.26D-04 EMaxC= 1.00D-01 BMatC= 2.12D-05 BMatP= 2.12D-05
 IDIUse=3 WtCom= 9.97D-01 WtEn= 3.26D-03
 Coeff-Com:  0.100D+01
 Coeff-En:   0.100D+01
 Coeff:      0.100D+01
 Gap=     0.186 Goal=   None    Shift=    0.000
 RMSDP=1.33D-04 MaxDP=1.69D-03              OVMax= 2.30D-03

[...]
    7          1           0.000015690   -0.000019687    0.000000000
 -------------------------------------------------------------------
 Cartesian Forces:  Max     0.000436570 RMS     0.000161362
 Force constants in Cartesian coordinates: 
                1             2             3             4             5
      1  0.394689D+00
      2  0.558214D-01  0.538867D+00
      3  0.000000D+00  0.000000D+00  0.114912D+00
      4 -0.117397D+00  0.330704D-01  0.000000D+00  0.488916D+00
      5  0.904541D-01 -0.286475D+00  0.000000D+00 -0.852620D-01  0.446647D+00
      6  0.000000D+00  0.000000D+00 -0.888330D-01  0.000000D+00  0.000000D+00
      7 -0.219776D-01 -0.735101D-01  0.000000D+00 -0.197055D+00 -0.451634D-01
      8 -0.373101D-02 -0.141437D+00  0.000000D+00 -0.170602D-01 -0.103532D+00
      9  0.000000D+00  0.000000D+00  0.237141D-01  0.000000D+00  0.000000D+00
     10 -0.891018D-02 -0.101276D-01  0.000000D+00  0.143543D-01 -0.267508D-01
     11  0.336429D-03 -0.105804D-02  0.000000D+00  0.579310D-02 -0.902207D-02
     12  0.000000D+00  0.000000D+00  0.743261D-02  0.000000D+00  0.000000D+00
     13 -0.172572D+00  0.988708D-02  0.000000D+00 -0.814624D-01  0.108973D+00
     14 -0.300670D-01 -0.897901D-01  0.000000D+00  0.127945D-01 -0.414327D-01
     15  0.000000D+00  0.000000D+00 -0.836749D-01  0.000000D+00  0.000000D+00
     16 -0.742720D-01 -0.170839D-01  0.000000D+00 -0.106927D+00 -0.423154D-01
     17 -0.108161D+00 -0.150070D-01  0.000000D+00  0.465553D-01 -0.233301D-03
     18  0.000000D+00  0.000000D+00  0.181377D-01  0.000000D+00  0.000000D+00
     19  0.440211D-03  0.194273D-02  0.000000D+00 -0.429276D-03  0.643766D-04
     20 -0.465241D-02 -0.510040D-02  0.000000D+00  0.410894D-02 -0.595245D-02
     21  0.000000D+00  0.000000D+00  0.831157D-02  0.000000D+00  0.000000D+00
                6             7             8             9            10
      6  0.104886D+00
      7  0.000000D+00  0.521415D+00
      8  0.000000D+00 -0.908555D-01  0.949222D+00
      9 -0.619869D-01  0.000000D+00  0.000000D+00  0.828509D-01
     10  0.000000D+00 -0.665670D-01  0.316023D-01  0.000000D+00  0.548548D-01
     11  0.000000D+00  0.258527D-01 -0.438622D+00  0.000000D+00 -0.229036D-01
     12 -0.113189D-01  0.000000D+00  0.000000D+00 -0.622621D-02  0.000000D+00
     13  0.000000D+00  0.191320D-01 -0.259882D-01  0.000000D+00 -0.633815D-02
     14  0.000000D+00  0.775355D-01 -0.962411D-01  0.000000D+00  0.860336D-02
     15  0.330249D-01  0.000000D+00  0.000000D+00  0.189089D-01  0.000000D+00
     16  0.000000D+00 -0.243045D+00  0.114968D+00  0.000000D+00  0.131544D-01
     17  0.000000D+00  0.823155D-01 -0.181055D+00  0.000000D+00  0.197829D-01
     18  0.183585D-01  0.000000D+00  0.000000D+00 -0.536908D-01  0.000000D+00
     19  0.000000D+00 -0.119025D-01 -0.893533D-02  0.000000D+00 -0.548200D-03
     20  0.000000D+00  0.238253D-01  0.116662D-01  0.000000D+00 -0.206482D-03
     21  0.586989D-02  0.000000D+00  0.000000D+00 -0.357009D-02  0.000000D+00
               11            12            13            14            15
     11  0.450897D+00
     12  0.000000D+00  0.128867D-01
     13 -0.250853D-02  0.000000D+00  0.365378D+00
     14 -0.454267D-03  0.000000D+00  0.540656D-02  0.567945D+00
     15  0.000000D+00  0.706292D-02  0.000000D+00  0.000000D+00  0.101299D+00
     16 -0.696868D-02  0.000000D+00 -0.123582D+00 -0.731259D-01  0.000000D+00
     17 -0.153918D-02  0.000000D+00 -0.688113D-01 -0.340085D+00  0.000000D+00
     18  0.000000D+00 -0.927794D-02  0.000000D+00  0.000000D+00 -0.713384D-01
     19  0.398569D-03  0.000000D+00 -0.555880D-03 -0.114696D-02  0.000000D+00
     20 -0.201444D-03  0.000000D+00 -0.269588D-01  0.582461D-04  0.000000D+00
     21  0.000000D+00 -0.559253D-03  0.000000D+00  0.000000D+00 -0.528207D-02
               16            17            18            19            20
     16  0.859951D+00
     17  0.110878D+00  0.613744D+00
     18  0.000000D+00  0.000000D+00  0.123012D+00
     19 -0.325280D+00 -0.825587D-01  0.000000D+00  0.338275D+00
     20 -0.863519D-01 -0.758238D-01  0.000000D+00  0.902353D-01  0.753536D-01
     21  0.000000D+00  0.000000D+00 -0.252012D-01  0.000000D+00  0.000000D+00
               21
     21  0.204311D-01
 Force constants in internal coordinates: 
                1             2             3             4             5
      1  0.376501D+00
      2  0.407700D-01  0.254857D+00
      3  0.456703D-01  0.575073D-01  0.294971D+00
      4 -0.161433D-02 -0.441533D-02  0.262743D-02  0.452218D+00
      5  0.675197D-01  0.356846D-01  0.211998D-01 -0.105965D-02  0.384826D+00
      6  0.605030D-01  0.339920D-01  0.407100D-01  0.113355D-02  0.338178D-01
      7 -0.330541D-02 -0.124034D-02  0.428694D-03  0.353713D-03  0.257803D-02
      8 -0.468162D-01 -0.356354D-01 -0.393409D-01 -0.215945D-02  0.119795D+00
      9 -0.245295D-01 -0.116216D-01 -0.223863D-01  0.568850D-02 -0.311164D-01
     10  0.426609D-02 -0.358854D-01  0.148940D-01  0.359220D-02  0.101031D-01
     11 -0.120591D-01  0.703945D-01 -0.871333D-02 -0.760462D-02 -0.333380D-01
     12  0.779301D-02 -0.345091D-01 -0.618070D-02  0.401242D-02  0.232349D-01
     13 -0.153789D-02 -0.631443D-02  0.104645D+00 -0.185480D-03 -0.277538D-01
     14  0.849427D-01 -0.168230D-01 -0.342044D-01  0.426105D-02 -0.275869D-01
     15 -0.411976D-01  0.107140D-01  0.113319D-01 -0.181037D-02  0.287684D-01
     16 -0.437451D-01  0.610900D-02  0.228725D-01 -0.245069D-02 -0.118148D-02
     17  0.000000D+00  0.000000D+00  0.000000D+00  0.000000D+00  0.000000D+00
     18  0.000000D+00  0.000000D+00  0.000000D+00  0.000000D+00  0.000000D+00
     19  0.000000D+00  0.000000D+00  0.000000D+00  0.000000D+00  0.000000D+00
     20  0.000000D+00  0.000000D+00  0.000000D+00  0.000000D+00  0.000000D+00
     21  0.000000D+00  0.000000D+00  0.000000D+00  0.000000D+00  0.000000D+00
     22  0.000000D+00  0.000000D+00  0.000000D+00  0.000000D+00  0.000000D+00
     23  0.000000D+00  0.000000D+00  0.000000D+00  0.000000D+00  0.000000D+00
     24  0.000000D+00  0.000000D+00  0.000000D+00  0.000000D+00  0.000000D+00
     25  0.000000D+00  0.000000D+00  0.000000D+00  0.000000D+00  0.000000D+00
     26  0.000000D+00  0.000000D+00  0.000000D+00  0.000000D+00  0.000000D+00
                6             7             8             9            10
      6  0.433754D+00
      7  0.584679D-02  0.366257D+00
      8 -0.256825D-01 -0.151681D-02  0.223523D+00
      9  0.130333D+00  0.118092D-02 -0.146394D+00  0.193091D+00
     10  0.193989D-01 -0.211981D-02 -0.321476D-01  0.602341D-01  0.853910D-01
     11 -0.338080D-01  0.317075D-02  0.397198D-01 -0.102534D+00 -0.667372D-01
     12  0.144091D-01 -0.105094D-02 -0.757225D-02  0.423000D-01 -0.186538D-01
     13 -0.475815D-01  0.472501D-02 -0.139812D+00  0.518200D-01  0.998245D-02
     14 -0.232606D-01 -0.755988D-02  0.229636D-01  0.401699D-02  0.286682D-01
     15 -0.549548D-03  0.493392D-02 -0.286296D-02 -0.954478D-02 -0.153615D-01
     16  0.238101D-01  0.262596D-02 -0.201006D-01  0.552779D-02 -0.133067D-01
     17  0.000000D+00  0.000000D+00  0.000000D+00  0.000000D+00  0.000000D+00
     18  0.000000D+00  0.000000D+00  0.000000D+00  0.000000D+00  0.000000D+00
     19  0.000000D+00  0.000000D+00  0.000000D+00  0.000000D+00  0.000000D+00
     20  0.000000D+00  0.000000D+00  0.000000D+00  0.000000D+00  0.000000D+00
     21  0.000000D+00  0.000000D+00  0.000000D+00  0.000000D+00  0.000000D+00
     22  0.000000D+00  0.000000D+00  0.000000D+00  0.000000D+00  0.000000D+00
     23  0.000000D+00  0.000000D+00  0.000000D+00  0.000000D+00  0.000000D+00
     24  0.000000D+00  0.000000D+00  0.000000D+00  0.000000D+00  0.000000D+00
     25  0.000000D+00  0.000000D+00  0.000000D+00  0.000000D+00  0.000000D+00
     26  0.000000D+00  0.000000D+00  0.000000D+00  0.000000D+00  0.000000D+00
               11            12            13            14            15
     11  0.123753D+00
     12 -0.570160D-01  0.756697D-01
     13  0.944999D-03 -0.109274D-01  0.170970D+00
     14 -0.618839D-01  0.332157D-01 -0.839227D-01  0.118826D+00
     15  0.331054D-01 -0.177438D-01  0.384516D-01 -0.591493D-01  0.794496D-01
     16  0.287785D-01 -0.154719D-01  0.454711D-01 -0.596768D-01 -0.203004D-01
     17  0.000000D+00  0.000000D+00  0.000000D+00  0.000000D+00  0.000000D+00
     18  0.000000D+00  0.000000D+00  0.000000D+00  0.000000D+00  0.000000D+00
     19  0.000000D+00  0.000000D+00  0.000000D+00  0.000000D+00  0.000000D+00
     20  0.000000D+00  0.000000D+00  0.000000D+00  0.000000D+00  0.000000D+00
     21  0.000000D+00  0.000000D+00  0.000000D+00  0.000000D+00  0.000000D+00
     22  0.000000D+00  0.000000D+00  0.000000D+00  0.000000D+00  0.000000D+00
     23  0.000000D+00  0.000000D+00  0.000000D+00  0.000000D+00  0.000000D+00
     24  0.000000D+00  0.000000D+00  0.000000D+00  0.000000D+00  0.000000D+00
     25  0.000000D+00  0.000000D+00  0.000000D+00  0.000000D+00  0.000000D+00
     26  0.000000D+00  0.000000D+00  0.000000D+00  0.000000D+00  0.000000D+00
               16            17            18            19            20
     16  0.799772D-01
     17  0.000000D+00  0.251921D-01
     18  0.000000D+00 -0.216929D-01  0.267457D-01
     19  0.000000D+00 -0.109261D-01  0.739567D-02  0.907733D-02
     20  0.000000D+00 -0.192009D-01  0.849184D-02  0.103345D-01  0.226527D-01
     21  0.000000D+00  0.623982D-02  0.793224D-02 -0.602656D-02 -0.180217D-01
     22  0.000000D+00  0.817683D-02 -0.362275D-02 -0.725027D-03 -0.964037D-02
     23  0.000000D+00 -0.320487D-02  0.918339D-02 -0.459162D-02 -0.396193D-02
     24  0.000000D+00 -0.126787D-02 -0.237159D-02  0.709915D-03  0.441942D-02
     25  0.000000D+00  0.868204D-02 -0.202549D-01 -0.576637D-03  0.612362D-02
     26  0.000000D+00  0.670342D-02 -0.845167D-02 -0.599207D-02 -0.243780D-02
               21            22            23            24            25
     21  0.234936D-01
     22  0.766404D-02  0.124723D-01
     23  0.980247D-02 -0.251181D-02  0.105212D-01
     24 -0.602707D-02  0.229643D-02 -0.179309D-02  0.653041D-02
     25 -0.189291D-01 -0.259757D-02 -0.112815D-01  0.505001D-02  0.232375D-01
     26 -0.275941D-02 -0.750913D-02  0.129738D-02 -0.345233D-02  0.655511D-02
               26
     26  0.114069D-01
 Leave Link  716 at Thu Mar 25 13:51:40 2004, MaxMem=   56000000 cpu:       0.1
 (Enter /usr/local/apps/g03b05/g03/l103.exe)

 GradGradGradGradGradGradGradGradGradGradGradGradGradGradGradGradGradGrad
 Berny optimization.
 Internal  Forces:  Max     0.000339214 RMS     0.000101358
 Search for a local minimum.
 Step number   1 out of a maximum of   2
 All quantities printed in internal units (Hartrees-Bohrs-Radians)
 Second derivative matrix not updated -- analytic derivatives used.
     Eigenvalues ---    0.00760   0.02309   0.06701   0.07364   0.09471
     Eigenvalues ---    0.09854   0.18104   0.22640   0.32558   0.36334
     Eigenvalues ---    0.39868   0.44021   0.45663   0.53878   0.59012
     Eigenvalues --- 1000.000001000.000001000.000001000.000001000.00000
     Eigenvalues --- 1000.000001000.000001000.000001000.000001000.00000
     Eigenvalues --- 1000.00000
 Angle between quadratic step and forces=  26.42 degrees.
 Linear search not attempted -- first point.
 Iteration  1 RMS(Cart)=  0.00027443 RMS(Int)=  0.00000004
 Iteration  2 RMS(Cart)=  0.00000003 RMS(Int)=  0.00000001
 Variable       Old X    -DE/DX   Delta X   Delta X   Delta X     New X
                                 (Linear)    (Quad)   (Total)
    R1        2.46509   0.00018   0.00000   0.00067   0.00067   2.46576
    R2        2.59151  -0.00034   0.00000  -0.00149  -0.00149   2.59002
    R3        2.57184  -0.00010   0.00000  -0.00044  -0.00044   2.57141
    R4        1.92435   0.00007   0.00000   0.00015   0.00015   1.92450
    R5        2.55884   0.00013   0.00000   0.00027   0.00027   2.55910
    R6        2.50811   0.00026   0.00000   0.00067   0.00067   2.50877
    R7        2.05459   0.00001   0.00000   0.00000   0.00000   2.05459
    A1        1.94523   0.00003   0.00000   0.00009   0.00009   1.94532
    A2        1.84468   0.00008   0.00000  -0.00003  -0.00003   1.84465
    A3        2.10002   0.00005   0.00000   0.00004   0.00004   2.10006
    A4        1.89917  -0.00010   0.00000   0.00001   0.00001   1.89918
    A5        2.28400   0.00005   0.00000  -0.00005  -0.00005   2.28394
    A6        1.84424   0.00001   0.00000   0.00030   0.00030   1.84454
    A7        1.89147  -0.00002   0.00000  -0.00038  -0.00038   1.89108
    A8        2.18113   0.00003   0.00000   0.00041   0.00041   2.18154
    A9        2.21059  -0.00001   0.00000  -0.00002  -0.00002   2.21057
    D1        0.00000   0.00000   0.00000   0.00000   0.00000   0.00000
    D2        0.00000   0.00000   0.00000   0.00000   0.00000   0.00000
    D3        3.14159   0.00000   0.00000   0.00000   0.00000   3.14159
    D4        0.00000   0.00000   0.00000   0.00000   0.00000   0.00000
    D5        0.00000   0.00000   0.00000   0.00000   0.00000   0.00000
    D6        3.14159   0.00000   0.00000   0.00000   0.00000   3.14159
    D7        3.14159   0.00000   0.00000   0.00000   0.00000   3.14159
    D8        0.00000   0.00000   0.00000   0.00000   0.00000   0.00000
    D9        0.00000   0.00000   0.00000   0.00000   0.00000   0.00000
   D10        3.14159   0.00000   0.00000   0.00000   0.00000   3.14159
         Item               Value     Threshold  Converged?
 Maximum Force            0.000339     0.000450     YES
 RMS     Force            0.000101     0.000300     YES
 Maximum Displacement     0.000760     0.001800     YES
 RMS     Displacement     0.000274     0.001200     YES
 Predicted change in Energy=-4.516683D-07
 Optimization completed.
    -- Stationary point found.
                           ----------------------------
                           !   Optimized Parameters   !
                           ! (Angstroms and Degrees)  !
 --------------------------                            --------------------------
 ! Name  Definition              Value          Derivative Info.                !
 --------------------------------------------------------------------------------
 ! R1    R(1,2)                  1.3045         -DE/DX =    0.0002              !
 ! R2    R(1,5)                  1.3714         -DE/DX =   -0.0003              !
 ! R3    R(2,3)                  1.361          -DE/DX =   -0.0001              !
 ! R4    R(3,4)                  1.0183         -DE/DX =    0.0001              !
 ! R5    R(3,6)                  1.3541         -DE/DX =    0.0001              !
 ! R6    R(5,6)                  1.3272         -DE/DX =    0.0003              !
 ! R7    R(6,7)                  1.0872         -DE/DX =    0.0                 !
 ! A1    A(2,1,5)              111.4533         -DE/DX =    0.0                 !
 ! A2    A(1,2,3)              105.6922         -DE/DX =    0.0001              !
 ! A3    A(2,3,4)              120.3223         -DE/DX =    0.0001              !
 ! A4    A(2,3,6)              108.8145         -DE/DX =   -0.0001              !
 ! A5    A(4,3,6)              130.8633         -DE/DX =    0.0                 !
 ! A6    A(1,5,6)              105.6669         -DE/DX =    0.0                 !
 ! A7    A(3,6,5)              108.373          -DE/DX =    0.0                 !
 ! A8    A(3,6,7)              124.9696         -DE/DX =    0.0                 !
 ! A9    A(5,6,7)              126.6574         -DE/DX =    0.0                 !
 ! D1    D(5,1,2,3)              0.0            -DE/DX =    0.0                 !
 ! D2    D(2,1,5,6)              0.0            -DE/DX =    0.0                 !
 ! D3    D(1,2,3,4)            180.0            -DE/DX =    0.0                 !
 ! D4    D(1,2,3,6)              0.0            -DE/DX =    0.0                 !
 ! D5    D(2,3,6,5)              0.0            -DE/DX =    0.0                 !
 ! D6    D(2,3,6,7)            180.0            -DE/DX =    0.0                 !
 ! D7    D(4,3,6,5)            180.0            -DE/DX =    0.0                 !
 ! D8    D(4,3,6,7)              0.0            -DE/DX =    0.0                 !
 ! D9    D(1,5,6,3)              0.0            -DE/DX =    0.0                 !
 ! D10   D(1,5,6,7)            180.0            -DE/DX =    0.0                 !
 --------------------------------------------------------------------------------
 GradGradGradGradGradGradGradGradGradGradGradGradGradGradGradGradGradGrad

 Leave Link  103 at Thu Mar 25 13:51:40 2004, MaxMem=   56000000 cpu:       0.1
 (Enter /usr/local/apps/g03b05/g03/l9999.exe)
 1\1\GINC-WIND\Freq\RPBEPBE\6-31+G(d,p)\C1H2N4\RDJ3\25-Mar-2004\0\\#P G
 EOM=ALLCHECK GUESS=READ SCRF=CHECK GENCHK RPBEPBE/6-31+G(D,P) FREQ\\1h
 tz casno=288948 method=61 basis=4\\0,1\N,-0.7293537937,-0.9324445177,0
 .\N,-1.1302366853,0.3089007645,0.\N,0.0034723925,1.0618418837,0.\H,-0.
 0545688392,2.0785102513,0.\N,0.6393733905,-1.0174994418,0.\C,1.0763555
 657,0.2357348976,0.\H,2.1136483177,0.5614895422,0.\\Version=SGI64-G03R
 evB.05\State=1-A'\HF=-257.9969405\RMSD=4.923e-09\RMSF=1.614e-04\Dipole
 =1.0149487,1.8915084,0.\DipoleDeriv=0.189309,-0.0763532,0.,-0.156975,-
 0.1238211,0.,0.,0.,-0.1644653,-0.178278,0.336341,0.,0.3435326,0.140743
 7,0.,0.,0.,-0.0995727,-0.0361012,-0.1529779,0.,-0.0702245,-0.5193161,0
 .,0.,0.,-0.1211286,0.1899466,-0.0088829,0.,-0.0210284,0.2456683,0.,0.,
 0.,0.3369877,-0.3982292,0.0803085,0.,-0.0279313,-0.2455546,0.,0.,0.,-0
 .1885989,0.1610685,-0.1485919,0.,-0.0394852,0.4076647,0.,0.,0.,0.05392
 94,0.0722843,-0.0298436,0.,-0.0278882,0.094615,0.,0.,0.,0.1828482\Pola
 r=46.3804833,0.4510662,45.9991036,0.,0.,24.848348\PG=CS [SG(C1H2N4)]\N
 Imag=0\\0.39468858,0.05582142,0.53886721,0.,0.,0.11491194,-0.11739653,
 0.03307044,0.,0.48891559,0.09045408,-0.28647452,0.,-0.08526197,0.44664
 670,0.,0.,-0.08883301,0.,0.,0.10488553,-0.02197760,-0.07351014,0.,-0.1
 9705481,-0.04516340,0.,0.52141499,-0.00373101,-0.14143716,0.,-0.017060
 20,-0.10353166,0.,-0.09085548,0.94922153,0.,0.,0.02371412,0.,0.,-0.061
 98687,0.,0.,0.08285088,-0.00891018,-0.01012762,0.,0.01435428,-0.026750
 83,0.,-0.06656704,0.03160225,0.,0.05485485,0.00033643,-0.00105804,0.,0
 .00579310,-0.00902207,0.,0.02585268,-0.43862245,0.,-0.02290356,0.45089
 746,0.,0.,0.00743261,0.,0.,-0.01131887,0.,0.,-0.00622621,0.,0.,0.01288
 674,-0.17257246,0.00988708,0.,-0.08146243,0.10897312,0.,0.01913205,-0.
 02598818,0.,-0.00633815,-0.00250853,0.,0.36537848,-0.03006705,-0.08979
 013,0.,0.01279445,-0.04143270,0.,0.07753552,-0.09624110,0.,0.00860336,
 -0.00045427,0.,0.00540656,0.56794501,0.,0.,-0.08367490,0.,0.,0.0330248
 5,0.,0.,0.01890893,0.,0.,0.00706292,0.,0.,0.10129870,-0.07427201,-0.01
 708391,0.,-0.10692682,-0.04231538,0.,-0.24304506,0.11496796,0.,0.01315
 444,-0.00696868,0.,-0.12358160,-0.07312588,0.,0.85995088,-0.10816147,-
 0.01500696,0.,0.04655525,-0.00023330,0.,0.08231547,-0.18105535,0.,0.01
 978289,-0.00153918,0.,-0.06881129,-0.34008506,0.,0.11087785,0.61374364
 ,0.,0.,0.01813766,0.,0.,0.01835848,0.,0.,-0.05369077,0.,0.,-0.00927794
 ,0.,0.,-0.07133843,0.,0.,0.12301219,0.00044021,0.00194273,0.,-0.000429
 28,0.00006438,0.,-0.01190252,-0.00893533,0.,-0.00054820,0.00039857,0.,
 -0.00055588,-0.00114696,0.,-0.32527983,-0.08255871,0.,0.33827550,-0.00
 465241,-0.00510040,0.,0.00410894,-0.00595245,0.,0.02382534,0.01166620,
 0.,-0.00020648,-0.00020144,0.,-0.02695877,0.00005825,0.,-0.08635195,-0
 .07582378,0.,0.09023533,0.07535363,0.,0.,0.00831157,0.,0.,0.00586989,0
 .,0.,-0.00357009,0.,0.,-0.00055925,0.,0.,-0.00528207,0.,0.,-0.02520119
 ,0.,0.,0.02043114\\-0.00036663,0.00018459,0.,-0.00010318,-0.00016228,0
 .,0.00021341,-0.00005986,0.,-0.00000576,-0.00006903,0.,0.00043657,0.00
 022676,0.,-0.00015872,-0.00013986,0.,-0.00001569,0.00001969,0.\\\@


 MEN HAVE BECOME THE TOOLS OF THEIR TOOLS... THOREAU   
 Job cpu time:  0 days  0 hours  7 minutes  9.3 seconds.
 File lengths (MBytes):  RWF=     20 Int=      0 D2E=      0 Chk=      6 Scr=      1
 Normal termination of Gaussian 03 at Thu Mar 25 13:51:40 2004.
