 Entering Gaussian System, Link 0=g03
 Initial command:
 /usr/local/apps/g03b05/g03/l1.exe /wrk/rdj3/Gau-16124.inp -scrdir=/wrk/rdj3/
 Entering Link 1 = /usr/local/apps/g03b05/g03/l1.exe PID=     23242.
  
 Copyright (c) 1988,1990,1992,1993,1995,1998,2003, Gaussian, Inc.
                  All Rights Reserved.
  
 This is the Gaussian(R) 03 program.  It is based on the
 the Gaussian(R) 98 system (copyright 1998, Gaussian, Inc.),
 the Gaussian(R) 94 system (copyright 1995, Gaussian, Inc.),
 the Gaussian 92(TM) system (copyright 1992, Gaussian, Inc.),
 the Gaussian 90(TM) system (copyright 1990, Gaussian, Inc.),
 the Gaussian 88(TM) system (copyright 1988, Gaussian, Inc.),
 the Gaussian 86(TM) system (copyright 1986, Carnegie Mellon
 University), and the Gaussian 82(TM) system (copyright 1983,
 Carnegie Mellon University). Gaussian is a federally registered
 trademark of Gaussian, Inc.
  
 This software contains proprietary and confidential information,
 including trade secrets, belonging to Gaussian, Inc.
  
 This software is provided under written license and may be
 used, copied, transmitted, or stored only in accord with that
 written license.
  
 The following legend is applicable only to US Government
 contracts under DFARS:
  
                    RESTRICTED RIGHTS LEGEND
  
 Use, duplication or disclosure by the US Government is subject
 to restrictions as set forth in subparagraph (c)(1)(ii) of the
 Rights in Technical Data and Computer Software clause at DFARS
 252.227-7013.
  
 Gaussian, Inc.
 Carnegie Office Park, Building 6, Pittsburgh, PA 15106 USA
  
 The following legend is applicable only to US Government
 contracts under FAR:
  
                    RESTRICTED RIGHTS LEGEND
  
 Use, reproduction and disclosure by the US Government is subject
 to restrictions as set forth in subparagraph (c) of the
 Commercial Computer Software - Restricted Rights clause at FAR
 52.227-19.
  
 Gaussian, Inc.
 Carnegie Office Park, Building 6, Pittsburgh, PA 15106 USA
  
  
 ---------------------------------------------------------------
 Warning -- This program may not be used in any manner that
 competes with the business of Gaussian, Inc. or will provide
 assistance to any competitor of Gaussian, Inc.  The licensee
 of this program is prohibited from giving any competitor of
 Gaussian, Inc. access to this program.  By using this program,
 the user acknowledges that Gaussian, Inc. is engaged in the
 business of creating and licensing software in the field of
 computational chemistry and represents and warrants to the
 licensee that it is not a competitor of Gaussian, Inc. and that
 it will not use this program in any manner prohibited above.
 ---------------------------------------------------------------
  

 Cite this work as:
 Gaussian 03, Revision B.05,
 M. J. Frisch, G. W. Trucks, H. B. Schlegel, G. E. Scuseria, 
 M. A. Robb, J. R. Cheeseman, J. A. Montgomery, Jr., T. Vreven, 
 K. N. Kudin, J. C. Burant, J. M. Millam, S. S. Iyengar, J. Tomasi, 
 V. Barone, B. Mennucci, M. Cossi, G. Scalmani, N. Rega, 
 G. A. Petersson, H. Nakatsuji, M. Hada, M. Ehara, K. Toyota, 
 R. Fukuda, J. Hasegawa, M. Ishida, T. Nakajima, Y. Honda, O. Kitao, 
 H. Nakai, M. Klene, X. Li, J. E. Knox, H. P. Hratchian, J. B. Cross, 
 C. Adamo, J. Jaramillo, R. Gomperts, R. E. Stratmann, O. Yazyev, 
 A. J. Austin, R. Cammi, C. Pomelli, J. W. Ochterski, P. Y. Ayala, 
 K. Morokuma, G. A. Voth, P. Salvador, J. J. Dannenberg, 
 V. G. Zakrzewski, S. Dapprich, A. D. Daniels, M. C. Strain, 
 O. Farkas, D. K. Malick, A. D. Rabuck, K. Raghavachari, 
 J. B. Foresman, J. V. Ortiz, Q. Cui, A. G. Baboul, S. Clifford, 
 J. Cioslowski, B. B. Stefanov, G. Liu, A. Liashenko, P. Piskorz, 
 I. Komaromi, R. L. Martin, D. J. Fox, T. Keith, M. A. Al-Laham, 
 C. Y. Peng, A. Nanayakkara, M. Challacombe, P. M. W. Gill, 
 B. Johnson, W. Chen, M. W. Wong, C. Gonzalez, and J. A. Pople, 
 Gaussian, Inc., Pittsburgh PA, 2003.
 
 *************************************************
 Gaussian 03:  IBM64-RS6000-G03RevB.05  8-Nov-2003
                    25-May-2007 
 *************************************************
 %mem=56000000
 -----------------------------
 #PBEPBE/6-31G(2df,p) opt freq
 -----------------------------
 1/14=-1,18=20,26=3,38=1/1,3;
 2/9=110,17=6,18=5,40=1/2;
 3/5=1,6=6,7=104,11=2,16=1,25=1,30=1,74=1009/1,2,3;
 4//1;
 5/5=2,38=5/2;
 6/7=2,8=2,9=2,10=2,28=1/1;
 7//1,2,3,16;
 1/14=-1,18=20/3(1);
 99//99;
 2/9=110/2;
 3/5=1,6=6,7=104,11=2,16=1,25=1,30=1,74=1009/1,2,3;
 4/5=5,16=3/1;
 5/5=2,38=5/2;
 7//1,2,3,16;
 1/14=-1,18=20/3(-5);
 2/9=110/2;
 6/7=2,8=2,9=2,10=2,19=2,28=1/1;
 99/9=1/99;
 Leave Link    1 at Fri May 25 18:54:53 2007, MaxMem=   56000000 cpu:        .2
 (Enter /usr/local/apps/g03b05/g03/l101.exe)
 ------------------------------------
 1htz casno=288948 method=61 basis=19
 ------------------------------------
 Symbolic Z-matrix:
 Charge =  0 Multiplicity = 1
 N                    -0.71631  -0.90193   0. 
 N                    -1.09552   0.29142   0. 
 N                     0.        1.03878   0. 
 H                    -0.06148   2.03099   0. 
 N                     0.62215  -0.9895    0. 
 C                     1.05281   0.22578   0. 
 H                     2.07237   0.54298   0. 
 
                    Isotopes and Nuclear Properties:

  Atom         1           2           3           4           5           6           7
 IAtWgt=          14          14          14           1          14          12           1
 AtmWgt=  14.0030740  14.0030740  14.0030740   1.0078250  14.0030740  12.0000000   1.0078250
 IAtSpn=           2           2           2           1           2           0           1
 AtZEff=    .0000000    .0000000    .0000000    .0000000    .0000000    .0000000    .0000000
 AtQMom=   1.5600000   1.5600000   1.5600000    .0000000   1.5600000    .0000000    .0000000
 AtGFac=    .4037610    .4037610    .4037610   2.7928460    .4037610    .0000000   2.7928460
 Leave Link  101 at Fri May 25 18:54:53 2007, MaxMem=   56000000 cpu:        .1
 (Enter /usr/local/apps/g03b05/g03/l103.exe)

 GradGradGradGradGradGradGradGradGradGradGradGradGradGradGradGradGradGrad
 Berny optimization.
 Initialization pass.
                           ----------------------------
                           !    Initial Parameters    !
                           ! (Angstroms and Degrees)  !
 --------------------------                            --------------------------
 ! Name  Definition              Value          Derivative Info.                !
 --------------------------------------------------------------------------------
 ! R1    R(1,2)                  1.2522         estimate D2E/DX2                !
 ! R2    R(1,5)                  1.3413         estimate D2E/DX2                !
 ! R3    R(2,3)                  1.3262         estimate D2E/DX2                !
 ! R4    R(3,4)                  0.9941         estimate D2E/DX2                !
 ! R5    R(3,6)                  1.3302         estimate D2E/DX2                !
 ! R6    R(5,6)                  1.2893         estimate D2E/DX2                !
 ! R7    R(6,7)                  1.0678         estimate D2E/DX2                !
 ! A1    A(2,1,5)              111.3714         estimate D2E/DX2                !
 ! A2    A(1,2,3)              106.673          estimate D2E/DX2                !
 ! A3    A(2,3,4)              120.7559         estimate D2E/DX2                !
 ! A4    A(2,3,6)              108.0227         estimate D2E/DX2                !
 ! A5    A(4,3,6)              131.2214         estimate D2E/DX2                !
 ! A6    A(1,5,6)              105.7701         estimate D2E/DX2                !
 ! A7    A(3,6,5)              108.1628         estimate D2E/DX2                !
 ! A8    A(3,6,7)              125.0426         estimate D2E/DX2                !
 ! A9    A(5,6,7)              126.7946         estimate D2E/DX2                !
 ! D1    D(5,1,2,3)              0.0            estimate D2E/DX2                !
 ! D2    D(2,1,5,6)              0.0            estimate D2E/DX2                !
 ! D3    D(1,2,3,4)            180.0            estimate D2E/DX2                !
 ! D4    D(1,2,3,6)              0.0            estimate D2E/DX2                !
 ! D5    D(2,3,6,5)              0.0            estimate D2E/DX2                !
 ! D6    D(2,3,6,7)            180.0            estimate D2E/DX2                !
 ! D7    D(4,3,6,5)            180.0            estimate D2E/DX2                !
 ! D8    D(4,3,6,7)              0.0            estimate D2E/DX2                !
 ! D9    D(1,5,6,3)              0.0            estimate D2E/DX2                !
 ! D10   D(1,5,6,7)            180.0            estimate D2E/DX2                !
 --------------------------------------------------------------------------------
 Trust Radius=3.00D-01 FncErr=1.00D-07 GrdErr=1.00D-06
 Number of steps in this run=  36 maximum allowed number of steps= 100.
 GradGradGradGradGradGradGradGradGradGradGradGradGradGradGradGradGradGrad

 Leave Link  103 at Fri May 25 18:54:54 2007, MaxMem=   56000000 cpu:        .1
 (Enter /usr/local/apps/g03b05/g03/l202.exe)
                          Input orientation:                          
 ---------------------------------------------------------------------
 Center     Atomic     Atomic              Coordinates (Angstroms)
 Number     Number      Type              X           Y           Z
 ---------------------------------------------------------------------
    1          7             0        -.716312    -.901934     .000000
    2          7             0       -1.095520     .291420     .000000
    3          7             0         .000000    1.038775     .000000
    4          1             0        -.061479    2.030994     .000000
    5          7             0         .622151    -.989495     .000000
    6          6             0        1.052813     .225779     .000000
    7          1             0        2.072370     .542976     .000000
 ---------------------------------------------------------------------
                    Distance matrix (angstroms):
                    1          2          3          4          5
     1  N     .000000
     2  N    1.252155    .000000
     3  N    2.068684   1.326161    .000000
     4  H    3.005141   2.023699    .994122    .000000
     5  N    1.341324   2.142694   2.121544   3.096886    .000000
     6  C    2.097985   2.149336   1.330180   2.121426   1.289326
     7  H    3.140782   3.177862   2.130853   2.601444   2.109882
                    6          7
     6  C     .000000
     7  H    1.067760    .000000
 Stoichiometry    CH2N4
 Framework group  CS[SG(CH2N4)]
 Deg. of freedom    11
 Full point group                 CS      NOp   2
 Largest Abelian subgroup         CS      NOp   2
 Largest concise Abelian subgroup C1      NOp   1
                         Standard orientation:                         
 ---------------------------------------------------------------------
 Center     Atomic     Atomic              Coordinates (Angstroms)
 Number     Number      Type              X           Y           Z
 ---------------------------------------------------------------------
    1          7             0        -.716312    -.901934     .000000
    2          7             0       -1.095520     .291420     .000000
    3          7             0         .000000    1.038775     .000000
    4          1             0        -.061479    2.030994     .000000
    5          7             0         .622151    -.989495     .000000
    6          6             0        1.052813     .225779     .000000
    7          1             0        2.072370     .542976     .000000
 ---------------------------------------------------------------------
 Rotational constants (GHZ):     10.9198649     10.7343934      5.4131674
 Leave Link  202 at Fri May 25 18:54:54 2007, MaxMem=   56000000 cpu:        .2
 (Enter /usr/local/apps/g03b05/g03/l301.exe)
 Standard basis: 6-31G(2df,p) (6D, 7F)
 There are   103 symmetry adapted basis functions of A'  symmetry.
 There are    47 symmetry adapted basis functions of A"  symmetry.
 Integral buffers will be    131072 words long.
 Raffenetti 2 integral format.
 Two-electron integral symmetry is turned on.
   150 basis functions,   234 primitive gaussians,   165 cartesian basis functions
    18 alpha electrons       18 beta electrons
       nuclear repulsion energy       169.8288229759 Hartrees.
 IExCor=1009 DFT=T Ex=PBE Corr=PBE ExCW=0 ScaHFX=   .000000
 ScaDFX=  1.000000  1.000000  1.000000  1.000000
 IRadAn=      0 IRanWt=     -1 IRanGd=            0 ICorTp=0
 NAtoms=    7 NActive=    7 NUniq=    7 SFac= 1.00D+00 NAtFMM=   60 Big=F
 Leave Link  301 at Fri May 25 18:54:54 2007, MaxMem=   56000000 cpu:        .1
 (Enter /usr/local/apps/g03b05/g03/l302.exe)
 NPDir=0 NMtPBC=     1 NCelOv=     1 NCel=       1 NClECP=     1 NCelD=      1
         NCelK=      1 NCelE2=     1 NClLst=     1 CellRange=      .0.
 One-electron integrals computed using PRISM.
 NBasis=   150 RedAO= T  NBF=   103    47
 NBsUse=   150 1.00D-06 NBFU=   103    47
 Precomputing XC quadrature grid using
 IXCGrd= 2 IRadAn=           0 IRanWt=          -1 IRanGd=           0.
 NRdTot=     431 NPtTot=       54084 NUsed=       57130 NTot=       57162
 NSgBfM=   165   165   165   165.
 Leave Link  302 at Fri May 25 18:54:55 2007, MaxMem=   56000000 cpu:        .5
 (Enter /usr/local/apps/g03b05/g03/l303.exe)
 DipDrv:  MaxL=1.
 Leave Link  303 at Fri May 25 18:54:55 2007, MaxMem=   56000000 cpu:        .1
 (Enter /usr/local/apps/g03b05/g03/l401.exe)
 Harris functional with IExCor= 1009 diagonalized for initial guess.
 ExpMin= 1.61D-01 ExpMax= 4.17D+03 ExpMxC= 6.27D+02 IAcc=1 IRadAn=         1 AccDes= 1.00D-06
 HarFok:  IExCor=1009 AccDes= 1.00D-06 IRadAn=         1 IDoV=1
 ScaDFX=  1.000000  1.000000  1.000000  1.000000
 Harris En= -258.071914812730    
 Initial guess orbital symmetries:
       Occupied  (A') (A') (A') (A') (A') (A') (A') (A') (A') (A')
                 (A') (A') (A") (A') (A") (A') (A") (A')
       Virtual   (A") (A") (A') (A') (A') (A') (A') (A') (A') (A')
                 (A") (A') (A') (A') (A') (A') (A") (A') (A") (A")
                 (A') (A') (A") (A') (A") (A') (A') (A") (A") (A')
                 (A') (A") (A") (A') (A') (A') (A') (A") (A") (A')
                 (A') (A') (A") (A') (A') (A") (A') (A') (A') (A")
                 (A') (A') (A') (A') (A') (A") (A') (A') (A") (A')
                 (A") (A') (A') (A") (A') (A") (A') (A") (A') (A')
                 (A') (A") (A') (A") (A') (A") (A') (A') (A') (A")
                 (A') (A') (A") (A') (A') (A") (A') (A') (A") (A")
                 (A") (A') (A') (A") (A") (A") (A') (A") (A") (A')
                 (A") (A') (A') (A") (A') (A") (A") (A') (A") (A')
                 (A") (A') (A') (A') (A') (A') (A') (A') (A") (A')
                 (A') (A') (A') (A') (A') (A') (A') (A') (A') (A')
                 (A') (A')
 The electronic state of the initial guess is 1-A'.
 Leave Link  401 at Fri May 25 18:54:56 2007, MaxMem=   56000000 cpu:       1.1
 (Enter /usr/local/apps/g03b05/g03/l502.exe)
 Closed shell SCF:
 Requested convergence on RMS density matrix=1.00D-08 within 128 cycles.
 Requested convergence on MAX density matrix=1.00D-06.
 Requested convergence on             energy=1.00D-06.
 No special actions if energy rises.
 Using DIIS extrapolation, IDIIS=  1040.
 Integral symmetry usage will be decided dynamically.
        57129 words used for storage of precomputed grid.
 IEnd=    171493 IEndB=    171493 NGot=  56000000 MDV=  55872538
 LenX=  55872538
 Fock matrices will be formed incrementally for  20 cycles.
 Integral accuracy reduced to 1.0D-05 until final iterations.

 Cycle   1  Pass 0  IDiag  1:
 FoFCou: FMM=F IPFlag=           0 FMFlag=           0 FMFlg1=           0
 NFxFlg=           0 DoJE=T BraDBF=F KetDBF=F FulRan=T.
 Petite list used in FoFCou.
 E= -257.927636237041    
 DIIS: error= 1.63D-02 at cycle   1 NSaved=   1.
 NSaved= 1 IEnMin= 1 EnMin= -257.927636237041     IErMin= 1 ErrMin= 1.63D-02
 ErrMax= 1.63D-02 EMaxC= 1.00D-01 BMatC= 5.86D-02 BMatP= 5.86D-02
 IDIUse=3 WtCom= 8.37D-01 WtEn= 1.63D-01
 Coeff-Com:   .100D+01
 Coeff-En:    .100D+01
 Coeff:       .100D+01
 Gap=      .160 Goal=   None    Shift=     .000
 GapD=     .160 DampG=1.000 DampE= .500 DampFc= .5000 IDamp=-1.
 Damping current iteration by 5.00D-01
 RMSDP=5.89D-03 MaxDP=1.70D-01              OVMax= 2.10D-01

 Cycle   2  Pass 0  IDiag  1:
 RMSU=  2.92D-03    CP:  9.81D-01
 E= -257.935152906550     Delta-E=        -.007516669509 Rises=F Damp=T
 DIIS: error= 1.16D-02 at cycle   2 NSaved=   2.
 NSaved= 2 IEnMin= 2 EnMin= -257.935152906550     IErMin= 2 ErrMin= 1.16D-02
 ErrMax= 1.16D-02 EMaxC= 1.00D-01 BMatC= 1.84D-02 BMatP= 5.86D-02
 IDIUse=3 WtCom= 8.84D-01 WtEn= 1.16D-01
 Coeff-Com:   .298D+00  .702D+00
 Coeff-En:    .442D+00  .558D+00
 Coeff:       .314D+00  .686D+00
 Gap=      .209 Goal=   None    Shift=     .000
 RMSDP=1.97D-03 MaxDP=7.84D-02 DE=-7.52D-03 OVMax= 1.79D-01

 Cycle   3  Pass 0  IDiag  1:
 RMSU=  1.80D-03    CP:  9.73D-01  7.34D-01
 E= -257.967166239434     Delta-E=        -.032013332884 Rises=F Damp=F
 DIIS: error= 1.27D-02 at cycle   3 NSaved=   3.
 NSaved= 3 IEnMin= 3 EnMin= -257.967166239434     IErMin= 2 ErrMin= 1.16D-02
 ErrMax= 1.27D-02 EMaxC= 1.00D-01 BMatC= 2.45D-02 BMatP= 1.84D-02
 IDIUse=2 WtCom= 0.00D+00 WtEn= 1.00D+00
 Coeff-En:    .000D+00  .191D+00  .809D+00
 Coeff:       .000D+00  .191D+00  .809D+00
 Gap=      .174 Goal=   None    Shift=     .000
 RMSDP=2.62D-03 MaxDP=8.68D-02 DE=-3.20D-02 OVMax= 1.55D-01

 Cycle   4  Pass 0  IDiag  1:
 RMSU=  9.34D-04    CP:  9.86D-01  1.05D+00 -2.50D-01
 E= -257.915048836742     Delta-E=         .052117402693 Rises=F Damp=F
 DIIS: error= 2.50D-02 at cycle   4 NSaved=   4.
 NSaved= 4 IEnMin= 3 EnMin= -257.967166239434     IErMin= 2 ErrMin= 1.16D-02
 ErrMax= 2.50D-02 EMaxC= 1.00D-01 BMatC= 8.33D-02 BMatP= 1.84D-02
 IDIUse=2 WtCom= 0.00D+00 WtEn= 1.00D+00
 Coeff-En:    .000D+00  .000D+00  .704D+00  .296D+00
 Coeff:       .000D+00  .000D+00  .704D+00  .296D+00
 Gap=      .182 Goal=   None    Shift=     .000
 RMSDP=1.38D-03 MaxDP=4.01D-02 DE= 5.21D-02 OVMax= 8.47D-02

 Cycle   5  Pass 0  IDiag  1:
 RMSU=  2.10D-04    CP:  9.82D-01  7.92D-01  3.03D-01  4.20D-01
 E= -257.985552741370     Delta-E=        -.070503904628 Rises=F Damp=F
 DIIS: error= 4.85D-03 at cycle   5 NSaved=   5.
 NSaved= 5 IEnMin= 5 EnMin= -257.985552741370     IErMin= 5 ErrMin= 4.85D-03
 ErrMax= 4.85D-03 EMaxC= 1.00D-01 BMatC= 3.68D-03 BMatP= 1.84D-02
 IDIUse=3 WtCom= 9.52D-01 WtEn= 4.85D-02
 Coeff-Com:   .343D-01  .310D-01  .383D+00  .112D+00  .440D+00
 Coeff-En:    .000D+00  .000D+00  .185D+00  .000D+00  .815D+00
 Coeff:       .326D-01  .295D-01  .373D+00  .106D+00  .458D+00
 Gap=      .192 Goal=   None    Shift=     .000
 RMSDP=4.17D-04 MaxDP=1.47D-02 DE=-7.05D-02 OVMax= 2.02D-02

 Cycle   6  Pass 0  IDiag  1:
 RMSU=  7.10D-05    CP:  9.80D-01  7.76D-01  5.12D-01  3.44D-01  3.94D-01
 E= -257.988742324380     Delta-E=        -.003189583010 Rises=F Damp=F
 DIIS: error= 5.41D-04 at cycle   6 NSaved=   6.
 NSaved= 6 IEnMin= 6 EnMin= -257.988742324380     IErMin= 6 ErrMin= 5.41D-04
 ErrMax= 5.41D-04 EMaxC= 1.00D-01 BMatC= 7.79D-05 BMatP= 3.68D-03
 IDIUse=3 WtCom= 9.95D-01 WtEn= 5.41D-03
 Coeff-Com:  -.194D-02 -.480D-02  .101D+00 -.515D-02  .321D+00  .590D+00
 Coeff-En:    .000D+00  .000D+00  .000D+00  .000D+00  .000D+00  .100D+01
 Coeff:      -.192D-02 -.478D-02  .101D+00 -.513D-02  .319D+00  .592D+00
 Gap=      .191 Goal=   None    Shift=     .000
 RMSDP=5.53D-05 MaxDP=1.70D-03 DE=-3.19D-03 OVMax= 3.32D-03

 Cycle   7  Pass 0  IDiag  1:
 RMSU=  1.45D-05    CP:  9.80D-01  7.76D-01  4.99D-01  3.29D-01  5.68D-01
                    CP:  6.11D-01
 E= -257.988805338344     Delta-E=        -.000063013964 Rises=F Damp=F
 DIIS: error= 1.22D-04 at cycle   7 NSaved=   7.
 NSaved= 7 IEnMin= 7 EnMin= -257.988805338344     IErMin= 7 ErrMin= 1.22D-04
 ErrMax= 1.22D-04 EMaxC= 1.00D-01 BMatC= 1.94D-06 BMatP= 7.79D-05
 IDIUse=3 WtCom= 9.99D-01 WtEn= 1.22D-03
 Coeff-Com:  -.165D-02 -.763D-03  .462D-01 -.646D-02  .163D+00  .325D+00
 Coeff-Com:   .474D+00
 Coeff-En:    .000D+00  .000D+00  .000D+00  .000D+00  .000D+00  .000D+00
 Coeff-En:    .100D+01
 Coeff:      -.165D-02 -.762D-03  .461D-01 -.645D-02  .163D+00  .325D+00
 Coeff:       .475D+00
 Gap=      .191 Goal=   None    Shift=     .000
 RMSDP=1.32D-05 MaxDP=4.75D-04 DE=-6.30D-05 OVMax= 1.00D-03

 Cycle   8  Pass 0  IDiag  1:
 RMSU=  7.00D-06    CP:  9.80D-01  7.77D-01  5.01D-01  3.31D-01  5.60D-01
                    CP:  6.48D-01  3.53D-01
 E= -257.988806908532     Delta-E=        -.000001570188 Rises=F Damp=F
 DIIS: error= 8.65D-05 at cycle   8 NSaved=   8.
 NSaved= 8 IEnMin= 8 EnMin= -257.988806908532     IErMin= 8 ErrMin= 8.65D-05
 ErrMax= 8.65D-05 EMaxC= 1.00D-01 BMatC= 7.42D-07 BMatP= 1.94D-06
 IDIUse=1 WtCom= 1.00D+00 WtEn= 0.00D+00
 Coeff-Com:  -.904D-03  .115D-02  .995D-02 -.415D-02  .454D-01  .101D+00
 Coeff-Com:   .373D+00  .474D+00
 Coeff:      -.904D-03  .115D-02  .995D-02 -.415D-02  .454D-01  .101D+00
 Coeff:       .373D+00  .474D+00
 Gap=      .191 Goal=   None    Shift=     .000
 RMSDP=5.09D-06 MaxDP=1.68D-04 DE=-1.57D-06 OVMax= 3.81D-04

 Initial convergence to 1.0D-05 achieved.  Increase integral accuracy.
 Cycle   9  Pass 1  IDiag  1:
 E= -257.988832645662     Delta-E=        -.000025737130 Rises=F Damp=F
 DIIS: error= 1.39D-05 at cycle   1 NSaved=   1.
 NSaved= 1 IEnMin= 1 EnMin= -257.988832645662     IErMin= 1 ErrMin= 1.39D-05
 ErrMax= 1.39D-05 EMaxC= 1.00D-01 BMatC= 4.28D-08 BMatP= 4.28D-08
 IDIUse=1 WtCom= 1.00D+00 WtEn= 0.00D+00
 Coeff-Com:   .100D+01
 Coeff:       .100D+01
 Gap=      .191 Goal=   None    Shift=     .000
 RMSDP=5.09D-06 MaxDP=1.68D-04 DE=-2.57D-05 OVMax= 4.94D-05

 Cycle  10  Pass 1  IDiag  1:
 RMSU=  5.21D-06    CP:  1.00D+00
 E= -257.988832669578     Delta-E=        -.000000023916 Rises=F Damp=F
 DIIS: error= 5.49D-06 at cycle   2 NSaved=   2.
 NSaved= 2 IEnMin= 2 EnMin= -257.988832669578     IErMin= 2 ErrMin= 5.49D-06
 ErrMax= 5.49D-06 EMaxC= 1.00D-01 BMatC= 8.65D-09 BMatP= 4.28D-08
 IDIUse=1 WtCom= 1.00D+00 WtEn= 0.00D+00
 Coeff-Com:   .210D+00  .790D+00
 Coeff:       .210D+00  .790D+00
 Gap=      .191 Goal=   None    Shift=     .000
 RMSDP=1.10D-06 MaxDP=4.18D-05 DE=-2.39D-08 OVMax= 5.44D-05

 Cycle  11  Pass 1  IDiag  1:
 RMSU=  1.05D-06    CP:  1.00D+00  9.40D-01
 E= -257.988832662532     Delta-E=         .000000007046 Rises=F Damp=F
 DIIS: error= 8.81D-06 at cycle   3 NSaved=   3.
 NSaved= 3 IEnMin= 2 EnMin= -257.988832669578     IErMin= 2 ErrMin= 5.49D-06
 ErrMax= 8.81D-06 EMaxC= 1.00D-01 BMatC= 1.77D-08 BMatP= 8.65D-09
 IDIUse=1 WtCom= 1.00D+00 WtEn= 0.00D+00
 Coeff-Com:   .389D-02  .589D+00  .408D+00
 Coeff:       .389D-02  .589D+00  .408D+00
 Gap=      .191 Goal=   None    Shift=     .000
 RMSDP=6.81D-07 MaxDP=2.71D-05 DE= 7.05D-09 OVMax= 3.30D-05

 Cycle  12  Pass 1  IDiag  1:
 RMSU=  1.63D-07    CP:  1.00D+00  9.72D-01  3.93D-01
 E= -257.988832676146     Delta-E=        -.000000013614 Rises=F Damp=F
 DIIS: error= 1.53D-06 at cycle   4 NSaved=   4.
 NSaved= 4 IEnMin= 4 EnMin= -257.988832676146     IErMin= 4 ErrMin= 1.53D-06
 ErrMax= 1.53D-06 EMaxC= 1.00D-01 BMatC= 2.71D-10 BMatP= 8.65D-09
 IDIUse=1 WtCom= 1.00D+00 WtEn= 0.00D+00
 Coeff-Com:  -.253D-02  .306D+00  .229D+00  .468D+00
 Coeff:      -.253D-02  .306D+00  .229D+00  .468D+00
 Gap=      .191 Goal=   None    Shift=     .000
 RMSDP=1.22D-07 MaxDP=5.28D-06 DE=-1.36D-08 OVMax= 1.05D-05

 Cycle  13  Pass 1  IDiag  1:
 RMSU=  6.94D-08    CP:  1.00D+00  9.76D-01  4.21D-01  4.25D-01
 E= -257.988832676328     Delta-E=        -.000000000182 Rises=F Damp=F
 DIIS: error= 7.65D-07 at cycle   5 NSaved=   5.
 NSaved= 5 IEnMin= 5 EnMin= -257.988832676328     IErMin= 5 ErrMin= 7.65D-07
 ErrMax= 7.65D-07 EMaxC= 1.00D-01 BMatC= 5.28D-11 BMatP= 2.71D-10
 IDIUse=1 WtCom= 1.00D+00 WtEn= 0.00D+00
 Coeff-Com:  -.252D-02  .154D+00  .118D+00  .327D+00  .403D+00
 Coeff:      -.252D-02  .154D+00  .118D+00  .327D+00  .403D+00
 Gap=      .191 Goal=   None    Shift=     .000
 RMSDP=5.06D-08 MaxDP=1.94D-06 DE=-1.82D-10 OVMax= 3.68D-06

 Cycle  14  Pass 1  IDiag  1:
 RMSU=  1.49D-08    CP:  1.00D+00  9.76D-01  4.16D-01  5.19D-01  3.45D-01
 E= -257.988832676411     Delta-E=        -.000000000083 Rises=F Damp=F
 DIIS: error= 9.01D-08 at cycle   6 NSaved=   6.
 NSaved= 6 IEnMin= 6 EnMin= -257.988832676411     IErMin= 6 ErrMin= 9.01D-08
 ErrMax= 9.01D-08 EMaxC= 1.00D-01 BMatC= 8.73D-13 BMatP= 5.28D-11
 IDIUse=1 WtCom= 1.00D+00 WtEn= 0.00D+00
 Coeff-Com:  -.937D-03  .537D-01  .418D-01  .123D+00  .187D+00  .596D+00
 Coeff:      -.937D-03  .537D-01  .418D-01  .123D+00  .187D+00  .596D+00
 Gap=      .191 Goal=   None    Shift=     .000
 RMSDP=1.06D-08 MaxDP=3.15D-07 DE=-8.25D-11 OVMax= 6.42D-07

 Cycle  15  Pass 1  IDiag  1:
 RMSU=  7.36D-09    CP:  1.00D+00  9.77D-01  4.16D-01  5.11D-01  4.11D-01
                    CP:  5.99D-01
 E= -257.988832676430     Delta-E=        -.000000000019 Rises=F Damp=F
 DIIS: error= 4.83D-08 at cycle   7 NSaved=   7.
 NSaved= 7 IEnMin= 7 EnMin= -257.988832676430     IErMin= 7 ErrMin= 4.83D-08
 ErrMax= 4.83D-08 EMaxC= 1.00D-01 BMatC= 6.36D-13 BMatP= 8.73D-13
 IDIUse=1 WtCom= 1.00D+00 WtEn= 0.00D+00
 Coeff-Com:  -.263D-03  .127D-01  .101D-01  .320D-01  .667D-01  .459D+00
 Coeff-Com:   .419D+00
 Coeff:      -.263D-03  .127D-01  .101D-01  .320D-01  .667D-01  .459D+00
 Coeff:       .419D+00
 Gap=      .191 Goal=   None    Shift=     .000
 RMSDP=4.61D-09 MaxDP=1.54D-07 DE=-1.89D-11 OVMax= 3.00D-07

 SCF Done:  E(RPBE-PBE) =  -257.988832676     A.U. after   15 cycles
             Convg  =     .4608D-08             -V/T =  2.0046
             S**2   =    .0000
 KE= 2.568034302508D+02 PE=-9.423689502326D+02 EE= 2.577478643295D+02
 Leave Link  502 at Fri May 25 18:57:39 2007, MaxMem=   56000000 cpu:     161.5
 (Enter /usr/local/apps/g03b05/g03/l601.exe)
 Copying SCF densities to generalized density rwf, ISCF=0 IROHF=0.

 **********************************************************************

            Population analysis using the SCF density.

 **********************************************************************

 Orbital symmetries:
       Occupied  (A') (A') (A') (A') (A') (A') (A') (A') (A') (A')
                 (A') (A") (A') (A') (A") (A") (A') (A')
       Virtual   (A") (A") (A') (A') (A') (A') (A') (A') (A') (A')
                 (A") (A') (A') (A') (A') (A") (A') (A') (A") (A")
                 (A') (A') (A") (A') (A") (A') (A') (A") (A") (A')
                 (A') (A") (A") (A') (A') (A') (A') (A") (A") (A')
                 (A') (A") (A') (A') (A') (A") (A') (A') (A') (A")
                 (A') (A') (A') (A') (A') (A") (A') (A') (A") (A')
                 (A") (A') (A') (A") (A') (A") (A') (A") (A') (A')
                 (A") (A') (A') (A") (A') (A") (A') (A') (A") (A')
                 (A') (A') (A') (A") (A') (A") (A') (A') (A") (A")
                 (A") (A') (A') (A") (A") (A") (A') (A") (A") (A')
                 (A') (A") (A") (A') (A') (A") (A") (A') (A") (A')
                 (A") (A') (A') (A') (A') (A') (A') (A') (A") (A')
                 (A') (A') (A') (A') (A') (A') (A') (A') (A') (A')
                 (A') (A')
 The electronic state is 1-A'.
 Alpha  occ. eigenvalues --  -14.10317 -14.06217 -14.04513 -14.01810  -9.97199
 Alpha  occ. eigenvalues --   -1.07356   -.87358   -.82428   -.62221   -.61024
 Alpha  occ. eigenvalues --    -.54624   -.45772   -.45068   -.32766   -.29711
 Alpha  occ. eigenvalues --    -.27969   -.24855   -.23276
 Alpha virt. eigenvalues --    -.04190   -.00845    .03839    .08929    .15439
 Alpha virt. eigenvalues --     .17588    .24535    .26921    .35301    .39694
 Alpha virt. eigenvalues --     .42466    .44427    .47903    .51630    .53018
 Alpha virt. eigenvalues --     .56483    .57077    .58376    .61283    .61972
 Alpha virt. eigenvalues --     .68662    .69309    .72069    .72894    .73667
 Alpha virt. eigenvalues --     .80117    .81968    .82577    .82750    .86830
 Alpha virt. eigenvalues --     .91125   1.01531   1.02342   1.03311   1.16927
 Alpha virt. eigenvalues --    1.21031   1.22573   1.29957   1.31682   1.35508
 Alpha virt. eigenvalues --    1.38487   1.44311   1.47174   1.53927   1.57031
 Alpha virt. eigenvalues --    1.57741   1.60658   1.64054   1.73285   1.73725
 Alpha virt. eigenvalues --    1.86143   1.87783   1.95293   2.03600   2.10009
 Alpha virt. eigenvalues --    2.14391   2.25898   2.38515   2.49908   2.72290
 Alpha virt. eigenvalues --    2.81340   2.81350   2.86514   2.90733   2.98432
 Alpha virt. eigenvalues --    3.02354   3.03727   3.10157   3.14212   3.21850
 Alpha virt. eigenvalues --    3.25211   3.26931   3.29367   3.32901   3.37406
 Alpha virt. eigenvalues --    3.40911   3.49773   3.52571   3.63142   3.63268
 Alpha virt. eigenvalues --    3.69837   3.77068   3.85652   3.85959   3.93774
 Alpha virt. eigenvalues --    3.95863   3.96025   3.97557   4.03930   4.08609
 Alpha virt. eigenvalues --    4.10714   4.14200   4.18721   4.21981   4.29901
 Alpha virt. eigenvalues --    4.35650   4.38346   4.40869   4.43652   4.43925
 Alpha virt. eigenvalues --    4.46815   4.47286   4.50401   4.51201   4.55863
 Alpha virt. eigenvalues --    4.71568   4.74118   4.78466   4.78746   4.88097
 Alpha virt. eigenvalues --    4.90237   4.95522   4.97168   5.10484   5.16962
 Alpha virt. eigenvalues --    5.25875   5.36139   5.42166   5.45910   5.49536
 Alpha virt. eigenvalues --    5.64484   5.71661   6.18269   6.36277   8.04012
 Alpha virt. eigenvalues --   10.24928  11.13028  11.14899  11.23107  11.33185
 Alpha virt. eigenvalues --   15.89073  18.98181
          Condensed to atoms (all electrons):
              1          2          3          4          5          6
     1  N    6.357238    .503220   -.129330    .007859    .487013   -.142887
     2  N     .503220   6.488578    .374413   -.025665   -.173790   -.102594
     3  N    -.129330    .374413   6.192601    .340480   -.025319    .452960
     4  H     .007859   -.025665    .340480    .416886    .008293   -.035122
     5  N     .487013   -.173790   -.025319    .008293   6.407358    .523131
     6  C    -.142887   -.102594    .452960   -.035122    .523131   4.850872
     7  H     .005511    .004392   -.028852    .000648   -.019491    .367589
              7
     1  N     .005511
     2  N     .004392
     3  N    -.028852
     4  H     .000648
     5  N    -.019491
     6  C     .367589
     7  H     .501547
 Mulliken atomic charges:
              1
     1  N    -.088624
     2  N    -.068555
     3  N    -.176954
     4  H     .286621
     5  N    -.207195
     6  C     .086051
     7  H     .168655
 Sum of Mulliken charges=    .00000
 Atomic charges with hydrogens summed into heavy atoms:
              1
     1  N    -.088624
     2  N    -.068555
     3  N     .109668
     4  H     .000000
     5  N    -.207195
     6  C     .254706
     7  H     .000000
 Sum of Mulliken charges=    .00000
 Electronic spatial extent (au):  <R**2>=   243.2760
 Charge=      .0000 electrons
 Dipole moment (field-independent basis, Debye):
    X=     2.3083    Y=     4.4950    Z=      .0000  Tot=     5.0530
 Quadrupole moment (field-independent basis, Debye-Ang):
   XX=   -28.4356   YY=   -25.8240   ZZ=   -27.6413
   XY=     1.6175   XZ=      .0000   YZ=      .0000
 Traceless Quadrupole moment (field-independent basis, Debye-Ang):
   XX=    -1.1353   YY=     1.4763   ZZ=     -.3410
   XY=     1.6175   XZ=      .0000   YZ=      .0000
 Octapole moment (field-independent basis, Debye-Ang**2):
  XXX=    10.5168  YYY=    20.4459  ZZZ=      .0000  XYY=     -.6222
  XXY=     4.0366  XXZ=      .0000  XZZ=     -.6829  YZZ=      .4865
  YYZ=      .0000  XYZ=      .0000
 Hexadecapole moment (field-independent basis, Debye-Ang**3):
 XXXX=  -137.5846 YYYY=  -115.4414 ZZZZ=   -23.6105 XXXY=     5.6984
 XXXZ=      .0000 YYYX=     -.6498 YYYZ=      .0000 ZZZX=      .0000
 ZZZY=      .0000 XXYY=   -51.0749 XXZZ=   -28.7903 YYZZ=   -26.9962
 XXYZ=      .0000 YYXZ=      .0000 ZZXY=     -.1928
 N-N= 1.698288229759D+02 E-N=-9.423689510395D+02  KE= 2.568034302508D+02
 Symmetry A'   KE= 2.472772190540D+02
 Symmetry A"   KE= 9.526211196738D+00
 No NMR shielding tensors so no spin-rotation constants.
 Leave Link  601 at Fri May 25 18:57:39 2007, MaxMem=   56000000 cpu:        .6
 (Enter /usr/local/apps/g03b05/g03/l701.exe)
 Compute integral first derivatives.
 ... and contract with generalized density number  0.
 Leave Link  701 at Fri May 25 18:57:40 2007, MaxMem=   56000000 cpu:        .6
 (Enter /usr/local/apps/g03b05/g03/l702.exe)
 L702 exits ... SP integral derivatives will be done elsewhere.
 Leave Link  702 at Fri May 25 18:57:40 2007, MaxMem=   56000000 cpu:        .0
 (Enter /usr/local/apps/g03b05/g03/l703.exe)
 Compute integral first derivatives, UseDBF=F.
 Integral derivatives from FoFDir, PRISM(SPDF).
 Calling FoFCou, ICntrl=  2527 FMM=F ISym2X=1 I1Cent= 0 ISCF1= 0.
 FoFCou: FMM=F IPFlag=           0 FMFlag=           0 FMFlg1=           0
 NFxFlg=           0 DoJE=F BraDBF=F KetDBF=F FulRan=T.
 Petite list used in FoFCou.
 Leave Link  703 at Fri May 25 18:59:11 2007, MaxMem=   56000000 cpu:      90.7
 (Enter /usr/local/apps/g03b05/g03/l716.exe)
 Dipole        = 9.08162946D-01 1.76845212D+00 0.00000000D+00
 ***** Axes restored to original set *****
 -------------------------------------------------------------------
 Center     Atomic                   Forces (Hartrees/Bohr)
 Number     Number              X              Y              Z
 -------------------------------------------------------------------
    1          7           -.010551982    -.054044883     .000000000
    2          7           -.045667938     .040407894     .000000000
    3          7            .006340566     .014437270     .000000000
    4          1           -.001460760     .019547254     .000000000
    5          7            .016871921    -.042761728     .000000000
    6          6            .022060445     .017989787     .000000000
    7          1            .012407748     .004424406     .000000000
 -------------------------------------------------------------------
 Cartesian Forces:  Max      .054044883 RMS      .022339874
 Leave Link  716 at Fri May 25 18:59:11 2007, MaxMem=   56000000 cpu:        .0
 (Enter /usr/local/apps/g03b05/g03/l103.exe)

 GradGradGradGradGradGradGradGradGradGradGradGradGradGradGradGradGradGrad
 Berny optimization.
 Internal  Forces:  Max      .058353287 RMS      .018110596
 Search for a local minimum.
 Step number   1 out of a maximum of  36
 All quantities printed in internal units (Hartrees-Bohrs-Radians)
 Second derivative matrix not updated -- first step.
     Eigenvalues ---     .02505    .02639    .02674    .02834    .16000
     Eigenvalues ---     .16000    .22605    .24688    .37515    .48737
     Eigenvalues ---     .50885    .56605    .58506    .66912    .78894
     Eigenvalues --- 1000.000001000.000001000.000001000.000001000.00000
     Eigenvalues --- 1000.000001000.000001000.000001000.000001000.00000
     Eigenvalues --- 1000.00000
 RFO step:  Lambda=-1.24038819D-02.
 Linear search not attempted -- first point.
 Iteration  1 RMS(Cart)=   .02868835 RMS(Int)=   .00005857
 Iteration  2 RMS(Cart)=   .00005500 RMS(Int)=   .00002593
 Iteration  3 RMS(Cart)=   .00000000 RMS(Int)=   .00002593
 Variable       Old X    -DE/DX   Delta X   Delta X   Delta X     New X
                                 (Linear)    (Quad)   (Total)
    R1        2.36623    .05835    .00000    .07164    .07168   2.43791
    R2        2.53474    .02867    .00000    .05120    .05123   2.58597
    R3        2.50608    .03128    .00000    .05060    .05059   2.55667
    R4        1.87862    .01960    .00000    .03921    .03921   1.91783
    R5        2.51368    .02953    .00000    .04595    .04591   2.55958
    R6        2.43647    .04288    .00000    .05868    .05866   2.49513
    R7        2.01777    .01316    .00000    .03397    .03397   2.05174
    A1        1.94380   -.00229    .00000    .00224    .00231   1.94611
    A2        1.86179   -.00333    .00000   -.00681   -.00678   1.85501
    A3        2.10759   -.00163    .00000   -.00349   -.00347   2.10412
    A4        1.88535    .00276    .00000    .00412    .00408   1.88943
    A5        2.29024   -.00114    .00000   -.00063   -.00061   2.28963
    A6        1.84604   -.00116    .00000   -.00589   -.00589   1.84015
    A7        1.88780    .00403    .00000    .00633    .00628   1.89407
    A8        2.18241   -.00257    .00000   -.00640   -.00637   2.17604
    A9        2.21298   -.00146    .00000    .00006    .00009   2.21308
    D1         .00000    .00000    .00000    .00000    .00000    .00000
    D2         .00000    .00000    .00000    .00000    .00000    .00000
    D3        3.14159    .00000    .00000    .00000    .00000   3.14159
    D4         .00000    .00000    .00000    .00000    .00000    .00000
    D5         .00000    .00000    .00000    .00000    .00000    .00000
    D6        3.14159    .00000    .00000    .00000    .00000   3.14159
    D7        3.14159    .00000    .00000    .00000    .00000   3.14159
    D8         .00000    .00000    .00000    .00000    .00000    .00000
    D9         .00000    .00000    .00000    .00000    .00000    .00000
   D10        3.14159    .00000    .00000    .00000    .00000   3.14159
         Item               Value     Threshold  Converged?
 Maximum Force             .058353      .000450     NO 
 RMS     Force             .018111      .000300     NO 
 Maximum Displacement      .067222      .001800     NO 
 RMS     Displacement      .028674      .001200     NO 
 Predicted change in Energy=-6.317514D-03
 GradGradGradGradGradGradGradGradGradGradGradGradGradGradGradGradGradGrad

 Leave Link  103 at Fri May 25 18:59:12 2007, MaxMem=   56000000 cpu:        .1
 (Enter /usr/local/apps/g03b05/g03/l202.exe)
                          Input orientation:                          
 ---------------------------------------------------------------------
 Center     Atomic     Atomic              Coordinates (Angstroms)
 Number     Number      Type              X           Y           Z
 ---------------------------------------------------------------------
    1          7             0        -.733588    -.931648     .000000
    2          7             0       -1.125622     .297429     .000000
    3          7             0        -.003665    1.053498     .000000
    4          1             0        -.064174    2.066566     .000000
    5          7             0         .631818   -1.022649     .000000
    6          6             0        1.067039     .223927     .000000
    7          1             0        2.102214     .551392     .000000
 ---------------------------------------------------------------------
                    Distance matrix (angstroms):
                    1          2          3          4          5
     1  N     .000000
     2  N    1.290086    .000000
     3  N    2.115087   1.352933    .000000
     4  H    3.072036   2.063133   1.014873    .000000
     5  N    1.368435   2.197999   2.171226   3.166647    .000000
     6  C    2.139535   2.193893   1.354473   2.162167   1.320366
     7  H    3.200184   3.237811   2.164910   2.643670   2.153988
                    6          7
     6  C     .000000
     7  H    1.085735    .000000
 Stoichiometry    CH2N4
 Framework group  CS[SG(CH2N4)]
 Deg. of freedom    11
 Full point group                 CS      NOp   2
 Largest Abelian subgroup         CS      NOp   2
 Largest concise Abelian subgroup C1      NOp   1
                         Standard orientation:                         
 ---------------------------------------------------------------------
 Center     Atomic     Atomic              Coordinates (Angstroms)
 Number     Number      Type              X           Y           Z
 ---------------------------------------------------------------------
    1          7             0        -.727573    -.925230     .000000
    2          7             0       -1.121062     .303382     .000000
    3          7             0         .000000    1.060779     .000000
    4          1             0        -.061708    2.073774     .000000
    5          7             0         .637939   -1.014615     .000000
    6          6             0        1.071685     .232475     .000000
    7          1             0        2.106471     .561164     .000000
 ---------------------------------------------------------------------
 Rotational constants (GHZ):     10.4552970     10.2671450      5.1801834
 Leave Link  202 at Fri May 25 18:59:12 2007, MaxMem=   56000000 cpu:        .2
 (Enter /usr/local/apps/g03b05/g03/l301.exe)
 Standard basis: 6-31G(2df,p) (6D, 7F)
 There are   103 symmetry adapted basis functions of A'  symmetry.
 There are    47 symmetry adapted basis functions of A"  symmetry.
 Integral buffers will be    131072 words long.
 Raffenetti 2 integral format.
 Two-electron integral symmetry is turned on.
   150 basis functions,   234 primitive gaussians,   165 cartesian basis functions
    18 alpha electrons       18 beta electrons
       nuclear repulsion energy       166.1184352513 Hartrees.
 IExCor=1009 DFT=T Ex=PBE Corr=PBE ExCW=0 ScaHFX=   .000000
 ScaDFX=  1.000000  1.000000  1.000000  1.000000
 IRadAn=      0 IRanWt=     -1 IRanGd=            0 ICorTp=0
 NAtoms=    7 NActive=    7 NUniq=    7 SFac= 1.00D+00 NAtFMM=   60 Big=F
 Leave Link  301 at Fri May 25 18:59:12 2007, MaxMem=   56000000 cpu:        .1
 (Enter /usr/local/apps/g03b05/g03/l302.exe)
 NPDir=0 NMtPBC=     1 NCelOv=     1 NCel=       1 NClECP=     1 NCelD=      1
         NCelK=      1 NCelE2=     1 NClLst=     1 CellRange=      .0.
 One-electron integrals computed using PRISM.
 NBasis=   150 RedAO= T  NBF=   103    47
 NBsUse=   150 1.00D-06 NBFU=   103    47
 Precomputing XC quadrature grid using
 IXCGrd= 2 IRadAn=           0 IRanWt=          -1 IRanGd=           0.
 NRdTot=     431 NPtTot=       54084 NUsed=       57130 NTot=       57162
 NSgBfM=   165   165   165   165.
 Leave Link  302 at Fri May 25 18:59:13 2007, MaxMem=   56000000 cpu:        .5
 (Enter /usr/local/apps/g03b05/g03/l303.exe)
 DipDrv:  MaxL=1.
 Leave Link  303 at Fri May 25 18:59:13 2007, MaxMem=   56000000 cpu:        .0
 (Enter /usr/local/apps/g03b05/g03/l401.exe)
 Initial guess read from the read-write file:
 Guess basis will be translated and rotated to current coordinates.
 Initial guess orbital symmetries:
       Occupied  (A') (A') (A') (A') (A') (A') (A') (A') (A') (A')
                 (A') (A") (A') (A') (A") (A") (A') (A')
       Virtual   (A") (A") (A') (A') (A') (A') (A') (A') (A') (A')
                 (A") (A') (A') (A') (A') (A") (A') (A') (A") (A")
                 (A') (A') (A") (A') (A") (A') (A') (A") (A") (A')
                 (A') (A") (A") (A') (A') (A') (A') (A") (A") (A')
                 (A') (A") (A') (A') (A') (A") (A') (A') (A') (A")
                 (A') (A') (A') (A') (A') (A") (A') (A') (A") (A')
                 (A") (A') (A') (A") (A') (A") (A') (A") (A') (A')
                 (A") (A') (A') (A") (A') (A") (A') (A') (A") (A')
                 (A') (A') (A') (A") (A') (A") (A') (A') (A") (A")
                 (A") (A') (A') (A") (A") (A") (A') (A") (A") (A')
                 (A') (A") (A") (A') (A') (A") (A") (A') (A") (A')
                 (A") (A') (A') (A') (A') (A') (A') (A') (A") (A')
                 (A') (A') (A') (A') (A') (A') (A') (A') (A') (A')
                 (A') (A')
 The electronic state of the initial guess is 1-A'.
 Generating alternative initial guess.
 Harris functional with IExCor= 1009 diagonalized for initial guess.
 ExpMin= 1.61D-01 ExpMax= 4.17D+03 ExpMxC= 6.27D+02 IAcc=1 IRadAn=         1 AccDes= 1.00D-06
 HarFok:  IExCor=1009 AccDes= 1.00D-06 IRadAn=         1 IDoV=1
 ScaDFX=  1.000000  1.000000  1.000000  1.000000
 Harris En= -258.069037271935    
 Leave Link  401 at Fri May 25 18:59:14 2007, MaxMem=   56000000 cpu:       1.3
 (Enter /usr/local/apps/g03b05/g03/l502.exe)
 Closed shell SCF:
 Requested convergence on RMS density matrix=1.00D-08 within 128 cycles.
 Requested convergence on MAX density matrix=1.00D-06.
 Requested convergence on             energy=1.00D-06.
 No special actions if energy rises.
 Using DIIS extrapolation, IDIIS=  1040.
 Integral symmetry usage will be decided dynamically.
        57129 words used for storage of precomputed grid.
 IEnd=    171493 IEndB=    171493 NGot=  56000000 MDV=  55872538
 LenX=  55872538
 Fock matrices will be formed incrementally for  20 cycles.
 Integral accuracy reduced to 1.0D-05 until final iterations.

 Cycle   1  Pass 0  IDiag  1:
 FoFCou: FMM=F IPFlag=           0 FMFlag=           0 FMFlg1=           0
 NFxFlg=           0 DoJE=T BraDBF=F KetDBF=F FulRan=T.
 Petite list used in FoFCou.
 E= -257.993363271525    
 DIIS: error= 3.08D-03 at cycle   1 NSaved=   1.
 NSaved= 1 IEnMin= 1 EnMin= -257.993363271525     IErMin= 1 ErrMin= 3.08D-03
 ErrMax= 3.08D-03 EMaxC= 1.00D-01 BMatC= 2.20D-03 BMatP= 2.20D-03
 IDIUse=3 WtCom= 9.69D-01 WtEn= 3.08D-02
 Coeff-Com:   .100D+01
 Coeff-En:    .100D+01
 Coeff:       .100D+01
 Gap=      .201 Goal=   None    Shift=     .000
 GapD=     .201 DampG=1.000 DampE=1.000 DampFc=1.0000 IDamp=-1.
 RMSDP=7.27D-04 MaxDP=2.78D-02              OVMax= 1.89D-02

 Cycle   2  Pass 0  IDiag  1:
 RMSU=  7.23D-04    CP:  1.00D+00
 E= -257.995221826680     Delta-E=        -.001858555155 Rises=F Damp=F
 DIIS: error= 1.28D-03 at cycle   2 NSaved=   2.
 NSaved= 2 IEnMin= 2 EnMin= -257.995221826680     IErMin= 2 ErrMin= 1.28D-03
 ErrMax= 1.28D-03 EMaxC= 1.00D-01 BMatC= 3.23D-04 BMatP= 2.20D-03
 IDIUse=3 WtCom= 9.87D-01 WtEn= 1.28D-02
 Coeff-Com:   .212D+00  .788D+00
 Coeff-En:    .000D+00  .100D+01
 Coeff:       .209D+00  .791D+00
 Gap=      .187 Goal=   None    Shift=     .000
 RMSDP=2.16D-04 MaxDP=4.75D-03 DE=-1.86D-03 OVMax= 5.84D-03

 Cycle   3  Pass 0  IDiag  1:
 RMSU=  2.03D-04    CP:  1.00D+00  1.09D+00
 E= -257.995344741507     Delta-E=        -.000122914827 Rises=F Damp=F
 DIIS: error= 1.13D-03 at cycle   3 NSaved=   3.
 NSaved= 3 IEnMin= 3 EnMin= -257.995344741507     IErMin= 3 ErrMin= 1.13D-03
 ErrMax= 1.13D-03 EMaxC= 1.00D-01 BMatC= 1.81D-04 BMatP= 3.23D-04
 IDIUse=3 WtCom= 9.89D-01 WtEn= 1.13D-02
 Coeff-Com:   .279D-01  .429D+00  .543D+00
 Coeff-En:    .000D+00  .369D+00  .631D+00
 Coeff:       .276D-01  .429D+00  .544D+00
 Gap=      .189 Goal=   None    Shift=     .000
 RMSDP=1.04D-04 MaxDP=2.84D-03 DE=-1.23D-04 OVMax= 4.45D-03

 Cycle   4  Pass 0  IDiag  1:
 RMSU=  5.48D-05    CP:  1.00D+00  1.05D+00  5.96D-01
 E= -257.995473262940     Delta-E=        -.000128521433 Rises=F Damp=F
 DIIS: error= 5.80D-04 at cycle   4 NSaved=   4.
 NSaved= 4 IEnMin= 4 EnMin= -257.995473262940     IErMin= 4 ErrMin= 5.80D-04
 ErrMax= 5.80D-04 EMaxC= 1.00D-01 BMatC= 4.18D-05 BMatP= 1.81D-04
 IDIUse=3 WtCom= 9.94D-01 WtEn= 5.80D-03
 Coeff-Com:   .949D-02  .272D+00  .396D+00  .322D+00
 Coeff-En:    .000D+00  .000D+00  .139D+00  .861D+00
 Coeff:       .943D-02  .271D+00  .394D+00  .326D+00
 Gap=      .188 Goal=   None    Shift=     .000
 RMSDP=4.66D-05 MaxDP=1.40D-03 DE=-1.29D-04 OVMax= 2.90D-03

 Cycle   5  Pass 0  IDiag  1:
 RMSU=  1.47D-05    CP:  1.00D+00  1.04D+00  5.74D-01  2.05D-01
 E= -257.995509648165     Delta-E=        -.000036385225 Rises=F Damp=F
 DIIS: error= 9.65D-05 at cycle   5 NSaved=   5.
 NSaved= 5 IEnMin= 5 EnMin= -257.995509648165     IErMin= 5 ErrMin= 9.65D-05
 ErrMax= 9.65D-05 EMaxC= 1.00D-01 BMatC= 2.19D-06 BMatP= 4.18D-05
 IDIUse=1 WtCom= 1.00D+00 WtEn= 0.00D+00
 Coeff-Com:   .141D-02  .891D-01  .146D+00  .212D+00  .552D+00
 Coeff:       .141D-02  .891D-01  .146D+00  .212D+00  .552D+00
 Gap=      .188 Goal=   None    Shift=     .000
 RMSDP=1.20D-05 MaxDP=3.30D-04 DE=-3.64D-05 OVMax= 7.15D-04

 Cycle   6  Pass 0  IDiag  1:
 RMSU=  6.68D-06    CP:  1.00D+00  1.04D+00  5.79D-01  3.32D-01  5.22D-01
 E= -257.995511272281     Delta-E=        -.000001624116 Rises=F Damp=F
 DIIS: error= 6.74D-05 at cycle   6 NSaved=   6.
 NSaved= 6 IEnMin= 6 EnMin= -257.995511272281     IErMin= 6 ErrMin= 6.74D-05
 ErrMax= 6.74D-05 EMaxC= 1.00D-01 BMatC= 6.14D-07 BMatP= 2.19D-06
 IDIUse=1 WtCom= 1.00D+00 WtEn= 0.00D+00
 Coeff-Com:   .350D-03  .428D-01  .754D-01  .132D+00  .421D+00  .329D+00
 Coeff:       .350D-03  .428D-01  .754D-01  .132D+00  .421D+00  .329D+00
 Gap=      .188 Goal=   None    Shift=     .000
 RMSDP=5.30D-06 MaxDP=2.36D-04 DE=-1.62D-06 OVMax= 4.32D-04

 Initial convergence to 1.0D-05 achieved.  Increase integral accuracy.
 Cycle   7  Pass 1  IDiag  1:
 E= -257.995541377121     Delta-E=        -.000030104839 Rises=F Damp=F
 DIIS: error= 1.40D-05 at cycle   1 NSaved=   1.
 NSaved= 1 IEnMin= 1 EnMin= -257.995541377121     IErMin= 1 ErrMin= 1.40D-05
 ErrMax= 1.40D-05 EMaxC= 1.00D-01 BMatC= 5.94D-08 BMatP= 5.94D-08
 IDIUse=1 WtCom= 1.00D+00 WtEn= 0.00D+00
 Coeff-Com:   .100D+01
 Coeff:       .100D+01
 Gap=      .188 Goal=   None    Shift=     .000
 RMSDP=5.30D-06 MaxDP=2.36D-04 DE=-3.01D-05 OVMax= 2.15D-04

 Cycle   8  Pass 1  IDiag  1:
 RMSU=  5.57D-06    CP:  1.00D+00
 E= -257.995541291444     Delta-E=         .000000085676 Rises=F Damp=F
 DIIS: error= 2.80D-05 at cycle   2 NSaved=   2.
 NSaved= 2 IEnMin= 1 EnMin= -257.995541377121     IErMin= 1 ErrMin= 1.40D-05
 ErrMax= 2.80D-05 EMaxC= 1.00D-01 BMatC= 1.42D-07 BMatP= 5.94D-08
 IDIUse=1 WtCom= 1.00D+00 WtEn= 0.00D+00
 Coeff-Com:   .634D+00  .366D+00
 Coeff:       .634D+00  .366D+00
 Gap=      .188 Goal=   None    Shift=     .000
 RMSDP=3.11D-06 MaxDP=1.26D-04 DE= 8.57D-08 OVMax= 2.23D-04

 Cycle   9  Pass 1  IDiag  1:
 RMSU=  2.73D-06    CP:  1.00D+00  7.33D-01
 E= -257.995541403469     Delta-E=        -.000000112024 Rises=F Damp=F
 DIIS: error= 1.09D-05 at cycle   3 NSaved=   3.
 NSaved= 3 IEnMin= 3 EnMin= -257.995541403469     IErMin= 3 ErrMin= 1.09D-05
 ErrMax= 1.09D-05 EMaxC= 1.00D-01 BMatC= 2.13D-08 BMatP= 5.94D-08
 IDIUse=1 WtCom= 1.00D+00 WtEn= 0.00D+00
 Coeff-Com:   .319D-01  .276D+00  .692D+00
 Coeff:       .319D-01  .276D+00  .692D+00
 Gap=      .188 Goal=   None    Shift=     .000
 RMSDP=9.98D-07 MaxDP=4.01D-05 DE=-1.12D-07 OVMax= 7.31D-05

 Cycle  10  Pass 1  IDiag  1:
 RMSU=  4.56D-07    CP:  1.00D+00  8.11D-01  7.18D-01
 E= -257.995541420879     Delta-E=        -.000000017410 Rises=F Damp=F
 DIIS: error= 4.00D-06 at cycle   4 NSaved=   4.
 NSaved= 4 IEnMin= 4 EnMin= -257.995541420879     IErMin= 4 ErrMin= 4.00D-06
 ErrMax= 4.00D-06 EMaxC= 1.00D-01 BMatC= 2.59D-09 BMatP= 2.13D-08
 IDIUse=1 WtCom= 1.00D+00 WtEn= 0.00D+00
 Coeff-Com:   .844D-02  .191D+00  .500D+00  .300D+00
 Coeff:       .844D-02  .191D+00  .500D+00  .300D+00
 Gap=      .188 Goal=   None    Shift=     .000
 RMSDP=3.59D-07 MaxDP=1.24D-05 DE=-1.74D-08 OVMax= 2.48D-05

 Cycle  11  Pass 1  IDiag  1:
 RMSU=  1.21D-07    CP:  1.00D+00  8.10D-01  7.26D-01  2.62D-01
 E= -257.995541423189     Delta-E=        -.000000002311 Rises=F Damp=F
 DIIS: error= 8.53D-07 at cycle   5 NSaved=   5.
 NSaved= 5 IEnMin= 5 EnMin= -257.995541423189     IErMin= 5 ErrMin= 8.53D-07
 ErrMax= 8.53D-07 EMaxC= 1.00D-01 BMatC= 1.71D-10 BMatP= 2.59D-09
 IDIUse=1 WtCom= 1.00D+00 WtEn= 0.00D+00
 Coeff-Com:  -.201D-02  .771D-01  .209D+00  .204D+00  .512D+00
 Coeff:      -.201D-02  .771D-01  .209D+00  .204D+00  .512D+00
 Gap=      .188 Goal=   None    Shift=     .000
 RMSDP=7.49D-08 MaxDP=2.86D-06 DE=-2.31D-09 OVMax= 4.96D-06

 Cycle  12  Pass 1  IDiag  1:
 RMSU=  3.24D-08    CP:  1.00D+00  8.11D-01  7.30D-01  3.51D-01  5.61D-01
 E= -257.995541423328     Delta-E=        -.000000000138 Rises=F Damp=F
 DIIS: error= 1.99D-07 at cycle   6 NSaved=   6.
 NSaved= 6 IEnMin= 6 EnMin= -257.995541423328     IErMin= 6 ErrMin= 1.99D-07
 ErrMax= 1.99D-07 EMaxC= 1.00D-01 BMatC= 1.08D-11 BMatP= 1.71D-10
 IDIUse=1 WtCom= 1.00D+00 WtEn= 0.00D+00
 Coeff-Com:  -.169D-02  .397D-01  .109D+00  .113D+00  .324D+00  .416D+00
 Coeff:      -.169D-02  .397D-01  .109D+00  .113D+00  .324D+00  .416D+00
 Gap=      .188 Goal=   None    Shift=     .000
 RMSDP=2.05D-08 MaxDP=8.37D-07 DE=-1.38D-10 OVMax= 1.25D-06

 Cycle  13  Pass 1  IDiag  1:
 RMSU=  1.05D-08    CP:  1.00D+00  8.11D-01  7.28D-01  3.42D-01  5.85D-01
                    CP:  5.10D-01
 E= -257.995541423356     Delta-E=        -.000000000028 Rises=F Damp=F
 DIIS: error= 4.73D-08 at cycle   7 NSaved=   7.
 NSaved= 7 IEnMin= 7 EnMin= -257.995541423356     IErMin= 7 ErrMin= 4.73D-08
 ErrMax= 4.73D-08 EMaxC= 1.00D-01 BMatC= 6.67D-13 BMatP= 1.08D-11
 IDIUse=1 WtCom= 1.00D+00 WtEn= 0.00D+00
 Coeff-Com:  -.623D-03  .128D-01  .356D-01  .385D-01  .121D+00  .238D+00
 Coeff-Com:   .554D+00
 Coeff:      -.623D-03  .128D-01  .356D-01  .385D-01  .121D+00  .238D+00
 Coeff:       .554D+00
 Gap=      .188 Goal=   None    Shift=     .000
 RMSDP=5.84D-09 MaxDP=1.59D-07 DE=-2.81D-11 OVMax= 2.74D-07

 SCF Done:  E(RPBE-PBE) =  -257.995541423     A.U. after   13 cycles
             Convg  =     .5844D-08             -V/T =  2.0064
             S**2   =    .0000
 KE= 2.563444255746D+02 PE=-9.347004786799D+02 EE= 2.542420764307D+02
 Leave Link  502 at Fri May 25 19:01:36 2007, MaxMem=   56000000 cpu:     141.3
 (Enter /usr/local/apps/g03b05/g03/l701.exe)
 Compute integral first derivatives.
 ... and contract with generalized density number  0.
 Leave Link  701 at Fri May 25 19:01:37 2007, MaxMem=   56000000 cpu:        .6
 (Enter /usr/local/apps/g03b05/g03/l702.exe)
 L702 exits ... SP integral derivatives will be done elsewhere.
 Leave Link  702 at Fri May 25 19:01:37 2007, MaxMem=   56000000 cpu:        .0
 (Enter /usr/local/apps/g03b05/g03/l703.exe)
 Compute integral first derivatives, UseDBF=F.
 Integral derivatives from FoFDir, PRISM(SPDF).
 Calling FoFCou, ICntrl=  2527 FMM=F ISym2X=1 I1Cent= 0 ISCF1= 0.
 FoFCou: FMM=F IPFlag=           0 FMFlag=           0 FMFlg1=           0
 NFxFlg=           0 DoJE=F BraDBF=F KetDBF=F FulRan=T.
 Petite list used in FoFCou.
 Leave Link  703 at Fri May 25 19:03:07 2007, MaxMem=   56000000 cpu:      90.2
 (Enter /usr/local/apps/g03b05/g03/l716.exe)
 Dipole        = 9.20596931D-01 1.77740285D+00-7.56030814D-33
 ***** Axes restored to original set *****
 -------------------------------------------------------------------
 Center     Atomic                   Forces (Hartrees/Bohr)
 Number     Number              X              Y              Z
 -------------------------------------------------------------------
    1          7            .000715642    -.009739871     .000000000
    2          7           -.009094985     .009733112     .000000000
    3          7            .005120529    -.001759746     .000000000
    4          1           -.000150014     .000637816     .000000000
    5          7            .002676916    -.003344854     .000000000
    6          6            .000754971     .004260992     .000000000
    7          1           -.000023060     .000212551     .000000000
 -------------------------------------------------------------------
 Cartesian Forces:  Max      .009739871 RMS      .004021969
 Leave Link  716 at Fri May 25 19:03:07 2007, MaxMem=   56000000 cpu:        .0
 (Enter /usr/local/apps/g03b05/g03/l103.exe)

 GradGradGradGradGradGradGradGradGradGradGradGradGradGradGradGradGradGrad
 Berny optimization.
 Internal  Forces:  Max      .010469035 RMS      .002578477
 Search for a local minimum.
 Step number   2 out of a maximum of  36
 All quantities printed in internal units (Hartrees-Bohrs-Radians)
 Update second derivatives using D2CorX and points  1  2
 Trust test= 1.06D+00 RLast= 1.37D-01 DXMaxT set to 4.11D-01
     Eigenvalues ---     .02506    .02639    .02675    .02835    .15996
     Eigenvalues ---     .16000    .22581    .24569    .37716    .48752
     Eigenvalues ---     .50632    .55571    .59264    .66904    .73010
     Eigenvalues --- 1000.000001000.000001000.000001000.000001000.00000
     Eigenvalues --- 1000.000001000.000001000.000001000.000001000.00000
     Eigenvalues --- 1000.00000
 RFO step:  Lambda=-1.48339036D-04.
 Quartic linear search produced a step of   .14041.
 Iteration  1 RMS(Cart)=   .00478837 RMS(Int)=   .00002118
 Iteration  2 RMS(Cart)=   .00001985 RMS(Int)=   .00001000
 Iteration  3 RMS(Cart)=   .00000000 RMS(Int)=   .00001000
 Variable       Old X    -DE/DX   Delta X   Delta X   Delta X     New X
                                 (Linear)    (Quad)   (Total)
    R1        2.43791    .01047    .01006    .00692    .01700   2.45491
    R2        2.58597    .00340    .00719    .00182    .00902   2.59498
    R3        2.55667    .00408    .00710    .00183    .00894   2.56562
    R4        1.91783    .00064    .00551   -.00293    .00258   1.92041
    R5        2.55958   -.00065    .00645   -.00794   -.00150   2.55808
    R6        2.49513    .00347    .00824   -.00201    .00621   2.50134
    R7        2.05174    .00004    .00477   -.00355    .00121   2.05296
    A1        1.94611   -.00066    .00032    .00248    .00282   1.94893
    A2        1.85501   -.00310   -.00095   -.01008   -.01100   1.84401
    A3        2.10412   -.00144   -.00049   -.00540   -.00588   2.09824
    A4        1.88943    .00265    .00057    .00934    .00991   1.89934
    A5        2.28963   -.00121   -.00009   -.00394   -.00403   2.28561
    A6        1.84015    .00013   -.00083   -.00008   -.00093   1.83922
    A7        1.89407    .00097    .00088   -.00165   -.00079   1.89328
    A8        2.17604   -.00071   -.00089   -.00053   -.00141   2.17462
    A9        2.21308   -.00026    .00001    .00218    .00221   2.21528
    D1         .00000    .00000    .00000    .00000    .00000    .00000
    D2         .00000    .00000    .00000    .00000    .00000    .00000
    D3        3.14159    .00000    .00000    .00000    .00000   3.14159
    D4         .00000    .00000    .00000    .00000    .00000    .00000
    D5         .00000    .00000    .00000    .00000    .00000    .00000
    D6        3.14159    .00000    .00000    .00000    .00000   3.14159
    D7        3.14159    .00000    .00000    .00000    .00000   3.14159
    D8         .00000    .00000    .00000    .00000    .00000    .00000
    D9         .00000    .00000    .00000    .00000    .00000    .00000
   D10        3.14159    .00000    .00000    .00000    .00000   3.14159
         Item               Value     Threshold  Converged?
 Maximum Force             .010469      .000450     NO 
 RMS     Force             .002578      .000300     NO 
 Maximum Displacement      .016463      .001800     NO 
 RMS     Displacement      .004787      .001200     NO 
 Predicted change in Energy=-1.579686D-04
 GradGradGradGradGradGradGradGradGradGradGradGradGradGradGradGradGradGrad

 Leave Link  103 at Fri May 25 19:03:07 2007, MaxMem=   56000000 cpu:        .0
 (Enter /usr/local/apps/g03b05/g03/l202.exe)
                          Input orientation:                          
 ---------------------------------------------------------------------
 Center     Atomic     Atomic              Coordinates (Angstroms)
 Number     Number      Type              X           Y           Z
 ---------------------------------------------------------------------
    1          7             0        -.735680    -.934855     .000000
    2          7             0       -1.134334     .301546     .000000
    3          7             0        -.002522    1.051386     .000000
    4          1             0        -.061106    2.065932     .000000
    5          7             0         .634517   -1.025730     .000000
    6          6             0        1.069250     .224496     .000000
    7          1             0        2.103897     .555739     .000000
 ---------------------------------------------------------------------
                    Distance matrix (angstroms):
                    1          2          3          4          5
     1  N     .000000
     2  N    1.299082    .000000
     3  N    2.117233   1.357666    .000000
     4  H    3.075675   2.065158   1.016236    .000000
     5  N    1.373206   2.211446   2.172609   3.168953    .000000
     6  C    2.145197   2.204931   1.353678   2.160693   1.323653
     7  H    3.207034   3.248192   2.163948   2.639683   2.158732
                    6          7
     6  C     .000000
     7  H    1.086377    .000000
 Stoichiometry    CH2N4
 Framework group  CS[SG(CH2N4)]
 Deg. of freedom    11
 Full point group                 CS      NOp   2
 Largest Abelian subgroup         CS      NOp   2
 Largest concise Abelian subgroup C1      NOp   1
                         Standard orientation:                         
 ---------------------------------------------------------------------
 Center     Atomic     Atomic              Coordinates (Angstroms)
 Number     Number      Type              X           Y           Z
 ---------------------------------------------------------------------
    1          7             0        -.727058    -.929176     .000000
    2          7             0       -1.129505     .305995     .000000
    3          7             0         .000000    1.059306     .000000
    4          1             0        -.061697    2.073667     .000000
    5          7             0         .643411   -1.015845     .000000
    6          6             0        1.074305     .235709     .000000
    7          1             0        2.107931     .570125     .000000
 ---------------------------------------------------------------------
 Rotational constants (GHZ):     10.4185854     10.1843119      5.1500584
 Leave Link  202 at Fri May 25 19:03:08 2007, MaxMem=   56000000 cpu:        .2
 (Enter /usr/local/apps/g03b05/g03/l301.exe)
 Standard basis: 6-31G(2df,p) (6D, 7F)
 There are   103 symmetry adapted basis functions of A'  symmetry.
 There are    47 symmetry adapted basis functions of A"  symmetry.
 Integral buffers will be    131072 words long.
 Raffenetti 2 integral format.
 Two-electron integral symmetry is turned on.
   150 basis functions,   234 primitive gaussians,   165 cartesian basis functions
    18 alpha electrons       18 beta electrons
       nuclear repulsion energy       165.6260463033 Hartrees.
 IExCor=1009 DFT=T Ex=PBE Corr=PBE ExCW=0 ScaHFX=   .000000
 ScaDFX=  1.000000  1.000000  1.000000  1.000000
 IRadAn=      0 IRanWt=     -1 IRanGd=            0 ICorTp=0
 NAtoms=    7 NActive=    7 NUniq=    7 SFac= 1.00D+00 NAtFMM=   60 Big=F
 Leave Link  301 at Fri May 25 19:03:08 2007, MaxMem=   56000000 cpu:        .1
 (Enter /usr/local/apps/g03b05/g03/l302.exe)
 NPDir=0 NMtPBC=     1 NCelOv=     1 NCel=       1 NClECP=     1 NCelD=      1
         NCelK=      1 NCelE2=     1 NClLst=     1 CellRange=      .0.
 One-electron integrals computed using PRISM.
 NBasis=   150 RedAO= T  NBF=   103    47
 NBsUse=   150 1.00D-06 NBFU=   103    47
 Precomputing XC quadrature grid using
 IXCGrd= 2 IRadAn=           0 IRanWt=          -1 IRanGd=           0.
 NRdTot=     431 NPtTot=       54084 NUsed=       57130 NTot=       57162
 NSgBfM=   165   165   165   165.
 Leave Link  302 at Fri May 25 19:03:09 2007, MaxMem=   56000000 cpu:        .5
 (Enter /usr/local/apps/g03b05/g03/l303.exe)
 DipDrv:  MaxL=1.
 Leave Link  303 at Fri May 25 19:03:09 2007, MaxMem=   56000000 cpu:        .0
 (Enter /usr/local/apps/g03b05/g03/l401.exe)
 Initial guess read from the read-write file:
 Guess basis will be translated and rotated to current coordinates.
 Initial guess orbital symmetries:
       Occupied  (A') (A') (A') (A') (A') (A') (A') (A') (A') (A')
                 (A') (A') (A") (A') (A") (A") (A') (A')
       Virtual   (A") (A") (A') (A') (A') (A') (A') (A') (A') (A')
                 (A") (A') (A') (A') (A') (A') (A") (A') (A") (A")
                 (A') (A') (A") (A') (A") (A') (A') (A") (A") (A')
                 (A') (A") (A") (A') (A') (A') (A') (A") (A") (A')
                 (A') (A") (A') (A') (A') (A") (A') (A') (A") (A')
                 (A') (A') (A') (A') (A') (A") (A') (A') (A") (A')
                 (A') (A") (A') (A") (A') (A') (A") (A") (A') (A')
                 (A") (A') (A') (A") (A') (A") (A') (A') (A') (A")
                 (A') (A') (A') (A') (A") (A') (A') (A") (A") (A')
                 (A") (A") (A') (A") (A") (A") (A') (A") (A') (A")
                 (A') (A") (A") (A') (A') (A") (A") (A") (A') (A")
                 (A') (A') (A') (A') (A') (A') (A') (A') (A") (A')
                 (A') (A') (A') (A') (A') (A') (A') (A') (A') (A')
                 (A') (A')
 The electronic state of the initial guess is 1-A'.
 Leave Link  401 at Fri May 25 19:03:09 2007, MaxMem=   56000000 cpu:        .3
 (Enter /usr/local/apps/g03b05/g03/l502.exe)
 Closed shell SCF:
 Requested convergence on RMS density matrix=1.00D-08 within 128 cycles.
 Requested convergence on MAX density matrix=1.00D-06.
 Requested convergence on             energy=1.00D-06.
 No special actions if energy rises.
 Using DIIS extrapolation, IDIIS=  1040.
 Integral symmetry usage will be decided dynamically.
        57129 words used for storage of precomputed grid.
 IEnd=    171493 IEndB=    171493 NGot=  56000000 MDV=  55872538
 LenX=  55872538
 Fock matrices will be formed incrementally for  20 cycles.

 Cycle   1  Pass 1  IDiag  1:
 FoFCou: FMM=F IPFlag=           0 FMFlag=           0 FMFlg1=           0
 NFxFlg=           0 DoJE=T BraDBF=F KetDBF=F FulRan=T.
 Petite list used in FoFCou.
 E= -257.995609666268    
 DIIS: error= 6.19D-04 at cycle   1 NSaved=   1.
 NSaved= 1 IEnMin= 1 EnMin= -257.995609666268     IErMin= 1 ErrMin= 6.19D-04
 ErrMax= 6.19D-04 EMaxC= 1.00D-01 BMatC= 9.83D-05 BMatP= 9.83D-05
 IDIUse=3 WtCom= 9.94D-01 WtEn= 6.19D-03
 Coeff-Com:   .100D+01
 Coeff-En:    .100D+01
 Coeff:       .100D+01
 Gap=      .188 Goal=   None    Shift=     .000
 RMSDP=1.40D-04 MaxDP=6.27D-03              OVMax= 3.98D-03

 Cycle   2  Pass 1  IDiag  1:
 RMSU=  1.39D-04    CP:  1.00D+00
 E= -257.995703212108     Delta-E=        -.000093545840 Rises=F Damp=F
 DIIS: error= 2.78D-04 at cycle   2 NSaved=   2.
 NSaved= 2 IEnMin= 2 EnMin= -257.995703212108     IErMin= 2 ErrMin= 2.78D-04
 ErrMax= 2.78D-04 EMaxC= 1.00D-01 BMatC= 1.49D-05 BMatP= 9.83D-05
 IDIUse=3 WtCom= 9.97D-01 WtEn= 2.78D-03
 Coeff-Com:   .195D+00  .805D+00
 Coeff-En:    .000D+00  .100D+01
 Coeff:       .195D+00  .805D+00
 Gap=      .187 Goal=   None    Shift=     .000
 RMSDP=6.39D-05 MaxDP=1.79D-03 DE=-9.35D-05 OVMax= 3.26D-03

 Cycle   3  Pass 1  IDiag  1:
 RMSU=  6.31D-05    CP:  1.00D+00  1.06D+00
 E= -257.995681028628     Delta-E=         .000022183481 Rises=F Damp=F
 DIIS: error= 5.55D-04 at cycle   3 NSaved=   3.
 NSaved= 3 IEnMin= 2 EnMin= -257.995703212108     IErMin= 2 ErrMin= 2.78D-04
 ErrMax= 5.55D-04 EMaxC= 1.00D-01 BMatC= 3.67D-05 BMatP= 1.49D-05
 IDIUse=3 WtCom= 2.98D-01 WtEn= 7.02D-01
 Coeff-Com:   .328D-01  .604D+00  .363D+00
 Coeff-En:    .000D+00  .682D+00  .318D+00
 Coeff:       .978D-02  .659D+00  .331D+00
 Gap=      .187 Goal=   None    Shift=     .000
 RMSDP=3.82D-05 MaxDP=1.02D-03 DE= 2.22D-05 OVMax= 2.31D-03

 Cycle   4  Pass 1  IDiag  1:
 RMSU=  1.25D-05    CP:  1.00D+00  1.05D+00  4.29D-01
 E= -257.995715249355     Delta-E=        -.000034220728 Rises=F Damp=F
 DIIS: error= 7.82D-05 at cycle   4 NSaved=   4.
 NSaved= 4 IEnMin= 4 EnMin= -257.995715249355     IErMin= 4 ErrMin= 7.82D-05
 ErrMax= 7.82D-05 EMaxC= 1.00D-01 BMatC= 1.06D-06 BMatP= 1.49D-05
 IDIUse=1 WtCom= 1.00D+00 WtEn= 0.00D+00
 Coeff-Com:   .432D-02  .323D+00  .172D+00  .500D+00
 Coeff:       .432D-02  .323D+00  .172D+00  .500D+00
 Gap=      .187 Goal=   None    Shift=     .000
 RMSDP=8.64D-06 MaxDP=2.17D-04 DE=-3.42D-05 OVMax= 2.26D-04

 Cycle   5  Pass 1  IDiag  1:
 RMSU=  2.71D-06    CP:  1.00D+00  1.03D+00  3.62D-01  4.91D-01
 E= -257.995716136356     Delta-E=        -.000000887000 Rises=F Damp=F
 DIIS: error= 1.91D-05 at cycle   5 NSaved=   5.
 NSaved= 5 IEnMin= 5 EnMin= -257.995716136356     IErMin= 5 ErrMin= 1.91D-05
 ErrMax= 1.91D-05 EMaxC= 1.00D-01 BMatC= 6.17D-08 BMatP= 1.06D-06
 IDIUse=1 WtCom= 1.00D+00 WtEn= 0.00D+00
 Coeff-Com:   .811D-03  .142D+00  .806D-01  .267D+00  .510D+00
 Coeff:       .811D-03  .142D+00  .806D-01  .267D+00  .510D+00
 Gap=      .187 Goal=   None    Shift=     .000
 RMSDP=2.00D-06 MaxDP=8.36D-05 DE=-8.87D-07 OVMax= 1.26D-04

 Cycle   6  Pass 1  IDiag  1:
 RMSU=  1.33D-06    CP:  1.00D+00  1.03D+00  3.73D-01  4.94D-01  5.21D-01
 E= -257.995716172213     Delta-E=        -.000000035858 Rises=F Damp=F
 DIIS: error= 1.24D-05 at cycle   6 NSaved=   6.
 NSaved= 6 IEnMin= 6 EnMin= -257.995716172213     IErMin= 6 ErrMin= 1.24D-05
 ErrMax= 1.24D-05 EMaxC= 1.00D-01 BMatC= 2.14D-08 BMatP= 6.17D-08
 IDIUse=1 WtCom= 1.00D+00 WtEn= 0.00D+00
 Coeff-Com:   .176D-03  .580D-01  .355D-01  .125D+00  .382D+00  .399D+00
 Coeff:       .176D-03  .580D-01  .355D-01  .125D+00  .382D+00  .399D+00
 Gap=      .187 Goal=   None    Shift=     .000
 RMSDP=1.08D-06 MaxDP=3.57D-05 DE=-3.59D-08 OVMax= 7.13D-05

 Cycle   7  Pass 1  IDiag  1:
 RMSU=  4.32D-07    CP:  1.00D+00  1.03D+00  3.77D-01  5.02D-01  6.13D-01
                    CP:  3.03D-01
 E= -257.995716189949     Delta-E=        -.000000017735 Rises=F Damp=F
 DIIS: error= 4.08D-06 at cycle   7 NSaved=   7.
 NSaved= 7 IEnMin= 7 EnMin= -257.995716189949     IErMin= 7 ErrMin= 4.08D-06
 ErrMax= 4.08D-06 EMaxC= 1.00D-01 BMatC= 2.34D-09 BMatP= 2.14D-08
 IDIUse=1 WtCom= 1.00D+00 WtEn= 0.00D+00
 Coeff-Com:   .817D-04  .279D-01  .174D-01  .643D-01  .222D+00  .288D+00
 Coeff-Com:   .381D+00
 Coeff:       .817D-04  .279D-01  .174D-01  .643D-01  .222D+00  .288D+00
 Coeff:       .381D+00
 Gap=      .187 Goal=   None    Shift=     .000
 RMSDP=3.45D-07 MaxDP=1.29D-05 DE=-1.77D-08 OVMax= 2.51D-05

 Cycle   8  Pass 1  IDiag  1:
 RMSU=  1.64D-07    CP:  1.00D+00  1.03D+00  3.77D-01  5.02D-01  6.12D-01
                    CP:  4.24D-01  4.12D-01
 E= -257.995716191818     Delta-E=        -.000000001870 Rises=F Damp=F
 DIIS: error= 1.32D-06 at cycle   8 NSaved=   8.
 NSaved= 8 IEnMin= 8 EnMin= -257.995716191818     IErMin= 8 ErrMin= 1.32D-06
 ErrMax= 1.32D-06 EMaxC= 1.00D-01 BMatC= 3.32D-10 BMatP= 2.34D-09
 IDIUse=1 WtCom= 1.00D+00 WtEn= 0.00D+00
 Coeff-Com:  -.136D-04  .727D-02  .450D-02  .189D-01  .742D-01  .122D+00
 Coeff-Com:   .281D+00  .492D+00
 Coeff:      -.136D-04  .727D-02  .450D-02  .189D-01  .742D-01  .122D+00
 Coeff:       .281D+00  .492D+00
 Gap=      .187 Goal=   None    Shift=     .000
 RMSDP=9.94D-08 MaxDP=5.00D-06 DE=-1.87D-09 OVMax= 7.79D-06

 Cycle   9  Pass 1  IDiag  1:
 RMSU=  3.85D-08    CP:  1.00D+00  1.03D+00  3.77D-01  5.03D-01  6.13D-01
                    CP:  4.20D-01  5.04D-01  5.29D-01
 E= -257.995716192073     Delta-E=        -.000000000254 Rises=F Damp=F
 DIIS: error= 2.77D-07 at cycle   9 NSaved=   9.
 NSaved= 9 IEnMin= 9 EnMin= -257.995716192073     IErMin= 9 ErrMin= 2.77D-07
 ErrMax= 2.77D-07 EMaxC= 1.00D-01 BMatC= 1.78D-11 BMatP= 3.32D-10
 IDIUse=1 WtCom= 1.00D+00 WtEn= 0.00D+00
 Coeff-Com:  -.581D-05  .371D-02  .226D-02  .101D-01  .412D-01  .705D-01
 Coeff-Com:   .170D+00  .318D+00  .384D+00
 Coeff:      -.581D-05  .371D-02  .226D-02  .101D-01  .412D-01  .705D-01
 Coeff:       .170D+00  .318D+00  .384D+00
 Gap=      .187 Goal=   None    Shift=     .000
 RMSDP=2.65D-08 MaxDP=1.04D-06 DE=-2.54D-10 OVMax= 2.05D-06

 Cycle  10  Pass 1  IDiag  1:
 RMSU=  1.43D-08    CP:  1.00D+00  1.03D+00  3.77D-01  5.03D-01  6.12D-01
                    CP:  4.19D-01  5.02D-01  5.52D-01  4.60D-01
 E= -257.995716192087     Delta-E=        -.000000000014 Rises=F Damp=F
 DIIS: error= 9.80D-08 at cycle  10 NSaved=  10.
 NSaved=10 IEnMin=10 EnMin= -257.995716192087     IErMin=10 ErrMin= 9.80D-08
 ErrMax= 9.80D-08 EMaxC= 1.00D-01 BMatC= 1.46D-12 BMatP= 1.78D-11
 IDIUse=1 WtCom= 1.00D+00 WtEn= 0.00D+00
 Coeff-Com:  -.116D-05  .101D-02  .564D-03  .284D-02  .119D-01  .213D-01
 Coeff-Com:   .549D-01  .106D+00  .243D+00  .559D+00
 Coeff:      -.116D-05  .101D-02  .564D-03  .284D-02  .119D-01  .213D-01
 Coeff:       .549D-01  .106D+00  .243D+00  .559D+00
 Gap=      .187 Goal=   None    Shift=     .000
 RMSDP=7.63D-09 MaxDP=3.39D-07 DE=-1.38D-11 OVMax= 6.73D-07

 SCF Done:  E(RPBE-PBE) =  -257.995716192     A.U. after   10 cycles
             Convg  =     .7630D-08             -V/T =  2.0067
             S**2   =    .0000
 KE= 2.562912646694D+02 PE=-9.336863003266D+02 EE= 2.537732731618D+02
 Leave Link  502 at Fri May 25 19:05:11 2007, MaxMem=   56000000 cpu:     121.7
 (Enter /usr/local/apps/g03b05/g03/l701.exe)
 Compute integral first derivatives.
 ... and contract with generalized density number  0.
 Leave Link  701 at Fri May 25 19:05:12 2007, MaxMem=   56000000 cpu:        .6
 (Enter /usr/local/apps/g03b05/g03/l702.exe)
 L702 exits ... SP integral derivatives will be done elsewhere.
 Leave Link  702 at Fri May 25 19:05:12 2007, MaxMem=   56000000 cpu:        .0
 (Enter /usr/local/apps/g03b05/g03/l703.exe)
 Compute integral first derivatives, UseDBF=F.
 Integral derivatives from FoFDir, PRISM(SPDF).
 Calling FoFCou, ICntrl=  2527 FMM=F ISym2X=1 I1Cent= 0 ISCF1= 0.
 FoFCou: FMM=F IPFlag=           0 FMFlag=           0 FMFlg1=           0
 NFxFlg=           0 DoJE=F BraDBF=F KetDBF=F FulRan=T.
 Petite list used in FoFCou.
 Leave Link  703 at Fri May 25 19:06:42 2007, MaxMem=   56000000 cpu:      90.2
 (Enter /usr/local/apps/g03b05/g03/l716.exe)
 Dipole        = 9.23040808D-01 1.77821750D+00 0.00000000D+00
 ***** Axes restored to original set *****
 -------------------------------------------------------------------
 Center     Atomic                   Forces (Hartrees/Bohr)
 Number     Number              X              Y              Z
 -------------------------------------------------------------------
    1          7            .001144564    -.003839190     .000000000
    2          7            .000806527     .002302873     .000000000
    3          7            .001695771     .000303034     .000000000
    4          1            .000131979    -.000279454     .000000000
    5          7           -.001329204    -.000051236     .000000000
    6          6           -.002044207     .001618605     .000000000
    7          1           -.000405430    -.000054632     .000000000
 -------------------------------------------------------------------
 Cartesian Forces:  Max      .003839190 RMS      .001268699
 Leave Link  716 at Fri May 25 19:06:42 2007, MaxMem=   56000000 cpu:        .0
 (Enter /usr/local/apps/g03b05/g03/l103.exe)

 GradGradGradGradGradGradGradGradGradGradGradGradGradGradGradGradGradGrad
 Berny optimization.
 Internal  Forces:  Max      .002699975 RMS      .000919545
 Search for a local minimum.
 Step number   3 out of a maximum of  36
 All quantities printed in internal units (Hartrees-Bohrs-Radians)
 Update second derivatives using D2CorX and points  1  2  3
 Trust test= 1.11D+00 RLast= 2.80D-02 DXMaxT set to 4.11D-01
     Eigenvalues ---     .02506    .02638    .02675    .02835    .15942
     Eigenvalues ---     .16009    .23397    .28287    .37632    .40240
     Eigenvalues ---     .49350    .52758    .63207    .66034    .68805
     Eigenvalues --- 1000.000001000.000001000.000001000.000001000.00000
     Eigenvalues --- 1000.000001000.000001000.000001000.000001000.00000
     Eigenvalues --- 1000.00000
 RFO step:  Lambda=-5.06654254D-05.
 Quartic linear search produced a step of   .03695.
 Iteration  1 RMS(Cart)=   .00252215 RMS(Int)=   .00000322
 Iteration  2 RMS(Cart)=   .00000252 RMS(Int)=   .00000152
 Iteration  3 RMS(Cart)=   .00000000 RMS(Int)=   .00000152
 Variable       Old X    -DE/DX   Delta X   Delta X   Delta X     New X
                                 (Linear)    (Quad)   (Total)
    R1        2.45491    .00270    .00063    .00564    .00627   2.46118
    R2        2.59498   -.00142    .00033   -.00127   -.00093   2.59405
    R3        2.56562   -.00016    .00033    .00088    .00121   2.56683
    R4        1.92041   -.00029    .00010   -.00017   -.00008   1.92033
    R5        2.55808   -.00227   -.00006   -.00422   -.00428   2.55380
    R6        2.50134    .00092    .00023    .00201    .00224   2.50358
    R7        2.05296   -.00040    .00004   -.00082   -.00077   2.05218
    A1        1.94893   -.00172    .00010   -.00528   -.00517   1.94376
    A2        1.84401    .00097   -.00041    .00407    .00366   1.84768
    A3        2.09824    .00046   -.00022    .00217    .00195   2.10019
    A4        1.89934   -.00072    .00037   -.00325   -.00289   1.89646
    A5        2.28561    .00026   -.00015    .00108    .00093   2.28654
    A6        1.83922    .00048   -.00003    .00142    .00138   1.84060
    A7        1.89328    .00099   -.00003    .00304    .00301   1.89629
    A8        2.17462   -.00058   -.00005   -.00227   -.00233   2.17230
    A9        2.21528   -.00041    .00008   -.00076   -.00068   2.21460
    D1         .00000    .00000    .00000    .00000    .00000    .00000
    D2         .00000    .00000    .00000    .00000    .00000    .00000
    D3        3.14159    .00000    .00000    .00000    .00000   3.14159
    D4         .00000    .00000    .00000    .00000    .00000    .00000
    D5         .00000    .00000    .00000    .00000    .00000    .00000
    D6        3.14159    .00000    .00000    .00000    .00000   3.14159
    D7        3.14159    .00000    .00000    .00000    .00000   3.14159
    D8         .00000    .00000    .00000    .00000    .00000    .00000
    D9         .00000    .00000    .00000    .00000    .00000    .00000
   D10        3.14159    .00000    .00000    .00000    .00000   3.14159
         Item               Value     Threshold  Converged?
 Maximum Force             .002700      .000450     NO 
 RMS     Force             .000920      .000300     NO 
 Maximum Displacement      .008105      .001800     NO 
 RMS     Displacement      .002522      .001200     NO 
 Predicted change in Energy=-2.554319D-05
 GradGradGradGradGradGradGradGradGradGradGradGradGradGradGradGradGradGrad

 Leave Link  103 at Fri May 25 19:06:42 2007, MaxMem=   56000000 cpu:        .0
 (Enter /usr/local/apps/g03b05/g03/l202.exe)
                          Input orientation:                          
 ---------------------------------------------------------------------
 Center     Atomic     Atomic              Coordinates (Angstroms)
 Number     Number      Type              X           Y           Z
 ---------------------------------------------------------------------
    1          7             0        -.736174    -.939144     .000000
    2          7             0       -1.132621     .301450     .000000
    3          7             0        -.001075    1.052847     .000000
    4          1             0        -.058755    2.067404     .000000
    5          7             0         .633759   -1.026467     .000000
    6          6             0        1.067399     .225393     .000000
    7          1             0        2.101490     .557032     .000000
 ---------------------------------------------------------------------
                    Distance matrix (angstroms):
                    1          2          3          4          5
     1  N     .000000
     2  N    1.302399    .000000
     3  N    2.123300   1.358305    .000000
     4  H    3.081920   2.066829   1.016195    .000000
     5  N    1.372713   2.209855   2.174066   3.170428    .000000
     6  C    2.146864   2.201334   1.351414   2.158988   1.324838
     7  H    3.207940   3.244193   2.160234   2.635883   2.159097
                    6          7
     6  C     .000000
     7  H    1.085968    .000000
 Stoichiometry    CH2N4
 Framework group  CS[SG(CH2N4)]
 Deg. of freedom    11
 Full point group                 CS      NOp   2
 Largest Abelian subgroup         CS      NOp   2
 Largest concise Abelian subgroup C1      NOp   1
                         Standard orientation:                         
 ---------------------------------------------------------------------
 Center     Atomic     Atomic              Coordinates (Angstroms)
 Number     Number      Type              X           Y           Z
 ---------------------------------------------------------------------
    1          7             0        -.726388    -.933927     .000000
[...]
                1             2             3             4             5
      1   .399053D+00
      2   .578862D-01   .542571D+00
      3   .000000D+00   .000000D+00   .118243D+00
      4  -.117811D+00   .312236D-01   .000000D+00   .496936D+00
      5   .909298D-01  -.285764D+00   .000000D+00  -.836731D-01   .447614D+00
      6   .000000D+00   .000000D+00  -.918935D-01   .000000D+00   .000000D+00
      7  -.227963D-01  -.752395D-01   .000000D+00  -.199503D+00  -.474023D-01
      8  -.327078D-02  -.144354D+00   .000000D+00  -.181549D-01  -.101762D+00
      9   .000000D+00   .000000D+00   .249738D-01   .000000D+00   .000000D+00
     10  -.906702D-02  -.101452D-01   .000000D+00   .138966D-01  -.266701D-01
     11   .225713D-03  -.145642D-02   .000000D+00   .568612D-02  -.987711D-02
     12   .000000D+00   .000000D+00   .764138D-02   .000000D+00   .000000D+00
     13  -.172931D+00   .118081D-01   .000000D+00  -.827676D-01   .109664D+00
     14  -.297325D-01  -.884934D-01   .000000D+00   .123543D-01  -.429747D-01
     15   .000000D+00   .000000D+00  -.857182D-01   .000000D+00   .000000D+00
     16  -.766194D-01  -.174667D-01   .000000D+00  -.110134D+00  -.428236D-01
     17  -.111360D+00  -.172700D-01   .000000D+00   .484610D-01  -.136036D-02
     18   .000000D+00   .000000D+00   .182264D-01   .000000D+00   .000000D+00
     19   .171651D-03   .193350D-02   .000000D+00  -.616956D-03  -.247191D-04
     20  -.467858D-02  -.523216D-02   .000000D+00   .410295D-02  -.587576D-02
     21   .000000D+00   .000000D+00   .852702D-02   .000000D+00   .000000D+00
                6             7             8             9            10
      6   .108783D+00
      7   .000000D+00   .523643D+00
      8   .000000D+00  -.908637D-01   .948812D+00
      9  -.650413D-01   .000000D+00   .000000D+00   .871119D-01
     10   .000000D+00  -.652533D-01   .316446D-01   .000000D+00   .542490D-01
     11   .000000D+00   .271081D-01  -.436570D+00   .000000D+00  -.232455D-01
     12  -.114921D-01   .000000D+00   .000000D+00  -.634210D-02   .000000D+00
     13   .000000D+00   .177370D-01  -.271190D-01   .000000D+00  -.626631D-02
     14   .000000D+00   .778373D-01  -.975627D-01   .000000D+00   .879442D-02
     15   .338902D-01   .000000D+00   .000000D+00   .202424D-01   .000000D+00
     16   .000000D+00  -.241717D+00   .117824D+00   .000000D+00   .130491D-01
     17   .000000D+00   .847022D-01  -.179951D+00   .000000D+00   .199166D-01
     18   .199566D-01   .000000D+00   .000000D+00  -.578364D-01   .000000D+00
     19   .000000D+00  -.121104D-01  -.100597D-01   .000000D+00  -.608103D-03
     20   .000000D+00   .238580D-01   .113882D-01   .000000D+00  -.294810D-03
     21   .579701D-02   .000000D+00   .000000D+00  -.310837D-02   .000000D+00
               11            12            13            14            15
     11   .451114D+00
     12   .000000D+00   .129531D-01
     13  -.250466D-02   .000000D+00   .365904D+00
     14  -.812878D-03   .000000D+00   .275083D-02   .568728D+00
     15   .000000D+00   .686551D-02   .000000D+00   .000000D+00   .103772D+00
     16  -.762481D-02   .000000D+00  -.120717D+00  -.718127D-01   .000000D+00
     17  -.229345D-02   .000000D+00  -.676909D-01  -.339266D+00   .000000D+00
     18   .000000D+00  -.891319D-02   .000000D+00   .000000D+00  -.739293D-01
     19   .355092D-03   .000000D+00  -.959668D-03  -.191680D-03   .000000D+00
     20  -.103823D-03   .000000D+00  -.269084D-01   .381682D-03   .000000D+00
     21   .000000D+00  -.712585D-03   .000000D+00   .000000D+00  -.512292D-02
               16            17            18            19            20
     16   .857288D+00
     17   .108698D+00   .616531D+00
     18   .000000D+00   .000000D+00   .128934D+00
     19  -.321149D+00  -.827273D-01   .000000D+00   .335273D+00
     20  -.867940D-01  -.763897D-01   .000000D+00   .907148D-01   .758315D-01
     21   .000000D+00   .000000D+00  -.264381D-01   .000000D+00   .000000D+00
               21
     21   .210579D-01
 Force constants in internal coordinates: 
                1             2             3             4             5
      1   .377596D+00
      2   .405619D-01   .257226D+00
      3   .464698D-01   .592147D-01   .300816D+00
      4  -.142587D-02  -.461425D-02   .356207D-02   .452470D+00
      5   .686592D-01   .368295D-01   .214354D-01  -.749594D-03   .387983D+00
      6   .623833D-01   .349409D-01   .415926D-01   .152681D-02   .330335D-01
      7  -.371887D-02  -.118805D-02   .579063D-03   .345614D-03   .246015D-02
      8  -.471789D-01  -.357475D-01  -.401399D-01  -.238759D-02   .121859D+00
      9  -.236784D-01  -.120336D-01  -.231186D-01   .636400D-02  -.327400D-01
     10   .473972D-02  -.363038D-01   .149024D-01   .375864D-02   .960601D-02
     11  -.130988D-01   .714561D-01  -.818958D-02  -.867230D-02  -.328753D-01
     12   .835906D-02  -.351523D-01  -.671285D-02   .491366D-02   .232693D-01
     13  -.149817D-02  -.578337D-02   .107005D+00  -.186025D-03  -.286390D-01
     14   .854543D-01  -.178916D-01  -.355568D-01   .488192D-02  -.276048D-01
     15  -.416365D-01   .112829D-01   .120586D-01  -.223293D-02   .287358D-01
     16  -.438178D-01   .660867D-02   .234982D-01  -.264899D-02  -.113101D-02
     17   .000000D+00   .000000D+00   .000000D+00   .000000D+00   .000000D+00
     18   .000000D+00   .000000D+00   .000000D+00   .000000D+00   .000000D+00
     19   .000000D+00   .000000D+00   .000000D+00   .000000D+00   .000000D+00
     20   .000000D+00   .000000D+00   .000000D+00   .000000D+00   .000000D+00
     21   .000000D+00   .000000D+00   .000000D+00   .000000D+00   .000000D+00
     22   .000000D+00   .000000D+00   .000000D+00   .000000D+00   .000000D+00
     23   .000000D+00   .000000D+00   .000000D+00   .000000D+00   .000000D+00
     24   .000000D+00   .000000D+00   .000000D+00   .000000D+00   .000000D+00
     25   .000000D+00   .000000D+00   .000000D+00   .000000D+00   .000000D+00
     26   .000000D+00   .000000D+00   .000000D+00   .000000D+00   .000000D+00
                6             7             8             9            10
      6   .434417D+00
      7   .549856D-02   .363834D+00
      8  -.277216D-01  -.187493D-02   .226491D+00
      9   .132230D+00   .102591D-02  -.148861D+00   .195597D+00
     10   .200526D-01  -.248761D-02  -.325317D-01   .605912D-01   .845883D-01
     11  -.352468D-01   .375292D-02   .403772D-01  -.103464D+00  -.669365D-01
     12   .151942D-01  -.126531D-02  -.784550D-02   .428729D-01  -.176518D-01
     13  -.466565D-01   .553123D-02  -.141452D+00   .528677D-01   .101994D-01
     14  -.226048D-01  -.843512D-02   .234440D-01   .386019D-02   .286775D-01
     15  -.686052D-03   .563988D-02  -.311942D-02  -.948665D-02  -.153969D-01
     16   .232909D-01   .279524D-02  -.203246D-01   .562647D-02  -.132807D-01
     17   .000000D+00   .000000D+00   .000000D+00   .000000D+00   .000000D+00
     18   .000000D+00   .000000D+00   .000000D+00   .000000D+00   .000000D+00
     19   .000000D+00   .000000D+00   .000000D+00   .000000D+00   .000000D+00
     20   .000000D+00   .000000D+00   .000000D+00   .000000D+00   .000000D+00
     21   .000000D+00   .000000D+00   .000000D+00   .000000D+00   .000000D+00
     22   .000000D+00   .000000D+00   .000000D+00   .000000D+00   .000000D+00
     23   .000000D+00   .000000D+00   .000000D+00   .000000D+00   .000000D+00
     24   .000000D+00   .000000D+00   .000000D+00   .000000D+00   .000000D+00
     25   .000000D+00   .000000D+00   .000000D+00   .000000D+00   .000000D+00
     26   .000000D+00   .000000D+00   .000000D+00   .000000D+00   .000000D+00
               11            12            13            14            15
     11   .124402D+00
     12  -.574654D-01   .751172D-01
     13   .727371D-03  -.109268D-01   .172517D+00
     14  -.620423D-01   .333648D-01  -.846600D-01   .119398D+00
     15   .333509D-01  -.179541D-01   .389174D-01  -.596622D-01   .795760D-01
     16   .286914D-01  -.154107D-01   .457426D-01  -.597358D-01  -.199138D-01
     17   .000000D+00   .000000D+00   .000000D+00   .000000D+00   .000000D+00
     18   .000000D+00   .000000D+00   .000000D+00   .000000D+00   .000000D+00
     19   .000000D+00   .000000D+00   .000000D+00   .000000D+00   .000000D+00
     20   .000000D+00   .000000D+00   .000000D+00   .000000D+00   .000000D+00
     21   .000000D+00   .000000D+00   .000000D+00   .000000D+00   .000000D+00
     22   .000000D+00   .000000D+00   .000000D+00   .000000D+00   .000000D+00
     23   .000000D+00   .000000D+00   .000000D+00   .000000D+00   .000000D+00
     24   .000000D+00   .000000D+00   .000000D+00   .000000D+00   .000000D+00
     25   .000000D+00   .000000D+00   .000000D+00   .000000D+00   .000000D+00
     26   .000000D+00   .000000D+00   .000000D+00   .000000D+00   .000000D+00
               16            17            18            19            20
     16   .796496D-01
     17   .000000D+00   .259986D-01
     18   .000000D+00  -.223071D-01   .274237D-01
     19   .000000D+00  -.112817D-01   .768299D-02   .919826D-02
     20   .000000D+00  -.198557D-01   .876342D-02   .106103D-01   .234264D-01
     21   .000000D+00   .652371D-02   .812455D-02  -.613861D-02  -.186863D-01
     22   .000000D+00   .843356D-02  -.373340D-02  -.843022D-03  -.993899D-02
     23   .000000D+00  -.328385D-02   .936042D-02  -.452336D-02  -.402631D-02
     24   .000000D+00  -.137400D-02  -.249753D-02   .772230D-03   .472097D-02
     25   .000000D+00   .886849D-02  -.207602D-01  -.678271D-03   .636060D-02
     26   .000000D+00   .690311D-02  -.855747D-02  -.612782D-02  -.264099D-02
               21            22            23            24            25
     21   .243669D-01
     22   .791829D-02   .127570D-01
     23   .100140D-01  -.248636D-02   .105825D-01
     24  -.643466D-02   .235232D-02  -.191780D-02   .686918D-02
     25  -.195587D-01  -.268383D-02  -.115071D-01   .536776D-02   .239026D-01
     26  -.263182D-02  -.766318D-02   .135667D-02  -.367469D-02   .653712D-02
               26
     26   .117148D-01
 Leave Link  716 at Fri May 25 19:39:46 2007, MaxMem=   56000000 cpu:        .0
 (Enter /usr/local/apps/g03b05/g03/l103.exe)

 GradGradGradGradGradGradGradGradGradGradGradGradGradGradGradGradGradGrad
 Berny optimization.
 Internal  Forces:  Max      .000335565 RMS      .000107492
 Search for a local minimum.
 Step number   1 out of a maximum of   2
 All quantities printed in internal units (Hartrees-Bohrs-Radians)
 Second derivative matrix not updated -- analytic derivatives used.
     Eigenvalues ---     .00778    .02358    .06920    .07569    .09342
     Eigenvalues ---     .09775    .18028    .22849    .32598    .36082
     Eigenvalues ---     .39816    .44455    .45982    .54374    .59867
     Eigenvalues --- 1000.000001000.000001000.000001000.000001000.00000
     Eigenvalues --- 1000.000001000.000001000.000001000.000001000.00000
     Eigenvalues --- 1000.00000
 Angle between quadratic step and forces=  25.61 degrees.
 Linear search not attempted -- first point.
 Iteration  1 RMS(Cart)=   .00027970 RMS(Int)=   .00000004
 Iteration  2 RMS(Cart)=   .00000003 RMS(Int)=   .00000001
 Variable       Old X    -DE/DX   Delta X   Delta X   Delta X     New X
                                 (Linear)    (Quad)   (Total)
    R1        2.46220    .00011    .00000    .00042    .00042   2.46262
    R2        2.59017   -.00034    .00000   -.00133   -.00133   2.58883
    R3        2.56509   -.00016    .00000   -.00054   -.00054   2.56455
    R4        1.91952    .00008    .00000    .00016    .00016   1.91968
    R5        2.55188    .00021    .00000    .00049    .00049   2.55236
    R6        2.50284    .00023    .00000    .00056    .00056   2.50340
    R7        2.05194    .00000    .00000   -.00002   -.00002   2.05193
    A1        1.94591    .00008    .00000    .00016    .00016   1.94608
    A2        1.84418    .00010    .00000    .00010    .00010   1.84427
    A3        2.09848    .00007    .00000    .00015    .00015   2.09863
    A4        1.89923   -.00014    .00000   -.00014   -.00014   1.89909
    A5        2.28547    .00007    .00000   -.00001   -.00001   2.28547
    A6        1.84057   -.00005    .00000    .00016    .00016   1.84073
    A7        1.89489    .00001    .00000   -.00028   -.00028   1.89461
    A8        2.17422    .00001    .00000    .00032    .00032   2.17454
    A9        2.21407   -.00002    .00000   -.00004   -.00004   2.21404
    D1         .00000    .00000    .00000    .00000    .00000    .00000
    D2         .00000    .00000    .00000    .00000    .00000    .00000
    D3        3.14159    .00000    .00000    .00000    .00000   3.14159
    D4         .00000    .00000    .00000    .00000    .00000    .00000
    D5         .00000    .00000    .00000    .00000    .00000    .00000
    D6        3.14159    .00000    .00000    .00000    .00000   3.14159
    D7        3.14159    .00000    .00000    .00000    .00000   3.14159
    D8         .00000    .00000    .00000    .00000    .00000    .00000
    D9         .00000    .00000    .00000    .00000    .00000    .00000
   D10        3.14159    .00000    .00000    .00000    .00000   3.14159
         Item               Value     Threshold  Converged?
 Maximum Force             .000336      .000450     YES
 RMS     Force             .000107      .000300     YES
 Maximum Displacement      .000720      .001800     YES
 RMS     Displacement      .000280      .001200     YES
 Predicted change in Energy=-4.361113D-07
 Optimization completed.
    -- Stationary point found.
                           ----------------------------
                           !   Optimized Parameters   !
                           ! (Angstroms and Degrees)  !
 --------------------------                            --------------------------
 ! Name  Definition              Value          Derivative Info.                !
 --------------------------------------------------------------------------------
 ! R1    R(1,2)                  1.3029         -DE/DX =    0.0001              !
 ! R2    R(1,5)                  1.3707         -DE/DX =   -0.0003              !
 ! R3    R(2,3)                  1.3574         -DE/DX =   -0.0002              !
 ! R4    R(3,4)                  1.0158         -DE/DX =    0.0001              !
 ! R5    R(3,6)                  1.3504         -DE/DX =    0.0002              !
 ! R6    R(5,6)                  1.3244         -DE/DX =    0.0002              !
 ! R7    R(6,7)                  1.0858         -DE/DX =    0.0                 !
 ! A1    A(2,1,5)              111.4926         -DE/DX =    0.0001              !
 ! A2    A(1,2,3)              105.6634         -DE/DX =    0.0001              !
 ! A3    A(2,3,4)              120.2343         -DE/DX =    0.0001              !
 ! A4    A(2,3,6)              108.8177         -DE/DX =   -0.0001              !
 ! A5    A(4,3,6)              130.948          -DE/DX =    0.0001              !
 ! A6    A(1,5,6)              105.457          -DE/DX =    0.0                 !
 ! A7    A(3,6,5)              108.5692         -DE/DX =    0.0                 !
 ! A8    A(3,6,7)              124.5737         -DE/DX =    0.0                 !
 ! A9    A(5,6,7)              126.8571         -DE/DX =    0.0                 !
 ! D1    D(5,1,2,3)              0.0            -DE/DX =    0.0                 !
 ! D2    D(2,1,5,6)              0.0            -DE/DX =    0.0                 !
 ! D3    D(1,2,3,4)            180.0            -DE/DX =    0.0                 !
 ! D4    D(1,2,3,6)              0.0            -DE/DX =    0.0                 !
 ! D5    D(2,3,6,5)              0.0            -DE/DX =    0.0                 !
 ! D6    D(2,3,6,7)            180.0            -DE/DX =    0.0                 !
 ! D7    D(4,3,6,5)            180.0            -DE/DX =    0.0                 !
 ! D8    D(4,3,6,7)              0.0            -DE/DX =    0.0                 !
 ! D9    D(1,5,6,3)              0.0            -DE/DX =    0.0                 !
 ! D10   D(1,5,6,7)            180.0            -DE/DX =    0.0                 !
 --------------------------------------------------------------------------------
 GradGradGradGradGradGradGradGradGradGradGradGradGradGradGradGradGradGrad

 Leave Link  103 at Fri May 25 19:39:46 2007, MaxMem=   56000000 cpu:        .0
 (Enter /usr/local/apps/g03b05/g03/l9999.exe)
 1\1\GINC-HAL2\Freq\RPBEPBE\6-31G(2df,p)\C1H2N4\RDJ3\25-May-2007\0\\#P 
 GEOM=ALLCHECK GUESS=READ SCRF=CHECK GENCHK RPBEPBE/6-31G(2DF,P) FREQ\\
 1htz casno=288948 method=61 basis=19\\0,1\N,-0.7288192545,-0.929848864
 4,0.\N,-1.1276716113,0.3105395739,0.\N,0.0043813445,1.0595128324,0.\H,
 -0.0532861088,2.0736394247,0.\N,0.6390306116,-1.0175165723,0.\C,1.0729
 411371,0.2338323,0.\H,2.1071916547,0.564557989,0.\\Version=IBM64-RS600
 0-G03RevB.05\State=1-A'\HF=-257.9957422\RMSD=2.770e-09\RMSF=1.609e-04\
 Dipole=0.9300854,1.7778211,0.\DipoleDeriv=0.1398663,-0.0789854,0.,-0.1
 332245,-0.1315926,0.,0.,0.,-0.1442111,-0.1844872,0.3674501,0.,0.284482
 9,0.1056263,0.,0.,0.,-0.1045111,-0.0373895,-0.147382,0.,-0.0956129,-0.
 4120851,0.,0.,0.,-0.1028609,0.1869252,-0.0084063,0.,-0.0218137,0.23465
 44,0.,0.,0.,0.3112724,-0.3882252,0.067665,0.,0.0081172,-0.2389932,0.,0
 .,0.,-0.1940486,0.2197742,-0.1676359,0.,-0.0079659,0.350072,0.,0.,0.,0
 .080572,0.0635364,-0.0327056,0.,-0.0339831,0.0923182,0.,0.,0.,0.153787
 2\Polar=40.3637837,1.0359136,39.6520357,0.,0.,18.6315046\PG=CS [SG(C1H
 2N4)]\NImag=0\\0.39905329,0.05788618,0.54257069,0.,0.,0.11824305,-0.11
 781140,0.03122364,0.,0.49693626,0.09092977,-0.28576444,0.,-0.08367307,
 0.44761408,0.,0.,-0.09189349,0.,0.,0.10878305,-0.02279626,-0.07523955,
 0.,-0.19950263,-0.04740231,0.,0.52364271,-0.00327078,-0.14435426,0.,-0
 .01815492,-0.10176173,0.,-0.09086369,0.94881184,0.,0.,0.02497385,0.,0.
 ,-0.06504127,0.,0.,0.08711194,-0.00906702,-0.01014518,0.,0.01389660,-0
 .02667015,0.,-0.06525326,0.03164465,0.,0.05424904,0.00022571,-0.001456
 42,0.,0.00568612,-0.00987711,0.,0.02710808,-0.43657048,0.,-0.02324554,
 0.45111416,0.,0.,0.00764138,0.,0.,-0.01149211,0.,0.,-0.00634210,0.,0.,
 0.01295309,-0.17293091,0.01180810,0.,-0.08276761,0.10966404,0.,0.01773
 704,-0.02711904,0.,-0.00626631,-0.00250466,0.,0.36590408,-0.02973248,-
 0.08849338,0.,0.01235433,-0.04297468,0.,0.07783727,-0.09756265,0.,0.00
 879442,-0.00081288,0.,0.00275083,0.56872800,0.,0.,-0.08571824,0.,0.,0.
 03389021,0.,0.,0.02024236,0.,0.,0.00686551,0.,0.,0.10377236,-0.0766193
 5,-0.01746670,0.,-0.11013426,-0.04282356,0.,-0.24171718,0.11782352,0.,
 0.01304905,-0.00762481,0.,-0.12071663,-0.07181268,0.,0.85728757,-0.111
 35983,-0.01727003,0.,0.04846095,-0.00136036,0.,0.08470217,-0.17995096,
 0.,0.01991661,-0.00229345,0.,-0.06769087,-0.33926609,0.,0.10869827,0.6
 1653057,0.,0.,0.01822642,0.,0.,0.01995659,0.,0.,-0.05783641,0.,0.,-0.0
 0891319,0.,0.,-0.07392929,0.,0.,0.12893395,0.00017165,0.00193350,0.,-0
 .00061696,-0.00002472,0.,-0.01211043,-0.01005974,0.,-0.00060810,0.0003
 5509,0.,-0.00095967,-0.00019168,0.,-0.32114921,-0.08272730,0.,0.335272
 72,-0.00467858,-0.00523216,0.,0.00410295,-0.00587576,0.,0.02385803,0.0
 1138825,0.,-0.00029481,-0.00010382,0.,-0.02690840,0.00038168,0.,-0.086
 79404,-0.07638968,0.,0.09071484,0.07583150,0.,0.,0.00852702,0.,0.,0.00
 579701,0.,0.,-0.00310837,0.,0.,-0.00071258,0.,0.,-0.00512292,0.,0.,-0.
 02643807,0.,0.,0.02105792\\-0.00035271,0.00007196,0.,-0.00017840,-0.00
 010267,0.,0.00031477,-0.00012500,0.,-0.00000924,-0.00007798,0.,0.00039
 480,0.00025602,0.,-0.00016033,-0.00005048,0.,-0.00000889,0.00002816,0.
 \\\@


 Some scientists claim that hydrogen, because it is so
 plentiful, is the basic building block of the universe. 
 I dispute that. I say that stupidity is far more
 abundant than hydrogen, and THAT is the basic building 
 block of the universe.
                   --Frank Zappa
 Job cpu time:  0 days  0 hours 23 minutes  4.3 seconds.
 File lengths (MBytes):  RWF=     27 Int=      0 D2E=      0 Chk=      7 Scr=      1
 Normal termination of Gaussian 03 at Fri May 25 19:39:46 2007.
