 Entering Gaussian System, Link 0=/usr/local/gaussian03/g03/g03
 Initial command:
 /usr/local/gaussian03/g03/l1.exe /chkpnt/Gau-760421.inp -scrdir=/chkpnt/
 Entering Link 1 = /usr/local/gaussian03/g03/l1.exe PID=    760377.
  
 Copyright (c) 1988,1990,1992,1993,1995,1998,2003,2004, Gaussian, Inc.
                  All Rights Reserved.
  
 This is the Gaussian(R) 03 program.  It is based on the
 the Gaussian(R) 98 system (copyright 1998, Gaussian, Inc.),
 the Gaussian(R) 94 system (copyright 1995, Gaussian, Inc.),
 the Gaussian 92(TM) system (copyright 1992, Gaussian, Inc.),
 the Gaussian 90(TM) system (copyright 1990, Gaussian, Inc.),
 the Gaussian 88(TM) system (copyright 1988, Gaussian, Inc.),
 the Gaussian 86(TM) system (copyright 1986, Carnegie Mellon
 University), and the Gaussian 82(TM) system (copyright 1983,
 Carnegie Mellon University). Gaussian is a federally registered
 trademark of Gaussian, Inc.
  
 This software contains proprietary and confidential information,
 including trade secrets, belonging to Gaussian, Inc.
  
 This software is provided under written license and may be
 used, copied, transmitted, or stored only in accord with that
 written license.
  
 The following legend is applicable only to US Government
 contracts under FAR:
  
                    RESTRICTED RIGHTS LEGEND
  
 Use, reproduction and disclosure by the US Government is
 subject to restrictions as set forth in subparagraphs (a)
 and (c) of the Commercial Computer Software - Restricted
 Rights clause in FAR 52.227-19.
  
 Gaussian, Inc.
 340 Quinnipiac St., Bldg. 40, Wallingford CT 06492
  
  
 ---------------------------------------------------------------
 Warning -- This program may not be used in any manner that
 competes with the business of Gaussian, Inc. or will provide
 assistance to any competitor of Gaussian, Inc.  The licensee
 of this program is prohibited from giving any competitor of
 Gaussian, Inc. access to this program.  By using this program,
 the user acknowledges that Gaussian, Inc. is engaged in the
 business of creating and licensing software in the field of
 computational chemistry and represents and warrants to the
 licensee that it is not a competitor of Gaussian, Inc. and that
 it will not use this program in any manner prohibited above.
 ---------------------------------------------------------------
  

 Cite this work as:
 Gaussian 03, Revision C.02,
 M. J. Frisch, G. W. Trucks, H. B. Schlegel, G. E. Scuseria, 
 M. A. Robb, J. R. Cheeseman, J. A. Montgomery, Jr., T. Vreven, 
 K. N. Kudin, J. C. Burant, J. M. Millam, S. S. Iyengar, J. Tomasi, 
 V. Barone, B. Mennucci, M. Cossi, G. Scalmani, N. Rega, 
 G. A. Petersson, H. Nakatsuji, M. Hada, M. Ehara, K. Toyota, 
 R. Fukuda, J. Hasegawa, M. Ishida, T. Nakajima, Y. Honda, O. Kitao, 
 H. Nakai, M. Klene, X. Li, J. E. Knox, H. P. Hratchian, J. B. Cross, 
 C. Adamo, J. Jaramillo, R. Gomperts, R. E. Stratmann, O. Yazyev, 
 A. J. Austin, R. Cammi, C. Pomelli, J. W. Ochterski, P. Y. Ayala, 
 K. Morokuma, G. A. Voth, P. Salvador, J. J. Dannenberg, 
 V. G. Zakrzewski, S. Dapprich, A. D. Daniels, M. C. Strain, 
 O. Farkas, D. K. Malick, A. D. Rabuck, K. Raghavachari, 
 J. B. Foresman, J. V. Ortiz, Q. Cui, A. G. Baboul, S. Clifford, 
 J. Cioslowski, B. B. Stefanov, G. Liu, A. Liashenko, P. Piskorz, 
 I. Komaromi, R. L. Martin, D. J. Fox, T. Keith, M. A. Al-Laham, 
 C. Y. Peng, A. Nanayakkara, M. Challacombe, P. M. W. Gill, 
 B. Johnson, W. Chen, M. W. Wong, C. Gonzalez, and J. A. Pople, 
 Gaussian, Inc., Wallingford CT, 2004.
 
 ******************************************
 Gaussian 03:  SGI64-G03RevC.02 12-Jun-2004
                 8-Jan-2005 
 ******************************************
 %mem=24000000
 --------------------
 #MP3/6-31G* opt freq
 --------------------
 1/18=20,38=1/1,3;
 2/9=110,17=6,18=5,40=1/2;
 3/5=1,6=6,7=1,11=9,16=1,25=1,30=1/1,2,3;
 4//1;
 5/5=2,38=5/2;
 8/6=4,9=120000,10=2/1,4;
 9/5=2,15=1/13;
 11/28=-10,29=200,42=3/11;
 10/5=8/2;
 6/7=2,8=2,9=2,10=2/1;
 7/12=3/1,2,3,16;
 1/18=20/3(1);
 99//99;
 2/9=110/2;
 3/5=1,6=6,7=1,11=9,16=1,25=1,30=1/1,2,3;
 4/5=5,16=3/1;
 5/5=2,38=5/2;
 8/6=4,9=120000,10=2/1,4;
 9/5=2,15=1/13;
 11/28=-10,29=200,42=3/11;
 10/5=8/2;
 7/12=3/1,2,3,16;
 1/18=20/3(-9);
 2/9=110/2;
 6/7=2,8=2,9=2,10=2/1;
 99//99;
 ----------------------------------------------------------
 1H tetrazole c CH-NH-N=N-N= casno=288948 method=62 basis=1
 ----------------------------------------------------------
 Symbolic Z-matrix:
 Charge =  0 Multiplicity = 1
 7                    -1.12329  -0.25456   0. 
 7                    -0.67158   0.91328   0. 
 7                     0.65055   0.80984   0. 
 1                     1.224     1.62189   0. 
 7                    -0.13465  -1.16105   0. 
 6                     0.96218  -0.48332   0. 
 1                     1.95569  -0.87454   0. 
 

 GradGradGradGradGradGradGradGradGradGradGradGradGradGradGradGradGradGrad
 Berny optimization.
 Initialization pass.
                           ----------------------------
                           !    Initial Parameters    !
                           ! (Angstroms and Degrees)  !
 --------------------------                            --------------------------
 ! Name  Definition              Value          Derivative Info.                !
 --------------------------------------------------------------------------------
 ! R1    R(1,2)                  1.2522         estimate D2E/DX2                !
 ! R2    R(1,5)                  1.3413         estimate D2E/DX2                !
 ! R3    R(2,3)                  1.3262         estimate D2E/DX2                !
 ! R4    R(3,4)                  0.9941         estimate D2E/DX2                !
 ! R5    R(3,6)                  1.3302         estimate D2E/DX2                !
 ! R6    R(5,6)                  1.2893         estimate D2E/DX2                !
 ! R7    R(6,7)                  1.0678         estimate D2E/DX2                !
 ! A1    A(2,1,5)              111.3714         estimate D2E/DX2                !
 ! A2    A(1,2,3)              106.673          estimate D2E/DX2                !
 ! A3    A(2,3,4)              120.7559         estimate D2E/DX2                !
 ! A4    A(2,3,6)              108.0227         estimate D2E/DX2                !
 ! A5    A(4,3,6)              131.2214         estimate D2E/DX2                !
 ! A6    A(1,5,6)              105.77           estimate D2E/DX2                !
 ! A7    A(3,6,5)              108.1628         estimate D2E/DX2                !
 ! A8    A(3,6,7)              125.0426         estimate D2E/DX2                !
 ! A9    A(5,6,7)              126.7945         estimate D2E/DX2                !
 ! D1    D(5,1,2,3)              0.0            estimate D2E/DX2                !
 ! D2    D(2,1,5,6)              0.0            estimate D2E/DX2                !
 ! D3    D(1,2,3,4)            180.0            estimate D2E/DX2                !
 ! D4    D(1,2,3,6)              0.0            estimate D2E/DX2                !
 ! D5    D(2,3,6,5)              0.0            estimate D2E/DX2                !
 ! D6    D(2,3,6,7)            180.0            estimate D2E/DX2                !
 ! D7    D(4,3,6,5)            180.0            estimate D2E/DX2                !
 ! D8    D(4,3,6,7)              0.0            estimate D2E/DX2                !
 ! D9    D(1,5,6,3)              0.0            estimate D2E/DX2                !
 ! D10   D(1,5,6,7)            180.0            estimate D2E/DX2                !
 --------------------------------------------------------------------------------
 Trust Radius=3.00D-01 FncErr=1.00D-07 GrdErr=1.00D-07
 Number of steps in this run=  36 maximum allowed number of steps= 100.
 GradGradGradGradGradGradGradGradGradGradGradGradGradGradGradGradGradGrad

                          Input orientation:                          
 ---------------------------------------------------------------------
 Center     Atomic     Atomic              Coordinates (Angstroms)
 Number     Number      Type              X           Y           Z
 ---------------------------------------------------------------------
    1          7             0       -1.123293   -0.254560    0.000000
    2          7             0       -0.671576    0.913277    0.000000
    3          7             0        0.650545    0.809842    0.000000
    4          1             0        1.224004    1.621891    0.000000
    5          7             0       -0.134646   -1.161053    0.000000
    6          6             0        0.962183   -0.483316    0.000000
    7          1             0        1.955691   -0.874535    0.000000
 ---------------------------------------------------------------------
                    Distance matrix (angstroms):
                    1          2          3          4          5
     1  N    0.000000
     2  N    1.252155   0.000000
     3  N    2.068684   1.326161   0.000000
     4  H    3.005141   2.023699   0.994122   0.000000
     5  N    1.341325   2.142694   2.121545   3.096887   0.000000
     6  C    2.097985   2.149335   1.330179   2.121426   1.289326
     7  H    3.140782   3.177861   2.130852   2.601444   2.109882
                    6          7
     6  C    0.000000
     7  H    1.067760   0.000000
 Stoichiometry    CH2N4
 Framework group  CS[SG(CH2N4)]
 Deg. of freedom    11
 Full point group                 CS      NOp   2
 Largest Abelian subgroup         CS      NOp   2
 Largest concise Abelian subgroup C1      NOp   1
                         Standard orientation:                         
 ---------------------------------------------------------------------
 Center     Atomic     Atomic              Coordinates (Angstroms)
 Number     Number      Type              X           Y           Z
 ---------------------------------------------------------------------
    1          7             0       -0.716312   -0.901934    0.000000
    2          7             0       -1.095520    0.291420    0.000000
    3          7             0        0.000000    1.038775    0.000000
    4          1             0       -0.061479    2.030994    0.000000
    5          7             0        0.622151   -0.989495    0.000000
    6          6             0        1.052813    0.225779    0.000000
    7          1             0        2.072370    0.542976    0.000000
 ---------------------------------------------------------------------
 Rotational constants (GHZ):     10.9198664     10.7343935      5.4131678
 Standard basis: 6-31G(d) (6D, 7F)
 There are    59 symmetry adapted basis functions of A'  symmetry.
 There are    20 symmetry adapted basis functions of A"  symmetry.
 Integral buffers will be    131072 words long.
 Raffenetti 1 integral format.
 Two-electron integral symmetry is turned on.
    79 basis functions,   148 primitive gaussians,    79 cartesian basis functions
    18 alpha electrons       18 beta electrons
       nuclear repulsion energy       169.8288291610 Hartrees.
 NAtoms=    7 NActive=    7 NUniq=    7 SFac= 1.00D+00 NAtFMM=   60 Big=F
 One-electron integrals computed using PRISM.
 NBasis=    79 RedAO= T  NBF=    59    20
 NBsUse=    79 1.00D-06 NBFU=    59    20
 Harris functional with IExCor=  205 diagonalized for initial guess.
 ExpMin= 1.61D-01 ExpMax= 4.17D+03 ExpMxC= 6.27D+02 IAcc=1 IRadAn=         1 AccDes= 1.00D-06
 HarFok:  IExCor= 205 AccDes= 1.00D-06 IRadAn=         1 IDoV=1
 ScaDFX=  1.000000  1.000000  1.000000  1.000000
 Initial guess orbital symmetries:
       Occupied  (A') (A') (A') (A') (A') (A') (A') (A') (A') (A')
                 (A') (A') (A") (A') (A") (A') (A") (A')
       Virtual   (A") (A") (A') (A') (A') (A') (A') (A') (A') (A")
                 (A') (A') (A') (A') (A') (A") (A') (A") (A') (A")
                 (A") (A') (A') (A') (A') (A') (A') (A') (A') (A")
                 (A") (A") (A') (A') (A") (A") (A') (A') (A') (A')
                 (A') (A') (A") (A") (A') (A') (A") (A") (A') (A')
                 (A") (A') (A') (A') (A') (A') (A') (A') (A') (A')
                 (A')
 The electronic state of the initial guess is 1-A'.
 Requested convergence on RMS density matrix=1.00D-08 within 128 cycles.
 Requested convergence on MAX density matrix=1.00D-06.
 Requested convergence on             energy=1.00D-06.
 No special actions if energy rises.
 Keep R1 integrals in memory in canonical form, NReq=     6110276.
 SCF Done:  E(RHF) =  -256.754076242     A.U. after   15 cycles
             Convg  =    0.4983D-08             -V/T =  2.0017
             S**2   =   0.0000
 ExpMin= 1.61D-01 ExpMax= 4.17D+03 ExpMxC= 6.27D+02 IAcc=1 IRadAn=         1 AccDes= 1.00D-06
 HarFok:  IExCor= 205 AccDes= 1.00D-06 IRadAn=         1 IDoV=1
 ScaDFX=  1.000000  1.000000  1.000000  1.000000
 Range of M.O.s used for correlation:     6    79
 NBasis=    79 NAE=    18 NBE=    18 NFC=     5 NFV=     0
 NROrb=     74 NOA=    13 NOB=    13 NVA=    61 NVB=    61
 Spin components of T(2) and E(2):
     alpha-alpha T2 =       0.3617245185D-01 E2=     -0.1081713502D+00
     alpha-beta  T2 =       0.1818959456D+00 E2=     -0.5573829110D+00
     beta-beta   T2 =       0.3617245185D-01 E2=     -0.1081713502D+00
 ANorm=    0.1119928948D+01
 E2=       -0.7737256114D+00 EUMP2=       -0.25752780185360D+03
 R2 and R3 integrals will be kept in memory, NReq=    10808760.
 DD1Dir will call FoFMem   1 times, MxPair=       182
 NAB=    91 NAA=     0 NBB=     0.
 E3=       -0.21499086D-03        EUMP3=      -0.25752801684D+03
 Largest amplitude= 6.34D-02
 Discarding MO integrals.
 DoAtom=TTTTTTT
          Differentiating once with respect to electric field.
                with respect to dipole field.
          Differentiating once with respect to nuclear coordinates.
          Store integrals in memory, NReq=     5815204.
          There are   1 degrees of freedom in the 1st order CPHF.
     1 vectors were produced by pass  0.
 AX will form   1 AO Fock derivatives at one time.
     1 vectors were produced by pass  1.
     1 vectors were produced by pass  2.
     1 vectors were produced by pass  3.
     1 vectors were produced by pass  4.
     1 vectors were produced by pass  5.
     1 vectors were produced by pass  6.
     1 vectors were produced by pass  7.
     1 vectors were produced by pass  8.
     1 vectors were produced by pass  9.
     1 vectors were produced by pass 10.
     1 vectors were produced by pass 11.
     1 vectors were produced by pass 12.
     1 vectors were produced by pass 13.
     1 vectors were produced by pass 14.
 Inv2:  IOpt= 1 Iter= 1 AM= 6.09D-16 Conv= 1.00D-12.
 Inverted reduced A of dimension   15 with in-core refinement.
 End of Minotr Frequency-dependent properties file   721 does not exist.

 **********************************************************************

            Population analysis using the SCF density.

 **********************************************************************

 Orbital symmetries:
       Occupied  (A') (A') (A') (A') (A') (A') (A') (A') (A') (A')
                 (A') (A") (A') (A') (A') (A') (A") (A")
       Virtual   (A") (A') (A") (A') (A') (A') (A') (A') (A') (A")
                 (A') (A') (A') (A') (A") (A') (A') (A") (A') (A")
                 (A') (A') (A") (A') (A') (A') (A') (A') (A') (A")
                 (A") (A") (A') (A') (A") (A") (A') (A') (A') (A')
                 (A') (A') (A") (A") (A') (A') (A") (A") (A') (A')
                 (A") (A') (A') (A') (A') (A') (A') (A') (A') (A')
                 (A')
 The electronic state is 1-A'.
 Alpha  occ. eigenvalues --  -15.68426 -15.66114 -15.64137 -15.59954 -11.33392
 Alpha  occ. eigenvalues --   -1.52162  -1.26658  -1.21014  -0.91425  -0.89657
 Alpha  occ. eigenvalues --   -0.81012  -0.68902  -0.68409  -0.57261  -0.47489
 Alpha  occ. eigenvalues --   -0.46285  -0.45783  -0.42408
 Alpha virt. eigenvalues --    0.15145   0.20119   0.20249   0.25700   0.37656
 Alpha virt. eigenvalues --    0.39686   0.48768   0.51617   0.67281   0.73609
 Alpha virt. eigenvalues --    0.74379   0.82417   0.83553   0.90498   0.91522
 Alpha virt. eigenvalues --    0.92043   0.94179   0.95809   0.96154   1.05045
 Alpha virt. eigenvalues --    1.06083   1.08497   1.09726   1.13353   1.17940
 Alpha virt. eigenvalues --    1.23098   1.29429   1.31742   1.49106   1.53806
 Alpha virt. eigenvalues --    1.60296   1.64481   1.65435   1.69836   1.84833
 Alpha virt. eigenvalues --    1.86690   1.93792   2.18768   2.28155   2.37834
 Alpha virt. eigenvalues --    2.41191   2.51234   2.53091   2.58424   2.66428
 Alpha virt. eigenvalues --    2.71023   2.72329   2.79669   2.90121   2.90411
 Alpha virt. eigenvalues --    3.01041   3.04123   3.09308   3.34838   3.38389
 Alpha virt. eigenvalues --    3.42716   3.91286   4.04385   4.39863   4.47079
 Alpha virt. eigenvalues --    4.57576
          Condensed to atoms (all electrons):
              1          2          3          4          5          6
     1  N    6.618477   0.357299  -0.108898   0.004619   0.312254  -0.119598
     2  N    0.357299   6.669376   0.216339  -0.020726  -0.098238  -0.104283
     3  N   -0.108898   0.216339   6.911505   0.321564  -0.077332   0.313518
     4  H    0.004619  -0.020726   0.321564   0.278280   0.003670  -0.017322
     5  N    0.312254  -0.098238  -0.077332   0.003670   6.755884   0.486703
     6  C   -0.119598  -0.104283   0.313518  -0.017322   0.486703   4.741273
     7  H    0.003176   0.001282  -0.036850   0.000966  -0.022636   0.395962
              7
     1  N    0.003176
     2  N    0.001282
     3  N   -0.036850
     4  H    0.000966
     5  N   -0.022636
     6  C    0.395962
     7  H    0.402270
 Mulliken atomic charges:
              1
     1  N   -0.067328
     2  N   -0.021049
     3  N   -0.539846
     4  H    0.428949
     5  N   -0.360304
     6  C    0.303746
     7  H    0.255832
 Sum of Mulliken charges=   0.00000
 Atomic charges with hydrogens summed into heavy atoms:
              1
     1  N   -0.067328
     2  N   -0.021049
     3  N   -0.110897
     4  H    0.000000
     5  N   -0.360304
     6  C    0.559579
     7  H    0.000000
 Sum of Mulliken charges=   0.00000
 Electronic spatial extent (au):  <R**2>=   244.6240
 Charge=     0.0000 electrons
 Dipole moment (field-independent basis, Debye):
    X=     2.6731    Y=     4.9691    Z=     0.0000  Tot=     5.6425
 Quadrupole moment (field-independent basis, Debye-Ang):
   XX=   -28.6583   YY=   -26.5335   ZZ=   -28.5222
   XY=     1.9999   XZ=     0.0000   YZ=     0.0000
 Traceless Quadrupole moment (field-independent basis, Debye-Ang):
   XX=    -0.7536   YY=     1.3712   ZZ=    -0.6176
   XY=     1.9999   XZ=     0.0000   YZ=     0.0000
 Octapole moment (field-independent basis, Debye-Ang**2):
  XXX=    12.5498  YYY=    22.9158  ZZZ=     0.0000  XYY=    -0.6883
  XXY=     4.9900  XXZ=     0.0000  XZZ=    -0.5222  YZZ=     0.6168
  YYZ=     0.0000  XYZ=     0.0000
 Hexadecapole moment (field-independent basis, Debye-Ang**3):
 XXXX=  -137.3444 YYYY=  -115.9955 ZZZZ=   -25.2877 XXXY=     6.7902
 XXXZ=     0.0000 YYYX=    -0.0650 YYYZ=     0.0000 ZZZX=     0.0000
 ZZZY=     0.0000 XXYY=   -52.0522 XXZZ=   -29.5103 YYZZ=   -28.1701
 XXYZ=     0.0000 YYXZ=     0.0000 ZZXY=     0.0532
 N-N= 1.698288291610D+02 E-N=-9.408674351645D+02  KE= 2.563113670992D+02
 Symmetry A'   KE= 2.472871358225D+02
 Symmetry A"   KE= 9.024231276725D+00
 ***** Axes restored to original set *****
 -------------------------------------------------------------------
 Center     Atomic                   Forces (Hartrees/Bohr)
 Number     Number              X              Y              Z
 -------------------------------------------------------------------
    1          7          -0.037732765   -0.031678700    0.000000000
    2          7          -0.004327985    0.051976705    0.000000000
    3          7           0.010197845    0.005450408    0.000000000
    4          1           0.007884726    0.011982007    0.000000000
    5          7          -0.007864847   -0.034508860    0.000000000
    6          6           0.024032981   -0.000150189    0.000000000
    7          1           0.007810044   -0.003071370    0.000000000
 -------------------------------------------------------------------
 Cartesian Forces:  Max     0.051976705 RMS     0.018756339

 GradGradGradGradGradGradGradGradGradGradGradGradGradGradGradGradGradGrad
 Berny optimization.
 Internal  Forces:  Max     0.050600635 RMS     0.014734637
 Search for a local minimum.
 Step number   1 out of a maximum of  36
 All quantities printed in internal units (Hartrees-Bohrs-Radians)
 Second derivative matrix not updated -- first step.
     Eigenvalues ---    0.02505   0.02639   0.02674   0.02834   0.16000
     Eigenvalues ---    0.16000   0.22605   0.24688   0.37515   0.48737
     Eigenvalues ---    0.50885   0.56605   0.58506   0.66912   0.78894
     Eigenvalues --- 1000.000001000.000001000.000001000.000001000.00000
     Eigenvalues --- 1000.000001000.000001000.000001000.000001000.00000
     Eigenvalues --- 1000.00000
 RFO step:  Lambda=-8.10745928D-03.
 Linear search not attempted -- first point.
 Iteration  1 RMS(Cart)=  0.02247915 RMS(Int)=  0.00003506
 Iteration  2 RMS(Cart)=  0.00001919 RMS(Int)=  0.00002674
 Iteration  3 RMS(Cart)=  0.00000000 RMS(Int)=  0.00002674
 Variable       Old X    -DE/DX   Delta X   Delta X   Delta X     New X
                                 (Linear)    (Quad)   (Total)
    R1        2.36623   0.05060   0.00000   0.06277   0.06281   2.42904
    R2        2.53474   0.02435   0.00000   0.04424   0.04427   2.57901
    R3        2.50608   0.02339   0.00000   0.03801   0.03800   2.54408
    R4        1.87862   0.01434   0.00000   0.02893   0.02893   1.90755
    R5        2.51367   0.02295   0.00000   0.03523   0.03519   2.54886
    R6        2.43647   0.03293   0.00000   0.04500   0.04499   2.48146
    R7        2.01777   0.00839   0.00000   0.02190   0.02190   2.03967
    A1        1.94380  -0.00396   0.00000  -0.00358  -0.00350   1.94029
    A2        1.86179  -0.00270   0.00000  -0.00444  -0.00442   1.85738
    A3        2.10759  -0.00203   0.00000  -0.00540  -0.00537   2.10222
    A4        1.88535   0.00318   0.00000   0.00553   0.00548   1.89083
    A5        2.29025  -0.00115   0.00000  -0.00013  -0.00011   2.29014
    A6        1.84604  -0.00006   0.00000  -0.00146  -0.00145   1.84459
    A7        1.88780   0.00355   0.00000   0.00395   0.00389   1.89169
    A8        2.18241  -0.00178   0.00000  -0.00200  -0.00197   2.18044
    A9        2.21298  -0.00177   0.00000  -0.00195  -0.00192   2.21106
    D1        0.00000   0.00000   0.00000   0.00000   0.00000   0.00000
    D2        0.00000   0.00000   0.00000   0.00000   0.00000   0.00000
    D3        3.14159   0.00000   0.00000   0.00000   0.00000   3.14159
    D4        0.00000   0.00000   0.00000   0.00000   0.00000   0.00000
    D5        0.00000   0.00000   0.00000   0.00000   0.00000   0.00000
    D6        3.14159   0.00000   0.00000   0.00000   0.00000   3.14159
    D7        3.14159   0.00000   0.00000   0.00000   0.00000   3.14159
    D8        0.00000   0.00000   0.00000   0.00000   0.00000   0.00000
    D9        0.00000   0.00000   0.00000   0.00000   0.00000   0.00000
   D10        3.14159   0.00000   0.00000   0.00000   0.00000   3.14159
         Item               Value     Threshold  Converged?
 Maximum Force            0.050601     0.000450     NO 
 RMS     Force            0.014735     0.000300     NO 
 Maximum Displacement     0.052236     0.001800     NO 
 RMS     Displacement     0.022473     0.001200     NO 
 Predicted change in Energy=-4.101740D-03
 GradGradGradGradGradGradGradGradGradGradGradGradGradGradGradGradGradGrad

                          Input orientation:                          
 ---------------------------------------------------------------------
 Center     Atomic     Atomic              Coordinates (Angstroms)
 Number     Number      Type              X           Y           Z
 ---------------------------------------------------------------------
    1          7             0       -1.150935   -0.265199    0.000000
    2          7             0       -0.685630    0.933016    0.000000
    3          7             0        0.655911    0.820296    0.000000
    4          1             0        1.238514    1.644631    0.000000
    5          7             0       -0.143020   -1.185339    0.000000
    6          6             0        0.971555   -0.491049    0.000000
    7          1             0        1.976514   -0.884810    0.000000
 ---------------------------------------------------------------------
                    Distance matrix (angstroms):
                    1          2          3          4          5
     1  N    0.000000
     2  N    1.285391   0.000000
     3  N    2.107841   1.346269   0.000000
     4  H    3.058909   2.051519   1.009433   0.000000
     5  N    1.364752   2.186745   2.158903   3.149185   0.000000
     6  C    2.134472   2.185000   1.348798   2.152301   1.313132
     7  H    3.188237   3.223585   2.156705   2.634903   2.140734
                    6          7
     6  C    0.000000
     7  H    1.079347   0.000000
 Stoichiometry    CH2N4
 Framework group  CS[SG(CH2N4)]
 Deg. of freedom    11
 Full point group                 CS      NOp   2
 Largest Abelian subgroup         CS      NOp   2
 Largest concise Abelian subgroup C1      NOp   1
                         Standard orientation:                         
 ---------------------------------------------------------------------
 Center     Atomic     Atomic              Coordinates (Angstroms)
 Number     Number      Type              X           Y           Z
 ---------------------------------------------------------------------
    1          7             0       -0.726467   -0.923107    0.000000
    2          7             0       -1.115574    0.301975    0.000000
    3          7             0        0.000000    1.055589    0.000000
    4          1             0       -0.063251    2.063039    0.000000
    5          7             0        0.635666   -1.007610    0.000000
    6          6             0        1.068312    0.232202    0.000000
    7          1             0        2.098001    0.555822    0.000000
 ---------------------------------------------------------------------
 Rotational constants (GHZ):     10.5353071     10.3639383      5.2244601
 Standard basis: 6-31G(d) (6D, 7F)
 There are    59 symmetry adapted basis functions of A'  symmetry.
 There are    20 symmetry adapted basis functions of A"  symmetry.
 Integral buffers will be    131072 words long.
 Raffenetti 1 integral format.
 Two-electron integral symmetry is turned on.
    79 basis functions,   148 primitive gaussians,    79 cartesian basis functions
    18 alpha electrons       18 beta electrons
       nuclear repulsion energy       166.8292654551 Hartrees.
 NAtoms=    7 NActive=    7 NUniq=    7 SFac= 1.00D+00 NAtFMM=   60 Big=F
 One-electron integrals computed using PRISM.
 NBasis=    79 RedAO= T  NBF=    59    20
 NBsUse=    79 1.00D-06 NBFU=    59    20
 Initial guess read from the read-write file:
 Initial guess orbital symmetries:
       Occupied  (A') (A') (A') (A') (A') (A') (A') (A') (A') (A')
                 (A') (A") (A') (A') (A') (A') (A") (A")
       Virtual   (A") (A') (A") (A') (A') (A') (A') (A') (A') (A")
                 (A') (A') (A') (A') (A") (A') (A') (A") (A') (A")
                 (A') (A') (A") (A') (A') (A') (A') (A') (A') (A")
                 (A") (A") (A') (A') (A") (A") (A') (A') (A') (A')
                 (A') (A') (A") (A") (A') (A') (A") (A") (A') (A')
                 (A") (A') (A') (A') (A') (A') (A') (A') (A') (A')
                 (A')
 Harris functional with IExCor=  205 diagonalized for initial guess.
 ExpMin= 1.61D-01 ExpMax= 4.17D+03 ExpMxC= 6.27D+02 IAcc=1 IRadAn=         1 AccDes= 1.00D-06
 HarFok:  IExCor= 205 AccDes= 1.00D-06 IRadAn=         1 IDoV=1
 ScaDFX=  1.000000  1.000000  1.000000  1.000000
 Requested convergence on RMS density matrix=1.00D-08 within 128 cycles.
 Requested convergence on MAX density matrix=1.00D-06.
 Requested convergence on             energy=1.00D-06.
 No special actions if energy rises.
 Keep R1 integrals in memory in canonical form, NReq=     6110276.
 SCF Done:  E(RHF) =  -256.750011859     A.U. after   13 cycles
             Convg  =    0.4839D-08             -V/T =  2.0034
             S**2   =   0.0000
 ExpMin= 1.61D-01 ExpMax= 4.17D+03 ExpMxC= 6.27D+02 IAcc=1 IRadAn=         1 AccDes= 1.00D-06
 HarFok:  IExCor= 205 AccDes= 1.00D-06 IRadAn=         1 IDoV=1
 ScaDFX=  1.000000  1.000000  1.000000  1.000000
 Range of M.O.s used for correlation:     6    79
 NBasis=    79 NAE=    18 NBE=    18 NFC=     5 NFV=     0
 NROrb=     74 NOA=    13 NOB=    13 NVA=    61 NVB=    61
 Spin components of T(2) and E(2):
     alpha-alpha T2 =       0.3753976448D-01 E2=     -0.1094851232D+00
     alpha-beta  T2 =       0.1893143802D+00 E2=     -0.5655285391D+00
     beta-beta   T2 =       0.3753976448D-01 E2=     -0.1094851232D+00
 ANorm=    0.1124452715D+01
 E2=       -0.7844987855D+00 EUMP2=       -0.25753451064468D+03
 R2 and R3 integrals will be kept in memory, NReq=    10808760.
 DD1Dir will call FoFMem   1 times, MxPair=       182
 NAB=    91 NAA=     0 NBB=     0.
 E3=        0.23849875D-02        EUMP3=      -0.25753212566D+03
 Largest amplitude= 6.72D-02
 Discarding MO integrals.
 DoAtom=TTTTTTT
          Differentiating once with respect to electric field.
                with respect to dipole field.
          Differentiating once with respect to nuclear coordinates.
          Store integrals in memory, NReq=     5815204.
          There are   1 degrees of freedom in the 1st order CPHF.
     1 vectors were produced by pass  0.
 AX will form   1 AO Fock derivatives at one time.
     1 vectors were produced by pass  1.
     1 vectors were produced by pass  2.
     1 vectors were produced by pass  3.
     1 vectors were produced by pass  4.
     1 vectors were produced by pass  5.
     1 vectors were produced by pass  6.
     1 vectors were produced by pass  7.
     1 vectors were produced by pass  8.
     1 vectors were produced by pass  9.
     1 vectors were produced by pass 10.
     1 vectors were produced by pass 11.
     1 vectors were produced by pass 12.
     1 vectors were produced by pass 13.
     1 vectors were produced by pass 14.
 Inv2:  IOpt= 1 Iter= 1 AM= 5.97D-16 Conv= 1.00D-12.
 Inverted reduced A of dimension   15 with in-core refinement.
 End of Minotr Frequency-dependent properties file   721 does not exist.
 ***** Axes restored to original set *****
 -------------------------------------------------------------------
 Center     Atomic                   Forces (Hartrees/Bohr)
 Number     Number              X              Y              Z
 -------------------------------------------------------------------
    1          7          -0.002063356   -0.005171818    0.000000000
    2          7           0.001547634    0.008309400    0.000000000
    3          7          -0.000216506   -0.004447729    0.000000000
    4          1          -0.000443871   -0.000242912    0.000000000
    5          7           0.001550067   -0.000804636    0.000000000
    6          6           0.000235022    0.002131964    0.000000000
    7          1          -0.000608991    0.000225732    0.000000000
 -------------------------------------------------------------------
 Cartesian Forces:  Max     0.008309400 RMS     0.002493841

 GradGradGradGradGradGradGradGradGradGradGradGradGradGradGradGradGradGrad
 Berny optimization.
 Internal  Forces:  Max     0.005875504 RMS     0.001481755
 Search for a local minimum.
 Step number   2 out of a maximum of  36
 All quantities printed in internal units (Hartrees-Bohrs-Radians)
 Update second derivatives using D2CorX and points  1  2
 Trust test= 1.00D+00 RLast= 1.10D-01 DXMaxT set to 3.29D-01
     Eigenvalues ---    0.02506   0.02639   0.02675   0.02834   0.15996
     Eigenvalues ---    0.16000   0.22547   0.24604   0.37689   0.48893
     Eigenvalues ---    0.50439   0.56473   0.60318   0.68615   0.73788
     Eigenvalues --- 1000.000001000.000001000.000001000.000001000.00000
     Eigenvalues --- 1000.000001000.000001000.000001000.000001000.00000
     Eigenvalues --- 1000.00000
 RFO step:  Lambda=-1.03826538D-04.
 Quartic linear search produced a step of  0.04575.
 Iteration  1 RMS(Cart)=  0.00295966 RMS(Int)=  0.00001051
 Iteration  2 RMS(Cart)=  0.00000942 RMS(Int)=  0.00000444
 Iteration  3 RMS(Cart)=  0.00000000 RMS(Int)=  0.00000444
 Variable       Old X    -DE/DX   Delta X   Delta X   Delta X     New X
                                 (Linear)    (Quad)   (Total)
    R1        2.42904   0.00588   0.00287   0.00626   0.00914   2.43818
    R2        2.57901   0.00104   0.00203   0.00133   0.00336   2.58236
    R3        2.54408  -0.00010   0.00174  -0.00132   0.00042   2.54450
    R4        1.90755  -0.00045   0.00132  -0.00180  -0.00047   1.90708
    R5        2.54886  -0.00206   0.00161  -0.00565  -0.00403   2.54482
    R6        2.48146  -0.00054   0.00206  -0.00263  -0.00058   2.48088
    R7        2.03967  -0.00065   0.00100  -0.00240  -0.00140   2.03827
    A1        1.94029  -0.00033  -0.00016   0.00285   0.00269   1.94298
    A2        1.85738  -0.00264  -0.00020  -0.00872  -0.00891   1.84847
    A3        2.10222  -0.00139  -0.00025  -0.00532  -0.00557   2.09665
    A4        1.89083   0.00235   0.00025   0.00797   0.00822   1.89906
    A5        2.29014  -0.00096   0.00000  -0.00265  -0.00266   2.28748
    A6        1.84459  -0.00014  -0.00007  -0.00124  -0.00132   1.84327
    A7        1.89169   0.00076   0.00018  -0.00086  -0.00069   1.89100
    A8        2.18044  -0.00037  -0.00009   0.00051   0.00042   2.18086
    A9        2.21106  -0.00039  -0.00009   0.00035   0.00026   2.21132
    D1        0.00000   0.00000   0.00000   0.00000   0.00000   0.00000
    D2        0.00000   0.00000   0.00000   0.00000   0.00000   0.00000
    D3        3.14159   0.00000   0.00000   0.00000   0.00000   3.14159
    D4        0.00000   0.00000   0.00000   0.00000   0.00000   0.00000
    D5        0.00000   0.00000   0.00000   0.00000   0.00000   0.00000
    D6        3.14159   0.00000   0.00000   0.00000   0.00000   3.14159
    D7        3.14159   0.00000   0.00000   0.00000   0.00000   3.14159
    D8        0.00000   0.00000   0.00000   0.00000   0.00000   0.00000
    D9        0.00000   0.00000   0.00000   0.00000   0.00000   0.00000
   D10        3.14159   0.00000   0.00000   0.00000   0.00000   3.14159
         Item               Value     Threshold  Converged?
 Maximum Force            0.005876     0.000450     NO 
 RMS     Force            0.001482     0.000300     NO 
 Maximum Displacement     0.010836     0.001800     NO 
 RMS     Displacement     0.002961     0.001200     NO 
 Predicted change in Energy=-5.847016D-05
 GradGradGradGradGradGradGradGradGradGradGradGradGradGradGradGradGradGrad

                          Input orientation:                          
 ---------------------------------------------------------------------
 Center     Atomic     Atomic              Coordinates (Angstroms)
 Number     Number      Type              X           Y           Z
 ---------------------------------------------------------------------
    1          7             0       -1.150457   -0.265183    0.000000
    2          7             0       -0.686530    0.938751    0.000000
    3          7             0        0.654495    0.817551    0.000000
    4          1             0        1.237564    1.641250    0.000000
    5          7             0       -0.141314   -1.186610    0.000000
    6          6             0        0.972147   -0.491112    0.000000
    7          1             0        1.977003   -0.883101    0.000000
 ---------------------------------------------------------------------
                    Distance matrix (angstroms):
                    1          2          3          4          5
     1  N    0.000000
     2  N    1.290227   0.000000
     3  N    2.104796   1.346491   0.000000
     4  H    3.055673   2.048327   1.009183   0.000000
     5  N    1.366528   2.194179   2.156380   3.146125   0.000000
     6  C    2.134595   2.189913   1.346663   2.148817   1.312827
     7  H    3.187920   3.227004   2.154355   2.630422   2.139950
                    6          7
     6  C    0.000000
     7  H    1.078606   0.000000
 Stoichiometry    CH2N4
 Framework group  CS[SG(CH2N4)]
 Deg. of freedom    11
 Full point group                 CS      NOp   2
 Largest Abelian subgroup         CS      NOp   2
 Largest concise Abelian subgroup C1      NOp   1
                         Standard orientation:                         
 ---------------------------------------------------------------------
 Center     Atomic     Atomic              Coordinates (Angstroms)
 Number     Number      Type              X           Y           Z
 ---------------------------------------------------------------------
    1          7             0       -0.725321   -0.923566    0.000000
    2          7             0       -1.119959    0.304825    0.000000
    3          7             0        0.000000    1.052307    0.000000
    4          1             0       -0.063204    2.059509    0.000000
    5          7             0        0.638637   -1.007333    0.000000
    6          6             0        1.068777    0.233028    0.000000
    7          1             0        2.097044    0.558693    0.000000
 ---------------------------------------------------------------------
 Rotational constants (GHZ):     10.5566252     10.3223637      5.2190901
 Standard basis: 6-31G(d) (6D, 7F)
 There are    59 symmetry adapted basis functions of A'  symmetry.
 There are    20 symmetry adapted basis functions of A"  symmetry.
 Integral buffers will be    131072 words long.
 Raffenetti 1 integral format.
 Two-electron integral symmetry is turned on.
    79 basis functions,   148 primitive gaussians,    79 cartesian basis functions
    18 alpha electrons       18 beta electrons
       nuclear repulsion energy       166.7364098813 Hartrees.
 NAtoms=    7 NActive=    7 NUniq=    7 SFac= 1.00D+00 NAtFMM=   60 Big=F
 One-electron integrals computed using PRISM.
 NBasis=    79 RedAO= T  NBF=    59    20
 NBsUse=    79 1.00D-06 NBFU=    59    20
 Initial guess read from the read-write file:
 Initial guess orbital symmetries:
       Occupied  (A') (A') (A') (A') (A') (A') (A') (A') (A') (A')
                 (A') (A') (A") (A') (A') (A') (A") (A")
       Virtual   (A") (A") (A') (A') (A') (A') (A') (A') (A') (A')
                 (A") (A') (A') (A') (A') (A") (A') (A') (A") (A")
                 (A') (A') (A") (A') (A') (A') (A') (A') (A') (A")
                 (A") (A") (A') (A') (A") (A") (A') (A') (A') (A')
                 (A') (A') (A") (A") (A') (A') (A") (A") (A') (A')
                 (A") (A') (A') (A') (A') (A') (A') (A') (A') (A')
                 (A')
 Requested convergence on RMS density matrix=1.00D-08 within 128 cycles.
 Requested convergence on MAX density matrix=1.00D-06.
 Requested convergence on             energy=1.00D-06.
 No special actions if energy rises.
 Keep R1 integrals in memory in canonical form, NReq=     6110276.
 SCF Done:  E(RHF) =  -256.749577724     A.U. after   12 cycles
             Convg  =    0.3649D-08             -V/T =  2.0034
             S**2   =   0.0000
 ExpMin= 1.61D-01 ExpMax= 4.17D+03 ExpMxC= 6.27D+02 IAcc=1 IRadAn=         1 AccDes= 1.00D-06
 HarFok:  IExCor= 205 AccDes= 1.00D-06 IRadAn=         1 IDoV=1
 ScaDFX=  1.000000  1.000000  1.000000  1.000000
 Range of M.O.s used for correlation:     6    79
 NBasis=    79 NAE=    18 NBE=    18 NFC=     5 NFV=     0
 NROrb=     74 NOA=    13 NOB=    13 NVA=    61 NVB=    61
 Spin components of T(2) and E(2):
     alpha-alpha T2 =       0.3763283877D-01 E2=     -0.1095964952D+00
     alpha-beta  T2 =       0.1897346570D+00 E2=     -0.5660191854D+00
     beta-beta   T2 =       0.3763283877D-01 E2=     -0.1095964952D+00
 ANorm=    0.1124722337D+01
 E2=       -0.7852121759D+00 EUMP2=       -0.25753478989948D+03
 R2 and R3 integrals will be kept in memory, NReq=    10808760.
 DD1Dir will call FoFMem   1 times, MxPair=       182
 NAB=    91 NAA=     0 NBB=     0.
 E3=        0.26118975D-02        EUMP3=      -0.25753217800D+03
 Largest amplitude= 6.81D-02
 Discarding MO integrals.
 DoAtom=TTTTTTT
          Differentiating once with respect to electric field.
                with respect to dipole field.
          Differentiating once with respect to nuclear coordinates.
          Store integrals in memory, NReq=     5815204.
          There are   1 degrees of freedom in the 1st order CPHF.
     1 vectors were produced by pass  0.
 AX will form   1 AO Fock derivatives at one time.
     1 vectors were produced by pass  1.
     1 vectors were produced by pass  2.
     1 vectors were produced by pass  3.
     1 vectors were produced by pass  4.
     1 vectors were produced by pass  5.
     1 vectors were produced by pass  6.
     1 vectors were produced by pass  7.
     1 vectors were produced by pass  8.
     1 vectors were produced by pass  9.
     1 vectors were produced by pass 10.
     1 vectors were produced by pass 11.
     1 vectors were produced by pass 12.
     1 vectors were produced by pass 13.
     1 vectors were produced by pass 14.
 Inv2:  IOpt= 1 Iter= 1 AM= 4.17D-16 Conv= 1.00D-12.
 Inverted reduced A of dimension   15 with in-core refinement.
 End of Minotr Frequency-dependent properties file   721 does not exist.
 ***** Axes restored to original set *****
 -------------------------------------------------------------------
 Center     Atomic                   Forces (Hartrees/Bohr)
 Number     Number              X              Y              Z
 -------------------------------------------------------------------
    1          7          -0.001824347   -0.002778121    0.000000000
    2          7           0.002435653   -0.000005403    0.000000000
    3          7           0.000607262    0.000145009    0.000000000
    4          1           0.000099454   -0.000127674    0.000000000
    5          7          -0.000874619    0.001101934    0.000000000
    6          6          -0.000388676    0.001556677    0.000000000
    7          1          -0.000054727    0.000107578    0.000000000
 -------------------------------------------------------------------
 Cartesian Forces:  Max     0.002778121 RMS     0.001022665

 GradGradGradGradGradGradGradGradGradGradGradGradGradGradGradGradGradGrad
 Berny optimization.
 Internal  Forces:  Max     0.001932058 RMS     0.000791431
 Search for a local minimum.
 Step number   3 out of a maximum of  36
 All quantities printed in internal units (Hartrees-Bohrs-Radians)
 Update second derivatives using D2CorX and points  1  2  3
 Trust test= 8.95D-01 RLast= 1.76D-02 DXMaxT set to 3.29D-01
     Eigenvalues ---    0.02506   0.02637   0.02675   0.02834   0.15987
     Eigenvalues ---    0.16039   0.22827   0.34748   0.38081   0.39880
     Eigenvalues ---    0.49135   0.54176   0.62704   0.66961   0.71256
     Eigenvalues --- 1000.000001000.000001000.000001000.000001000.00000
     Eigenvalues --- 1000.000001000.000001000.000001000.000001000.00000
     Eigenvalues --- 1000.00000
 RFO step:  Lambda=-3.58261967D-05.
 Quartic linear search produced a step of -0.10282.
 Iteration  1 RMS(Cart)=  0.00191613 RMS(Int)=  0.00000319
 Iteration  2 RMS(Cart)=  0.00000219 RMS(Int)=  0.00000190
 Iteration  3 RMS(Cart)=  0.00000000 RMS(Int)=  0.00000190
 Variable       Old X    -DE/DX   Delta X   Delta X   Delta X     New X
                                 (Linear)    (Quad)   (Total)
    R1        2.43818   0.00186  -0.00094   0.00594   0.00500   2.44318
    R2        2.58236  -0.00117  -0.00035  -0.00031  -0.00065   2.58172
    R3        2.54450  -0.00056  -0.00004  -0.00056  -0.00061   2.54389
    R4        1.90708  -0.00005   0.00005  -0.00020  -0.00015   1.90693
    R5        2.54482  -0.00145   0.00041  -0.00387  -0.00346   2.54137
    R6        2.48088   0.00084   0.00006   0.00088   0.00094   2.48182
    R7        2.03827  -0.00009   0.00014  -0.00072  -0.00057   2.03770
    A1        1.94298  -0.00193  -0.00028  -0.00511  -0.00538   1.93760
    A2        1.84847   0.00152   0.00092   0.00254   0.00345   1.85192
    A3        2.09665   0.00060   0.00057   0.00068   0.00126   2.09791
    A4        1.89906  -0.00090  -0.00085  -0.00085  -0.00170   1.89736
    A5        2.28748   0.00030   0.00027   0.00016   0.00044   2.28792
    A6        1.84327   0.00075   0.00014   0.00207   0.00221   1.84548
    A7        1.89100   0.00056   0.00007   0.00134   0.00141   1.89242
    A8        2.18086  -0.00036  -0.00004  -0.00110  -0.00115   2.17971
    A9        2.21132  -0.00020  -0.00003  -0.00024  -0.00027   2.21106
    D1        0.00000   0.00000   0.00000   0.00000   0.00000   0.00000
    D2        0.00000   0.00000   0.00000   0.00000   0.00000   0.00000
    D3        3.14159   0.00000   0.00000   0.00000   0.00000   3.14159
    D4        0.00000   0.00000   0.00000   0.00000   0.00000   0.00000
    D5        0.00000   0.00000   0.00000   0.00000   0.00000   0.00000
    D6        3.14159   0.00000   0.00000   0.00000   0.00000   3.14159
    D7        3.14159   0.00000   0.00000   0.00000   0.00000   3.14159
    D8        0.00000   0.00000   0.00000   0.00000   0.00000   0.00000
    D9        0.00000   0.00000   0.00000   0.00000   0.00000   0.00000
   D10        3.14159   0.00000   0.00000   0.00000   0.00000   3.14159
         Item               Value     Threshold  Converged?
 Maximum Force            0.001932     0.000450     NO 
 RMS     Force            0.000791     0.000300     NO 
 Maximum Displacement     0.005195     0.001800     NO 
 RMS     Displacement     0.001916     0.001200     NO 
 Predicted change in Energy=-1.860411D-05
 GradGradGradGradGradGradGradGradGradGradGradGradGradGradGradGradGradGrad

                          Input orientation:                          
 ---------------------------------------------------------------------
 Center     Atomic     Atomic              Coordinates (Angstroms)
 Number     Number      Type              X           Y           Z
 ---------------------------------------------------------------------
    1          7             0       -1.153206   -0.267427    0.000000
    2          7             0       -0.685035    0.937704    0.000000
    3          7             0        0.655758    0.817498    0.000000
    4          1             0        1.239224    1.640818    0.000000
    5          7             0       -0.141878   -1.185945    0.000000
    6          6             0        0.971702   -0.489696    0.000000
    7          1             0        1.976342   -0.881406    0.000000
 ---------------------------------------------------------------------
                    Distance matrix (angstroms):
                    1          2          3          4          5
     1  N    0.000000
     2  N    1.292874   0.000000
     3  N    2.109363   1.346171   0.000000
     4  H    3.060249   2.048693   1.009103   0.000000
     5  N    1.366185   2.192009   2.156387   3.146113   0.000000
     6  C    2.136502   2.186835   1.344833   2.147244   1.313325
     7  H    3.189207   3.223675   2.151793   2.627728   2.139999
                    6          7
     6  C    0.000000
     7  H    1.078303   0.000000
 Stoichiometry    CH2N4
 Framework group  CS[SG(CH2N4)]
 Deg. of freedom    11
 Full point group                 CS      NOp   2
 Largest Abelian subgroup         CS      NOp   2
 Largest concise Abelian subgroup C1      NOp   1
                         Standard orientation:                         
 ---------------------------------------------------------------------
 Center     Atomic     Atomic              Coordinates (Angstroms)
 Number     Number      Type              X           Y           Z
 ---------------------------------------------------------------------
    1          7             0       -0.725226   -0.927423    0.000000
    2          7             0       -1.118458    0.304199    0.000000
    3          7             0        0.000000    1.053350    0.000000
    4          1             0       -0.063596    2.060447    0.000000
    5          7             0        0.638681   -1.006283    0.000000
    6          6             0        1.067286    0.235135    0.000000
    7          1             0        2.094905    0.561839    0.000000
 ---------------------------------------------------------------------
 Rotational constants (GHZ):     10.5253066     10.3483483      5.2180387
 Standard basis: 6-31G(d) (6D, 7F)
 There are    59 symmetry adapted basis functions of A'  symmetry.
 There are    20 symmetry adapted basis functions of A"  symmetry.
 Integral buffers will be    131072 words long.
 Raffenetti 1 integral format.
 Two-electron integral symmetry is turned on.
    79 basis functions,   148 primitive gaussians,    79 cartesian basis functions
    18 alpha electrons       18 beta electrons
       nuclear repulsion energy       166.7136327604 Hartrees.
 NAtoms=    7 NActive=    7 NUniq=    7 SFac= 1.00D+00 NAtFMM=   60 Big=F
 One-electron integrals computed using PRISM.
 NBasis=    79 RedAO= T  NBF=    59    20
 NBsUse=    79 1.00D-06 NBFU=    59    20
 Initial guess read from the read-write file:
 Initial guess orbital symmetries:
       Occupied  (A') (A') (A') (A') (A') (A') (A') (A') (A') (A')
                 (A') (A') (A") (A') (A') (A') (A") (A")
       Virtual   (A") (A") (A') (A') (A') (A') (A') (A') (A') (A')
                 (A") (A') (A') (A') (A') (A") (A') (A') (A") (A")
                 (A') (A') (A") (A') (A') (A') (A') (A') (A') (A")
                 (A") (A") (A') (A') (A") (A") (A') (A') (A') (A')
                 (A') (A') (A") (A") (A') (A') (A") (A") (A') (A')
                 (A") (A') (A') (A') (A') (A') (A') (A') (A') (A')
                 (A')
 Requested convergence on RMS density matrix=1.00D-08 within 128 cycles.
 Requested convergence on MAX density matrix=1.00D-06.
 Requested convergence on             energy=1.00D-06.
 No special actions if energy rises.
 Keep R1 integrals in memory in canonical form, NReq=     6110276.
 SCF Done:  E(RHF) =  -256.749411124     A.U. after   11 cycles
             Convg  =    0.6742D-08             -V/T =  2.0034
             S**2   =   0.0000
 ExpMin= 1.61D-01 ExpMax= 4.17D+03 ExpMxC= 6.27D+02 IAcc=1 IRadAn=         1 AccDes= 1.00D-06
 HarFok:  IExCor= 205 AccDes= 1.00D-06 IRadAn=         1 IDoV=1
 ScaDFX=  1.000000  1.000000  1.000000  1.000000
 Range of M.O.s used for correlation:     6    79
 NBasis=    79 NAE=    18 NBE=    18 NFC=     5 NFV=     0
 NROrb=     74 NOA=    13 NOB=    13 NVA=    61 NVB=    61
 Spin components of T(2) and E(2):
     alpha-alpha T2 =       0.3766978303D-01 E2=     -0.1096452210D+00
     alpha-beta  T2 =       0.1898905532D+00 E2=     -0.5662020908D+00
     beta-beta   T2 =       0.3766978303D-01 E2=     -0.1096452210D+00
 ANorm=    0.1124824484D+01
 E2=       -0.7854925327D+00 EUMP2=       -0.25753490365675D+03
 R2 and R3 integrals will be kept in memory, NReq=    10808760.
 DD1Dir will call FoFMem   1 times, MxPair=       182
 NAB=    91 NAA=     0 NBB=     0.
 E3=        0.27141609D-02        EUMP3=      -0.25753218950D+03
 Largest amplitude= 6.84D-02
 Discarding MO integrals.
 DoAtom=TTTTTTT
          Differentiating once with respect to electric field.
                with respect to dipole field.
          Differentiating once with respect to nuclear coordinates.
          Store integrals in memory, NReq=     5815204.
          There are   1 degrees of freedom in the 1st order CPHF.
     1 vectors were produced by pass  0.
 AX will form   1 AO Fock derivatives at one time.
     1 vectors were produced by pass  1.
     1 vectors were produced by pass  2.
     1 vectors were produced by pass  3.
     1 vectors were produced by pass  4.
     1 vectors were produced by pass  5.
     1 vectors were produced by pass  6.
     1 vectors were produced by pass  7.
     1 vectors were produced by pass  8.
     1 vectors were produced by pass  9.
     1 vectors were produced by pass 10.
     1 vectors were produced by pass 11.
     1 vectors were produced by pass 12.
     1 vectors were produced by pass 13.
     1 vectors were produced by pass 14.
 Inv2:  IOpt= 1 Iter= 1 AM= 3.94D-16 Conv= 1.00D-12.
 Inverted reduced A of dimension   15 with in-core refinement.
 End of Minotr Frequency-dependent properties file   721 does not exist.
 ***** Axes restored to original set *****
 -------------------------------------------------------------------
 Center     Atomic                   Forces (Hartrees/Bohr)
 Number     Number              X              Y              Z
 -------------------------------------------------------------------
    1          7           0.002015120    0.000085216    0.000000000
    2          7           0.000027587    0.000003709    0.000000000
    3          7          -0.001227846    0.000156626    0.000000000
    4          1          -0.000036985    0.000017239    0.000000000
    5          7          -0.000795698    0.000257701    0.000000000
    6          6          -0.000083617   -0.000358024    0.000000000
    7          1           0.000101439   -0.000162466    0.000000000
 -------------------------------------------------------------------
 Cartesian Forces:  Max     0.002015120 RMS     0.000555233

 GradGradGradGradGradGradGradGradGradGradGradGradGradGradGradGradGradGrad
 Berny optimization.
 Internal  Forces:  Max     0.001090558 RMS     0.000414402
 Search for a local minimum.
 Step number   4 out of a maximum of  36
 All quantities printed in internal units (Hartrees-Bohrs-Radians)
 Update second derivatives using D2CorX and points  1  2  3  4
 Trust test= 6.18D-01 RLast= 9.63D-03 DXMaxT set to 3.29D-01
     Eigenvalues ---    0.02506   0.02637   0.02676   0.02834   0.16024
     Eigenvalues ---    0.16037   0.23393   0.34693   0.37797   0.48658
     Eigenvalues ---    0.50246   0.53502   0.61965   0.64181   0.74555
     Eigenvalues --- 1000.000001000.000001000.000001000.000001000.00000
     Eigenvalues --- 1000.000001000.000001000.000001000.000001000.00000
     Eigenvalues --- 1000.00000
 RFO step:  Lambda=-3.23267140D-06.
 Quartic linear search produced a step of -0.27648.
 Iteration  1 RMS(Cart)=  0.00068265 RMS(Int)=  0.00000048
 Iteration  2 RMS(Cart)=  0.00000033 RMS(Int)=  0.00000030
 Variable       Old X    -DE/DX   Delta X   Delta X   Delta X     New X
                                 (Linear)    (Quad)   (Total)
    R1        2.44318  -0.00059  -0.00138   0.00051  -0.00087   2.44231
    R2        2.58172  -0.00099   0.00018  -0.00179  -0.00161   2.58010
    R3        2.54389  -0.00086   0.00017  -0.00127  -0.00111   2.54279
    R4        1.90693  -0.00001   0.00004  -0.00006  -0.00002   1.90691
    R5        2.54137   0.00055   0.00096  -0.00026   0.00070   2.54206
    R6        2.48182  -0.00032  -0.00026   0.00004  -0.00022   2.48161
    R7        2.03770   0.00015   0.00016   0.00015   0.00031   2.03801
    A1        1.93760   0.00109   0.00149   0.00051   0.00199   1.93960
    A2        1.85192  -0.00062  -0.00095  -0.00014  -0.00110   1.85083
    A3        2.09791  -0.00014  -0.00035   0.00021  -0.00014   2.09776
    A4        1.89736   0.00020   0.00047  -0.00026   0.00021   1.89757
    A5        2.28792  -0.00006  -0.00012   0.00005  -0.00007   2.28785
    A6        1.84548  -0.00050  -0.00061  -0.00050  -0.00112   1.84437
    A7        1.89242  -0.00017  -0.00039   0.00039   0.00000   1.89242
    A8        2.17971   0.00020   0.00032   0.00015   0.00047   2.18018
    A9        2.21106  -0.00003   0.00007  -0.00054  -0.00047   2.21059
    D1        0.00000   0.00000   0.00000   0.00000   0.00000   0.00000
    D2        0.00000   0.00000   0.00000   0.00000   0.00000   0.00000
    D3        3.14159   0.00000   0.00000   0.00000   0.00000   3.14159
    D4        0.00000   0.00000   0.00000   0.00000   0.00000   0.00000
    D5        0.00000   0.00000   0.00000   0.00000   0.00000   0.00000
    D6        3.14159   0.00000   0.00000   0.00000   0.00000   3.14159
    D7        3.14159   0.00000   0.00000   0.00000   0.00000   3.14159
    D8        0.00000   0.00000   0.00000   0.00000   0.00000   0.00000
    D9        0.00000   0.00000   0.00000   0.00000   0.00000   0.00000
   D10        3.14159   0.00000   0.00000   0.00000   0.00000   3.14159
         Item               Value     Threshold  Converged?
 Maximum Force            0.001091     0.000450     NO 
 RMS     Force            0.000414     0.000300     NO 
 Maximum Displacement     0.002792     0.001800     NO 
 RMS     Displacement     0.000683     0.001200     YES
 Predicted change in Energy=-3.576060D-06
 GradGradGradGradGradGradGradGradGradGradGradGradGradGradGradGradGradGrad

                          Input orientation:                          
 ---------------------------------------------------------------------
 Center     Atomic     Atomic              Coordinates (Angstroms)
 Number     Number      Type              X           Y           Z
 ---------------------------------------------------------------------
    1          7             0       -1.151729   -0.267209    0.000000
    2          7             0       -0.684935    0.937962    0.000000
    3          7             0        0.655264    0.817687    0.000000
    4          1             0        1.238681    1.641028    0.000000
    5          7             0       -0.141941   -1.186154    0.000000
    6          6             0        0.971454   -0.489826    0.000000
    7          1             0        1.976113   -0.881941    0.000000
 ---------------------------------------------------------------------
                    Distance matrix (angstroms):
                    1          2          3          4          5
     1  N    0.000000
     2  N    1.292414   0.000000
     3  N    2.107658   1.345585   0.000000
     4  H    3.058664   2.048072   1.009091   0.000000
     5  N    1.365332   2.192421   2.156598   3.146279   0.000000
     6  C    2.134822   2.186825   1.345202   2.147545   1.313210
     7  H    3.187678   3.223852   2.152529   2.628532   2.139789
                    6          7
     6  C    0.000000
     7  H    1.078468   0.000000
 Stoichiometry    CH2N4
 Framework group  CS[SG(CH2N4)]
 Deg. of freedom    11
 Full point group                 CS      NOp   2
 Largest Abelian subgroup         CS      NOp   2
 Largest concise Abelian subgroup C1      NOp   1
                         Standard orientation:                         
 ---------------------------------------------------------------------
 Center     Atomic     Atomic              Coordinates (Angstroms)
 Number     Number      Type              X           Y           Z
 ---------------------------------------------------------------------
    1          7             0       -0.724786   -0.926061    0.000000
    2          7             0       -1.118446    0.304941    0.000000
    3          7             0        0.000000    1.053057    0.000000
    4          1             0       -0.063099    2.060173    0.000000
    5          7             0        0.638146   -1.006963    0.000000
    6          6             0        1.067233    0.234167    0.000000
    7          1             0        2.095300    0.560008    0.000000
 ---------------------------------------------------------------------
 Rotational constants (GHZ):     10.5393595     10.3444568      5.2204993
 Standard basis: 6-31G(d) (6D, 7F)
 There are    59 symmetry adapted basis functions of A'  symmetry.
 There are    20 symmetry adapted basis functions of A"  symmetry.
 Integral buffers will be    131072 words long.
 Raffenetti 1 integral format.
 Two-electron integral symmetry is turned on.
    79 basis functions,   148 primitive gaussians,    79 cartesian basis functions
    18 alpha electrons       18 beta electrons
       nuclear repulsion energy       166.7532528926 Hartrees.
 NAtoms=    7 NActive=    7 NUniq=    7 SFac= 1.00D+00 NAtFMM=   60 Big=F
 One-electron integrals computed using PRISM.
 NBasis=    79 RedAO= T  NBF=    59    20
 NBsUse=    79 1.00D-06 NBFU=    59    20
 Initial guess read from the read-write file:
 Initial guess orbital symmetries:
       Occupied  (A') (A') (A') (A') (A') (A') (A') (A') (A') (A')
                 (A') (A') (A") (A') (A') (A') (A") (A")
       Virtual   (A") (A") (A') (A') (A') (A') (A') (A') (A') (A')
                 (A") (A') (A') (A') (A') (A") (A') (A') (A") (A")
                 (A') (A') (A") (A') (A') (A') (A') (A') (A') (A")
                 (A") (A") (A') (A') (A") (A") (A') (A') (A') (A')
                 (A') (A') (A") (A") (A') (A') (A") (A") (A') (A')
                 (A") (A') (A') (A') (A') (A') (A') (A') (A') (A')
                 (A')
 Requested convergence on RMS density matrix=1.00D-08 within 128 cycles.
 Requested convergence on MAX density matrix=1.00D-06.
 Requested convergence on             energy=1.00D-06.
 No special actions if energy rises.
 Keep R1 integrals in memory in canonical form, NReq=     6110276.
 SCF Done:  E(RHF) =  -256.749519029     A.U. after   10 cycles
             Convg  =    0.5510D-08             -V/T =  2.0034
             S**2   =   0.0000
 ExpMin= 1.61D-01 ExpMax= 4.17D+03 ExpMxC= 6.27D+02 IAcc=1 IRadAn=         1 AccDes= 1.00D-06
 HarFok:  IExCor= 205 AccDes= 1.00D-06 IRadAn=         1 IDoV=1
 ScaDFX=  1.000000  1.000000  1.000000  1.000000
 Range of M.O.s used for correlation:     6    79
 NBasis=    79 NAE=    18 NBE=    18 NFC=     5 NFV=     0
 NROrb=     74 NOA=    13 NOB=    13 NVA=    61 NVB=    61
 Spin components of T(2) and E(2):
     alpha-alpha T2 =       0.3765249615D-01 E2=     -0.1096305704D+00
     alpha-beta  T2 =       0.1897925190D+00 E2=     -0.5660957813D+00
     beta-beta   T2 =       0.3765249615D-01 E2=     -0.1096305704D+00
 ANorm=    0.1124765536D+01
 E2=       -0.7853569222D+00 EUMP2=       -0.25753487595126D+03
 R2 and R3 integrals will be kept in memory, NReq=    10808760.
 DD1Dir will call FoFMem   1 times, MxPair=       182
 NAB=    91 NAA=     0 NBB=     0.
 E3=        0.26825879D-02        EUMP3=      -0.25753219336D+03
 Largest amplitude= 6.85D-02
 Discarding MO integrals.
 DoAtom=TTTTTTT
          Differentiating once with respect to electric field.
                with respect to dipole field.
          Differentiating once with respect to nuclear coordinates.
          Store integrals in memory, NReq=     5815204.
          There are   1 degrees of freedom in the 1st order CPHF.
     1 vectors were produced by pass  0.
 AX will form   1 AO Fock derivatives at one time.
     1 vectors were produced by pass  1.
     1 vectors were produced by pass  2.
     1 vectors were produced by pass  3.
     1 vectors were produced by pass  4.
     1 vectors were produced by pass  5.
     1 vectors were produced by pass  6.
     1 vectors were produced by pass  7.
     1 vectors were produced by pass  8.
     1 vectors were produced by pass  9.
     1 vectors were produced by pass 10.
     1 vectors were produced by pass 11.
     1 vectors were produced by pass 12.
     1 vectors were produced by pass 13.
     1 vectors were produced by pass 14.
 Inv2:  IOpt= 1 Iter= 1 AM= 6.14D-16 Conv= 1.00D-12.
 Inverted reduced A of dimension   15 with in-core refinement.
 End of Minotr Frequency-dependent properties file   721 does not exist.
 ***** Axes restored to original set *****
 -------------------------------------------------------------------
 Center     Atomic                   Forces (Hartrees/Bohr)
 Number     Number              X              Y              Z
 -------------------------------------------------------------------
    1          7           0.000229743   -0.000292751    0.000000000
    2          7           0.000136078   -0.000032733    0.000000000
    3          7          -0.000383348   -0.000005894    0.000000000
    4          1           0.000032164   -0.000007009    0.000000000
    5          7          -0.000443634    0.000482435    0.000000000
    6          6           0.000404170   -0.000117457    0.000000000
    7          1           0.000024826   -0.000026592    0.000000000
 -------------------------------------------------------------------
 Cartesian Forces:  Max     0.000482435 RMS     0.000208644

 GradGradGradGradGradGradGradGradGradGradGradGradGradGradGradGradGradGrad
 Berny optimization.
 Internal  Forces:  Max     0.000399338 RMS     0.000115706
 Search for a local minimum.
 Step number   5 out of a maximum of  36
 All quantities printed in internal units (Hartrees-Bohrs-Radians)
 Update second derivatives using D2CorX and points  1  2  3  4  5

 Trust test= 1.08D+00 RLast= 3.48D-03 DXMaxT set to 3.29D-01
     Eigenvalues ---    0.02506   0.02637   0.02675   0.02834   0.15815
     Eigenvalues ---    0.16068   0.23689   0.37804   0.38643   0.45312
     Eigenvalues ---    0.48994   0.50145   0.57910   0.67601   0.79461
     Eigenvalues --- 1000.000001000.000001000.000001000.000001000.00000
     Eigenvalues --- 1000.000001000.000001000.000001000.000001000.00000
     Eigenvalues --- 1000.00000
 RFO step:  Lambda=-1.16764708D-06.
 Quartic linear search produced a step of  0.08618.
 Iteration  1 RMS(Cart)=  0.00034449 RMS(Int)=  0.00000010
 Iteration  2 RMS(Cart)=  0.00000010 RMS(Int)=  0.00000004
 Variable       Old X    -DE/DX   Delta X   Delta X   Delta X     New X
                                 (Linear)    (Quad)   (Total)
    R1        2.44231  -0.00004  -0.00007   0.00008   0.00000   2.44231
    R2        2.58010  -0.00040  -0.00014  -0.00104  -0.00118   2.57893
    R3        2.54279  -0.00013  -0.00010  -0.00042  -0.00051   2.54228
    R4        1.90691   0.00001   0.00000   0.00001   0.00001   1.90692
    R5        2.54206   0.00005   0.00006   0.00006   0.00012   2.54218
    R6        2.48161   0.00010  -0.00002   0.00018   0.00016   2.48177
    R7        2.03801   0.00003   0.00003   0.00010   0.00013   2.03814
    A1        1.93960  -0.00003   0.00017  -0.00025  -0.00008   1.93952
    A2        1.85083   0.00001  -0.00009  -0.00014  -0.00024   1.85059
    A3        2.09776  -0.00001  -0.00001  -0.00009  -0.00010   2.09767
    A4        1.89757   0.00007   0.00002   0.00057   0.00058   1.89816
    A5        2.28785  -0.00006  -0.00001  -0.00048  -0.00049   2.28736
    A6        1.84437   0.00021  -0.00010   0.00088   0.00078   1.84515
    A7        1.89242  -0.00026   0.00000  -0.00106  -0.00105   1.89136
    A8        2.18018   0.00015   0.00004   0.00069   0.00073   2.18091
    A9        2.21059   0.00011  -0.00004   0.00037   0.00033   2.21091
    D1        0.00000   0.00000   0.00000   0.00000   0.00000   0.00000
    D2        0.00000   0.00000   0.00000   0.00000   0.00000   0.00000
    D3        3.14159   0.00000   0.00000   0.00000   0.00000   3.14159
    D4        0.00000   0.00000   0.00000   0.00000   0.00000   0.00000
    D5        0.00000   0.00000   0.00000   0.00000   0.00000   0.00000
    D6        3.14159   0.00000   0.00000   0.00000   0.00000   3.14159
    D7        3.14159   0.00000   0.00000   0.00000   0.00000   3.14159
    D8        0.00000   0.00000   0.00000   0.00000   0.00000   0.00000
    D9        0.00000   0.00000   0.00000   0.00000   0.00000   0.00000
   D10        3.14159   0.00000   0.00000   0.00000   0.00000   3.14159
         Item               Value     Threshold  Converged?
 Maximum Force            0.000399     0.000450     YES
 RMS     Force            0.000116     0.000300     YES
 Maximum Displacement     0.001107     0.001800     YES
 RMS     Displacement     0.000344     0.001200     YES
 Predicted change in Energy=-6.086604D-07
 Optimization completed.
    -- Stationary point found.
                           ----------------------------
                           !   Optimized Parameters   !
                           ! (Angstroms and Degrees)  !
 --------------------------                            --------------------------
 ! Name  Definition              Value          Derivative Info.                !
 --------------------------------------------------------------------------------
 ! R1    R(1,2)                  1.2924         -DE/DX =    0.0                 !
 ! R2    R(1,5)                  1.3653         -DE/DX =   -0.0004              !
 ! R3    R(2,3)                  1.3456         -DE/DX =   -0.0001              !
 ! R4    R(3,4)                  1.0091         -DE/DX =    0.0                 !
 ! R5    R(3,6)                  1.3452         -DE/DX =    0.0001              !
 ! R6    R(5,6)                  1.3132         -DE/DX =    0.0001              !
 ! R7    R(6,7)                  1.0785         -DE/DX =    0.0                 !
 ! A1    A(2,1,5)              111.1307         -DE/DX =    0.0                 !
 ! A2    A(1,2,3)              106.0445         -DE/DX =    0.0                 !
 ! A3    A(2,3,4)              120.1931         -DE/DX =    0.0                 !
 ! A4    A(2,3,6)              108.7228         -DE/DX =    0.0001              !
 ! A5    A(4,3,6)              131.0841         -DE/DX =   -0.0001              !
 ! A6    A(1,5,6)              105.6744         -DE/DX =    0.0002              !
 ! A7    A(3,6,5)              108.4276         -DE/DX =   -0.0003              !
 ! A8    A(3,6,7)              124.9151         -DE/DX =    0.0001              !
 ! A9    A(5,6,7)              126.6572         -DE/DX =    0.0001              !
 ! D1    D(5,1,2,3)              0.0            -DE/DX =    0.0                 !
 ! D2    D(2,1,5,6)              0.0            -DE/DX =    0.0                 !
 ! D3    D(1,2,3,4)            180.0            -DE/DX =    0.0                 !
 ! D4    D(1,2,3,6)              0.0            -DE/DX =    0.0                 !
 ! D5    D(2,3,6,5)              0.0            -DE/DX =    0.0                 !
 ! D6    D(2,3,6,7)            180.0            -DE/DX =    0.0                 !
 ! D7    D(4,3,6,5)            180.0            -DE/DX =    0.0                 !
 ! D8    D(4,3,6,7)              0.0            -DE/DX =    0.0                 !
 ! D9    D(1,5,6,3)              0.0            -DE/DX =    0.0                 !
 ! D10   D(1,5,6,7)            180.0            -DE/DX =    0.0                 !
 --------------------------------------------------------------------------------
 GradGradGradGradGradGradGradGradGradGradGradGradGradGradGradGradGradGrad

                          Input orientation:                          
 ---------------------------------------------------------------------
 Center     Atomic     Atomic              Coordinates (Angstroms)
 Number     Number      Type              X           Y           Z
 ---------------------------------------------------------------------
    1          7             0       -1.151729   -0.267209    0.000000
    2          7             0       -0.684935    0.937962    0.000000
    3          7             0        0.655264    0.817687    0.000000
    4          1             0        1.238681    1.641028    0.000000
    5          7             0       -0.141941   -1.186154    0.000000
    6          6             0        0.971454   -0.489826    0.000000
    7          1             0        1.976113   -0.881941    0.000000
 ---------------------------------------------------------------------
                    Distance matrix (angstroms):
                    1          2          3          4          5
     1  N    0.000000
     2  N    1.292414   0.000000
     3  N    2.107658   1.345585   0.000000
     4  H    3.058664   2.048072   1.009091   0.000000
     5  N    1.365332   2.192421   2.156598   3.146279   0.000000
     6  C    2.134822   2.186825   1.345202   2.147545   1.313210
     7  H    3.187678   3.223852   2.152529   2.628532   2.139789
                    6          7
     6  C    0.000000
     7  H    1.078468   0.000000
 Stoichiometry    CH2N4
 Framework group  CS[SG(CH2N4)]
 Deg. of freedom    11
 Full point group                 CS      NOp   2
 Largest Abelian subgroup         CS      NOp   2
 Largest concise Abelian subgroup C1      NOp   1
                         Standard orientation:                         
 ---------------------------------------------------------------------
 Center     Atomic     Atomic              Coordinates (Angstroms)
 Number     Number      Type              X           Y           Z
 ---------------------------------------------------------------------
    1          7             0       -0.724786   -0.926061    0.000000
    2          7             0       -1.118446    0.304941    0.000000
    3          7             0        0.000000    1.053057    0.000000
    4          1             0       -0.063099    2.060173    0.000000
    5          7             0        0.638146   -1.006963    0.000000
    6          6             0        1.067233    0.234167    0.000000
    7          1             0        2.095300    0.560008    0.000000
 ---------------------------------------------------------------------
 Rotational constants (GHZ):     10.5393595     10.3444568      5.2204993

 **********************************************************************

            Population analysis using the SCF density.

 **********************************************************************

 Orbital symmetries:
       Occupied  (A') (A') (A') (A') (A') (A') (A') (A') (A') (A')
                 (A') (A') (A") (A') (A') (A') (A") (A")
       Virtual   (A") (A") (A') (A') (A') (A') (A') (A') (A') (A')
                 (A") (A') (A') (A') (A') (A") (A') (A') (A") (A")
                 (A') (A') (A") (A') (A') (A') (A') (A') (A') (A")
                 (A") (A") (A') (A') (A") (A") (A') (A') (A') (A')
                 (A') (A') (A") (A") (A') (A') (A") (A") (A') (A')
                 (A") (A') (A') (A') (A') (A') (A') (A') (A') (A')
                 (A')
 The electronic state is 1-A'.
 Alpha  occ. eigenvalues --  -15.68962 -15.66893 -15.65099 -15.60847 -11.34189
 Alpha  occ. eigenvalues --   -1.49445  -1.25571  -1.19508  -0.90679  -0.88907
 Alpha  occ. eigenvalues --   -0.79956  -0.67593  -0.67470  -0.56720  -0.47718
 Alpha  occ. eigenvalues --   -0.47052  -0.45317  -0.41723
 Alpha virt. eigenvalues --    0.13979   0.18873   0.19693   0.25147   0.36783
 Alpha virt. eigenvalues --    0.38228   0.47560   0.49984   0.64846   0.73703
 Alpha virt. eigenvalues --    0.73893   0.82410   0.82742   0.89555   0.91831
 Alpha virt. eigenvalues --    0.91907   0.92739   0.94907   0.96254   1.04815
 Alpha virt. eigenvalues --    1.05604   1.08331   1.09365   1.12540   1.16849
 Alpha virt. eigenvalues --    1.22989   1.27931   1.30908   1.47458   1.55064
 Alpha virt. eigenvalues --    1.59641   1.63643   1.64436   1.68703   1.82908
 Alpha virt. eigenvalues --    1.84987   1.93117   2.15913   2.24073   2.34106
 Alpha virt. eigenvalues --    2.37411   2.47072   2.51981   2.56211   2.61861
 Alpha virt. eigenvalues --    2.66549   2.69890   2.76139   2.89875   2.90090
 Alpha virt. eigenvalues --    2.96021   3.01486   3.06217   3.28346   3.34135
 Alpha virt. eigenvalues --    3.38728   3.89508   4.02317   4.36834   4.44405
 Alpha virt. eigenvalues --    4.57193
          Condensed to atoms (all electrons):
              1          2          3          4          5          6
     1  N    6.633044   0.341185  -0.101476   0.004249   0.298450  -0.111549
     2  N    0.341185   6.685622   0.207790  -0.019337  -0.088785  -0.100484
     3  N   -0.101476   0.207790   6.920053   0.316570  -0.073691   0.310931
     4  H    0.004249  -0.019337   0.316570   0.276579   0.003222  -0.015770
     5  N    0.298450  -0.088785  -0.073691   0.003222   6.766597   0.473725
     6  C   -0.111549  -0.100484   0.310931  -0.015770   0.473725   4.747078
     7  H    0.003037   0.001267  -0.035447   0.001036  -0.021796   0.392092
              7
     1  N    0.003037
     2  N    0.001267
     3  N   -0.035447
     4  H    0.001036
     5  N   -0.021796
     6  C    0.392092
     7  H    0.400588
 Mulliken atomic charges:
              1
     1  N   -0.066940
     2  N   -0.027258
     3  N   -0.544731
     4  H    0.433451
     5  N   -0.357722
     6  C    0.303977
     7  H    0.259222
 Sum of Mulliken charges=   0.00000
 Atomic charges with hydrogens summed into heavy atoms:
              1
     1  N   -0.066940
     2  N   -0.027258
     3  N   -0.111280
     4  H    0.000000
     5  N   -0.357722
     6  C    0.563200
     7  H    0.000000
 Sum of Mulliken charges=   0.00000
 Electronic spatial extent (au):  <R**2>=   251.4357
 Charge=     0.0000 electrons
 Dipole moment (field-independent basis, Debye):
    X=     2.7226    Y=     5.0123    Z=     0.0000  Tot=     5.7040
 Quadrupole moment (field-independent basis, Debye-Ang):
   XX=   -28.6820   YY=   -26.5169   ZZ=   -28.8351
   XY=     2.0812   XZ=     0.0000   YZ=     0.0000
 Traceless Quadrupole moment (field-independent basis, Debye-Ang):
   XX=    -0.6707   YY=     1.4945   ZZ=    -0.8238
   XY=     2.0812   XZ=     0.0000   YZ=     0.0000
 Octapole moment (field-independent basis, Debye-Ang**2):
  XXX=    13.0301  YYY=    23.6622  ZZZ=     0.0000  XYY=    -0.6797
  XXY=     5.1698  XXZ=     0.0000  XZZ=    -0.4904  YZZ=     0.6278
  YYZ=     0.0000  XYZ=     0.0000
 Hexadecapole moment (field-independent basis, Debye-Ang**3):
 XXXX=  -141.1674 YYYY=  -119.4015 ZZZZ=   -25.7834 XXXY=     7.4827
 XXXZ=     0.0000 YYYX=    -0.0008 YYYZ=     0.0000 ZZZX=     0.0000
 ZZZY=     0.0000 XXYY=   -53.7757 XXZZ=   -30.4937 YYZZ=   -29.1790
 XXYZ=     0.0000 YYXZ=     0.0000 ZZXY=     0.0853
 N-N= 1.667532528926D+02 E-N=-9.344096989941D+02  KE= 2.558771341910D+02
 Symmetry A'   KE= 2.469241017775D+02
 Symmetry A"   KE= 8.953032413519D+00
 1\1\GINC-QUASAR\FOpt\RMP3-FC\6-31G(d)\C1H2N4\RDJ3\08-Jan-2005\0\\#MP3/
 6-31G* OPT FREQ\\1H tetrazole c CH-NH-N=N-N= casno=288948 method=62 ba
 sis=1\\0,1\N,-1.1456215628,-0.2654351055,0.\N,-0.6788273607,0.93973607
 42,0.\N,0.6613713247,0.8194613755,0.\H,1.2447878348,1.6428019485,0.\N,
 -0.1358333391,-1.1843795733,0.\C,0.9775614167,-0.4880523394,0.\H,1.982
 2202304,-0.8801673087,0.\\Version=SGI64-G03RevC.02\State=1-A'\HF=-256.
 749519\MP2=-257.534876\MP3=-257.5321934\RMSD=5.510e-09\RMSF=2.086e-04\
 Dipole=1.9998905,0.874529,0.\PG=CS [SG(C1H2N4)]\\@


 O WAD SOME POWER THE GIFTIE GIE US       
 TO SEE OURSELS AS OTHERS SEE US.....     
 IT WOULD FRAE MONIE A BLUNDER FREE US,   
                     AND FOOLISH NOTION...
 WHAT AIRS IN DRESS AND GAIT WAD LEA'E US,
                     AND EV'N DEVOTION....
                                          
              (ROBERT BURNS 'TO A LOUSE') 
 Job cpu time:  0 days  0 hours 21 minutes 35.9 seconds.
 File lengths (MBytes):  RWF=    331 Int=      0 D2E=      0 Chk=      6 Scr=      1
 Normal termination of Gaussian 03 at Sat Jan  8 22:19:49 2005.
 Link1:  Proceeding to internal job step number  2.
 --------------------------------------------------------------------
 #N Geom=AllCheck Guess=Read SCRF=Check GenChk RMP3(FC)/6-31G(d) Freq
 --------------------------------------------------------------------
 1/10=4,29=7,30=1,38=11,40=1,46=1/1,3,6;
 2/40=1/2;
 3/5=1,6=6,7=1,11=1,16=1,25=1,30=1,70=2,71=1/1,2,3;
 4/5=1,7=1,69=2/1;
 5/5=2,38=6/2;
 8/6=4,9=120000,10=2/1,4;
 9/5=2,15=1/13;
 11/28=-10,29=200,42=3/11;
 10/5=8/2;
 6/7=2,8=2,9=2,10=2,22=-1/1;
 7/12=3/1,2,3,16;
 1/38=10,46=1/6(3);
 7/8=1,25=1,44=-1/16;
 1/10=4,30=1,38=10,46=1/3;
 99//99;
 3/5=1,6=6,7=1,11=1,16=1,25=1,30=1,70=5,71=1/1,2,3;
 4/5=5,7=1,16=3,69=2/1;
 5/5=2,38=5/2;
 8/6=4,9=120000,10=2/1,4;
 9/5=2,15=1/13;
 11/28=-10,29=200,42=3/11;
 10/5=8/2;
 6/7=2,8=2,9=2,10=2,22=-1/1;
 7/7=1,12=3/1,2,3,16;
 1/38=10,46=1/6(-9);
 7/8=1,25=1,44=-1/16;
 1/10=4,30=1,38=10,46=1/3;
 99//99;
 ----------------------------------------------------------
 1H tetrazole c CH-NH-N=N-N= casno=288948 method=62 basis=1
[...]
    6          6           0.000388588    0.000162568    0.000056028
    7          1           0.000035749   -0.000005189   -0.000044560
 -------------------------------------------------------------------
 Cartesian Forces:  Max     0.000648236 RMS     0.000209330
 NDeriv=  21 NFrqRd=  0 LFDDif=       0
 NDeriv=  21 NFrqRd=  0 LFDDif=       0
 Re-enter D2Numr: IAtom=  7 IXYZ=3 IStep= 1.
 Skip step-back as it is equivalent to step-up.
 Maximum difference in off-diagonal FC elements:
 I= 19 J=  5 Difference=    5.1113974912D-05
 Max difference between analytic and numerical forces:
 I= 11 Difference=    9.7658337745D-06
 Full mass-weighted force constant matrix:
 Low frequencies ---   -5.1494   -0.4237   -0.0512    5.6162    8.9627   12.9341
 Low frequencies ---  579.9847  700.9396  745.7647
 Diagonal vibrational polarizability:
        1.2377219       1.0719155       9.9322962
 Harmonic frequencies (cm**-1), IR intensities (KM/Mole), Raman scattering
 activities (A**4/AMU), depolarization ratios for plane and unpolarized
 incident light, reduced masses (AMU), force constants (mDyne/A),
 and normal coordinates:
                     1                      2                      3
                    A"                     A"                     A"
 Frequencies --   579.9845               700.9394               745.7647
 Red. masses --     1.8961                 1.9957                 7.0521
 Frc consts  --     0.3758                 0.5777                 2.3109
 IR Inten    --    99.1287                11.8945                10.8936
 Atom AN      X      Y      Z        X      Y      Z        X      Y      Z
   1   7     0.00   0.00   0.01     0.00   0.00   0.05     0.00   0.00   0.45
   2   7     0.00   0.00  -0.09     0.00   0.00   0.08     0.00   0.00  -0.40
   3   7     0.00   0.00   0.22     0.00   0.00  -0.09     0.00   0.00   0.12
   4   1     0.00   0.00  -0.95     0.00   0.00  -0.81     0.00   0.00   0.73
   5   7     0.00   0.00   0.03     0.00   0.00  -0.18     0.00   0.00  -0.29
   6   6     0.00   0.00  -0.10     0.00   0.00   0.18     0.00   0.00   0.08
   7   1     0.00   0.00  -0.19     0.00   0.00   0.51     0.00   0.00  -0.02
                     4                      5                      6
                    A"                     A'                     A'
 Frequencies --   863.3804              1003.5531              1037.3974
 Red. masses --     1.3184                 5.0718                 7.1800
 Frc consts  --     0.5790                 3.0095                 4.5527
 IR Inten    --    22.8023                 1.7905                 1.5524
 Atom AN      X      Y      Z        X      Y      Z        X      Y      Z
   1   7     0.00   0.00   0.02    -0.02   0.20   0.00     0.24  -0.07   0.00
   2   7     0.00   0.00   0.00    -0.17   0.15   0.00     0.20  -0.02   0.00
   3   7     0.00   0.00   0.02    -0.10  -0.05   0.00    -0.03   0.41   0.00
   4   1     0.00   0.00   0.10     0.43  -0.01   0.00     0.03   0.43   0.00
   5   7     0.00   0.00   0.02     0.36  -0.24   0.00    -0.05  -0.25   0.00
   6   6     0.00   0.00  -0.16    -0.10  -0.12   0.00    -0.40  -0.08   0.00
   7   1     0.00   0.00   0.98    -0.33   0.62   0.00    -0.30  -0.47   0.00
                     7                      8                      9
                    A'                     A'                     A'
 Frequencies --  1108.7720              1132.0296              1189.9705
 Red. masses --     5.9162                 2.6514                 1.7551
 Frc consts  --     4.2852                 2.0019                 1.4643
 IR Inten    --    21.5536                27.5622                12.7359
 Atom AN      X      Y      Z        X      Y      Z        X      Y      Z
   1   7     0.41   0.08   0.00    -0.11  -0.01   0.00    -0.10  -0.12   0.00
   2   7     0.00   0.16   0.00     0.29   0.10   0.00     0.03  -0.03   0.00
   3   7    -0.06  -0.29   0.00    -0.11  -0.07   0.00     0.13   0.01   0.00
   4   1     0.43  -0.28   0.00    -0.75  -0.12   0.00     0.61   0.04   0.00
   5   7    -0.28   0.00   0.00     0.01  -0.05   0.00    -0.02   0.01   0.00
   6   6    -0.11   0.03   0.00    -0.01   0.00   0.00    -0.08   0.10   0.00
   7   1    -0.28   0.53   0.00    -0.18   0.52   0.00    -0.28   0.70   0.00
                    10                     11                     12
                    A'                     A'                     A'
 Frequencies --  1323.8709              1358.5963              1537.2173
 Red. masses --     2.9191                 8.1196                 2.9800
 Frc consts  --     3.0143                 8.8301                 4.1489
 IR Inten    --     0.2991                18.5374                19.4352
 Atom AN      X      Y      Z        X      Y      Z        X      Y      Z
   1   7    -0.06   0.02   0.00    -0.02   0.51   0.00     0.01  -0.02   0.00
   2   7     0.14   0.01   0.00     0.09  -0.48   0.00    -0.09   0.08   0.00
   3   7    -0.05  -0.14   0.00     0.16  -0.03   0.00     0.24  -0.11   0.00
   4   1     0.56  -0.12   0.00    -0.35  -0.08   0.00    -0.81  -0.20   0.00
   5   7     0.13   0.20   0.00    -0.08   0.03   0.00     0.06  -0.07   0.00
   6   6    -0.22  -0.04   0.00    -0.12  -0.06   0.00    -0.18   0.19   0.00
   7   1    -0.05  -0.72   0.00    -0.31   0.47   0.00    -0.04  -0.36   0.00
                    13                     14                     15
                    A'                     A'                     A'
 Frequencies --  1575.4465              3361.0293              3729.0365
 Red. masses --     3.8261                 1.1020                 1.0842
 Frc consts  --     5.5952                 7.3344                 8.8832
 IR Inten    --    18.5658                 1.3725               118.6148
 Atom AN      X      Y      Z        X      Y      Z        X      Y      Z
   1   7     0.06  -0.09   0.00     0.00   0.00   0.00     0.00   0.00   0.00
   2   7    -0.09   0.07   0.00     0.00   0.00   0.00     0.00   0.00   0.00
   3   7     0.12   0.06   0.00     0.00   0.00   0.00     0.01  -0.08   0.00
   4   1    -0.61   0.02   0.00     0.01   0.02   0.00    -0.06   0.99   0.00
   5   7     0.04   0.24   0.00     0.00   0.00   0.00     0.00   0.00   0.00
   6   6    -0.07  -0.36   0.00     0.09   0.03   0.00     0.00   0.00   0.00
   7   1    -0.38   0.50   0.00    -0.95  -0.30   0.00     0.02   0.00   0.00

 -------------------
 - Thermochemistry -
 -------------------
 Temperature   298.150 Kelvin.  Pressure   1.00000 Atm.
 Atom  1 has atomic number  7 and mass  14.00307
 Atom  2 has atomic number  7 and mass  14.00307
 Atom  3 has atomic number  7 and mass  14.00307
 Atom  4 has atomic number  1 and mass   1.00783
 Atom  5 has atomic number  7 and mass  14.00307
 Atom  6 has atomic number  6 and mass  12.00000
 Atom  7 has atomic number  1 and mass   1.00783
 Molecular mass:    70.02795 amu.
 Principal axes and moments of inertia in atomic units:
                           1         2         3
     EIGENVALUES --   171.23822 174.46457 345.70280
           X            0.85593   0.51709   0.00000
           Y           -0.51709   0.85593   0.00000
           Z            0.00000   0.00000   1.00000
 This molecule is an asymmetric top.
 Rotational symmetry number  1.
 Rotational temperatures (Kelvin)      0.50581     0.49646     0.25054
 Rotational constants (GHZ):          10.53936    10.34446     5.22050
 Zero-point vibrational energy     127085.2 (Joules/Mol)
                                   30.37409 (Kcal/Mol)
 Warning -- explicit consideration of   1 degrees of freedom as
           vibrations may cause significant error
 Vibrational temperatures:    834.47  1008.49  1072.99  1242.21  1443.89
          (Kelvin)           1492.58  1595.27  1628.74  1712.10  1904.75
                             1954.71  2211.71  2266.71  4835.77  5365.25
 
 Zero-point correction=                           0.048404 (Hartree/Particle)
 Thermal correction to Energy=                    0.051836
 Thermal correction to Enthalpy=                  0.052781
 Thermal correction to Gibbs Free Energy=         0.022320
 Sum of electronic and zero-point Energies=           -257.483789
 Sum of electronic and thermal Energies=              -257.480357
 Sum of electronic and thermal Enthalpies=            -257.479413
 Sum of electronic and thermal Free Energies=         -257.509873
 
                     E (Thermal)             CV                S
                      KCal/Mol        Cal/Mol-Kelvin    Cal/Mol-Kelvin
 Total                   32.528             10.991             64.109
 Electronic               0.000              0.000              0.000
 Translational            0.889              2.981             38.656
 Rotational               0.889              2.981             23.850
 Vibrational             30.750              5.029              1.603
 Vibration  1             0.937              1.075              0.485
                       Q            Log10(Q)             Ln(Q)
 Total Bot       0.541355D-10        -10.266518        -23.639531
 Total V=0       0.994999D+12         11.997823         27.626007
 Vib (Bot)       0.646053D-22        -22.189732        -51.093746
 Vib (Bot)  1    0.262739D+00         -0.580476         -1.336594
 Vib (V=0)       0.118743D+01          0.074608          0.171792
 Vib (V=0)  1    0.106483D+01          0.027280          0.062814
 Electronic      0.100000D+01          0.000000          0.000000
 Translational   0.230336D+08          7.362362         16.952466
 Rotational      0.363791D+05          4.560852         10.501749
 ***** Axes restored to original set *****
 -------------------------------------------------------------------
 Center     Atomic                   Forces (Hartrees/Bohr)
 Number     Number              X              Y              Z
 -------------------------------------------------------------------
    1          7           0.000229750   -0.000292735    0.000000000
    2          7           0.000136067   -0.000032750    0.000000000
    3          7          -0.000383341   -0.000005899    0.000000000
    4          1           0.000032164   -0.000007011    0.000000000
    5          7          -0.000443650    0.000482425    0.000000000
    6          6           0.000404177   -0.000117435    0.000000000
    7          1           0.000024832   -0.000026595    0.000000000
 -------------------------------------------------------------------
 Cartesian Forces:  Max     0.000482425 RMS     0.000208643

 GradGradGradGradGradGradGradGradGradGradGradGradGradGradGradGradGradGrad
 Berny optimization.
 Internal  Forces:  Max     0.000399339 RMS     0.000115707
 Search for a local minimum.
 Step number   1 out of a maximum of   2
 All quantities printed in internal units (Hartrees-Bohrs-Radians)
 Second derivative matrix not updated -- analytic derivatives used.
     Eigenvalues ---    0.00815   0.02613   0.07213   0.07961   0.11012
     Eigenvalues ---    0.11359   0.21945   0.29027   0.37641   0.39490
     Eigenvalues ---    0.46737   0.49245   0.50441   0.61226   0.66461
     Eigenvalues --- 1000.000001000.000001000.000001000.000001000.00000
     Eigenvalues --- 1000.000001000.000001000.000001000.000001000.00000
     Eigenvalues --- 1000.00000
 Angle between quadratic step and forces=  15.93 degrees.
 Linear search not attempted -- first point.
 Iteration  1 RMS(Cart)=  0.00032517 RMS(Int)=  0.00000011
 Iteration  2 RMS(Cart)=  0.00000009 RMS(Int)=  0.00000006
 Variable       Old X    -DE/DX   Delta X   Delta X   Delta X     New X
                                 (Linear)    (Quad)   (Total)
    R1        2.44231  -0.00004   0.00000   0.00034   0.00034   2.44265
    R2        2.58010  -0.00040   0.00000  -0.00161  -0.00161   2.57849
    R3        2.54279  -0.00013   0.00000  -0.00060  -0.00060   2.54218
    R4        1.90691   0.00001   0.00000   0.00005   0.00005   1.90696
    R5        2.54206   0.00005   0.00000   0.00018   0.00018   2.54224
    R6        2.48161   0.00010   0.00000   0.00045   0.00045   2.48205
    R7        2.03801   0.00003   0.00000   0.00003   0.00003   2.03804
    A1        1.93960  -0.00003   0.00000  -0.00006  -0.00006   1.93954
    A2        1.85083   0.00001   0.00000  -0.00018  -0.00018   1.85065
    A3        2.09776  -0.00001   0.00000   0.00003   0.00003   2.09779
    A4        1.89757   0.00007   0.00000   0.00046   0.00046   1.89803
    A5        2.28785  -0.00006   0.00000  -0.00049  -0.00049   2.28736
    A6        1.84437   0.00021   0.00000   0.00077   0.00077   1.84514
    A7        1.89242  -0.00026   0.00000  -0.00100  -0.00100   1.89141
    A8        2.18018   0.00015   0.00000   0.00067   0.00067   2.18085
    A9        2.21059   0.00011   0.00000   0.00034   0.00034   2.21092
    D1        0.00000   0.00000   0.00000   0.00000   0.00000   0.00000
    D2        0.00000   0.00000   0.00000   0.00000   0.00000   0.00000
    D3        3.14159   0.00000   0.00000   0.00000   0.00000   3.14159
    D4        0.00000   0.00000   0.00000   0.00000   0.00000   0.00000
    D5        0.00000   0.00000   0.00000   0.00000   0.00000   0.00000
    D6        3.14159   0.00000   0.00000   0.00000   0.00000   3.14159
    D7        3.14159   0.00000   0.00000   0.00000   0.00000   3.14159
    D8        0.00000   0.00000   0.00000   0.00000   0.00000   0.00000
    D9        0.00000   0.00000   0.00000   0.00000   0.00000   0.00000
   D10        3.14159   0.00000   0.00000   0.00000   0.00000   3.14159
         Item               Value     Threshold  Converged?
 Maximum Force            0.000399     0.000450     YES
 RMS     Force            0.000116     0.000300     YES
 Maximum Displacement     0.001026     0.001800     YES
 RMS     Displacement     0.000325     0.001200     YES
 Predicted change in Energy=-6.936905D-07
 Optimization completed.
    -- Stationary point found.
                           ----------------------------
                           !   Optimized Parameters   !
                           ! (Angstroms and Degrees)  !
 --------------------------                            --------------------------
 ! Name  Definition              Value          Derivative Info.                !
 --------------------------------------------------------------------------------
 ! R1    R(1,2)                  1.2924         -DE/DX =    0.0                 !
 ! R2    R(1,5)                  1.3653         -DE/DX =   -0.0004              !
 ! R3    R(2,3)                  1.3456         -DE/DX =   -0.0001              !
 ! R4    R(3,4)                  1.0091         -DE/DX =    0.0                 !
 ! R5    R(3,6)                  1.3452         -DE/DX =    0.0001              !
 ! R6    R(5,6)                  1.3132         -DE/DX =    0.0001              !
 ! R7    R(6,7)                  1.0785         -DE/DX =    0.0                 !
 ! A1    A(2,1,5)              111.1307         -DE/DX =    0.0                 !
 ! A2    A(1,2,3)              106.0445         -DE/DX =    0.0                 !
 ! A3    A(2,3,4)              120.1931         -DE/DX =    0.0                 !
 ! A4    A(2,3,6)              108.7228         -DE/DX =    0.0001              !
 ! A5    A(4,3,6)              131.0841         -DE/DX =   -0.0001              !
 ! A6    A(1,5,6)              105.6744         -DE/DX =    0.0002              !
 ! A7    A(3,6,5)              108.4276         -DE/DX =   -0.0003              !
 ! A8    A(3,6,7)              124.9151         -DE/DX =    0.0001              !
 ! A9    A(5,6,7)              126.6572         -DE/DX =    0.0001              !
 ! D1    D(5,1,2,3)              0.0            -DE/DX =    0.0                 !
 ! D2    D(2,1,5,6)              0.0            -DE/DX =    0.0                 !
 ! D3    D(1,2,3,4)            180.0            -DE/DX =    0.0                 !
 ! D4    D(1,2,3,6)              0.0            -DE/DX =    0.0                 !
 ! D5    D(2,3,6,5)              0.0            -DE/DX =    0.0                 !
 ! D6    D(2,3,6,7)            180.0            -DE/DX =    0.0                 !
 ! D7    D(4,3,6,5)            180.0            -DE/DX =    0.0                 !
 ! D8    D(4,3,6,7)              0.0            -DE/DX =    0.0                 !
 ! D9    D(1,5,6,3)              0.0            -DE/DX =    0.0                 !
 ! D10   D(1,5,6,7)            180.0            -DE/DX =    0.0                 !
 --------------------------------------------------------------------------------
 GradGradGradGradGradGradGradGradGradGradGradGradGradGradGradGradGradGrad

 1\1\GINC-QUASAR\Freq\RMP3-FC\6-31G(d)\C1H2N4\RDJ3\09-Jan-2005\0\\#N GE
 OM=ALLCHECK GUESS=READ SCRF=CHECK GENCHK RMP3(FC)/6-31G(D) FREQ\\1H te
 trazole c CH-NH-N=N-N= casno=288948 method=62 basis=1\\0,1\N,-1.145621
 5628,-0.2654351055,0.\N,-0.6788273607,0.9397360742,0.\N,0.6613713247,0
 .8194613755,0.\H,1.2447878348,1.6428019485,0.\N,-0.1358333391,-1.18437
 95733,0.\C,0.9775614167,-0.4880523394,0.\H,1.9822202304,-0.8801673087,
 0.\\Version=SGI64-G03RevC.02\State=1-A'\HF=-256.749519\MP2=-257.534875
 9\MP3=-257.5321934\RMSD=1.264e-09\RMSF=2.086e-04\Dipole=1.9998904,0.87
 45291,0.\DipoleDeriv=0.0011509,-0.1063832,0.,-0.2361185,0.0404083,0.,0
 .,0.,-0.1585995,0.2878754,0.1826553,0.,0.2250924,-0.2873162,0.,0.,0.,-
 0.0893069,-0.4217827,-0.2186413,0.,-0.2006969,-0.3161795,0.,0.,0.,-0.1
 923436,0.2460804,0.0530588,0.,0.0406362,0.2927514,0.,0.,0.,0.3724718,-
 0.4114508,0.0982527,0.,0.0243837,-0.3267752,0.,0.,0.,-0.216375,0.23659
 58,-0.0167973,0.,0.1384851,0.4787717,0.,0.,0.,0.1125035,0.0616039,0.00
 81538,0.,0.0082874,0.1183291,0.,0.,0.,0.1715468\PG=CS [SG(C1H2N4)]\NIm
 ag=0\\0.57961324,0.09811047,0.52171863,0.,0.,0.12598090,-0.15708214,-0
 .12662575,0.,0.49655038,-0.05766343,-0.35199605,0.,-0.02446282,0.64862
 398,0.,0.,-0.09838057,0.,0.,0.11673041,-0.10811033,-0.10832119,0.,-0.2
 6796737,0.02318434,0.,0.72659448,-0.03306515,-0.06745845,0.,0.07234444
 ,-0.12651943,0.,0.18899687,0.98546120,0.,0.,0.02675247,0.,0.,-0.068250
 25,0.,0.,0.08974609,-0.01155594,-0.00005523,0.,-0.00704514,-0.03449905
 ,0.,-0.20423155,-0.18347793,0.,0.20658693,0.00682487,0.00284393,0.,0.0
 0262309,0.01265901,0.,-0.19311303,-0.35343625,0.,0.20310113,0.34956157
 ,0.,0.,0.00841628,0.,0.,-0.01297438,0.,0.,-0.00633240,0.,0.,0.01420082
 ,-0.18023352,0.06669935,0.,0.00913031,0.09090715,0.,-0.01277931,-0.112
 74782,0.,0.00079929,0.00057988,0.,0.52867254,0.02451756,-0.14095447,0.
 ,-0.01348827,-0.12322340,0.,-0.00148631,-0.08061711,0.,0.00837741,-0.0
 0650086,0.,0.11691972,0.56279924,0.,0.,-0.09089636,0.,0.,0.03624756,0.
 ,0.,0.01988183,0.,0.,0.00794932,0.,0.,0.11042823,-0.11911646,0.0712011
 0,0.,-0.07396125,0.00569020,0.,-0.13891304,0.07144271,0.,0.01589248,-0
 .02059416,0.,-0.33099668,-0.14669439,0.,0.98417720,-0.03207614,0.03713
 118,0.,0.08969197,-0.05295138,0.,0.05786464,-0.35307327,0.,0.00661627,
 -0.00464152,0.,-0.14472666,-0.22722455,0.,-0.08863730,0.70491456,0.,0.
 ,0.01869937,0.,0.,0.01995884,0.,0.,-0.05796257,0.,0.,-0.01068060,0.,0.
 ,-0.07801414,0.,0.,0.13765205,-0.00352741,-0.00101835,0.,0.00038559,-0
 .00315624,0.,0.00540843,-0.00347810,0.,-0.00044589,0.00057844,0.,-0.01
 458706,0.01186796,0.,-0.33708268,0.11124603,0.,0.34984454,-0.00666237,
 -0.00124532,0.,-0.00010238,-0.00662234,0.,0.03289185,-0.00433398,0.,-0
 .00006360,-0.00048557,0.,-0.01759365,0.01571189,0.,0.10757137,-0.10417
 872,0.,-0.11603950,0.10115417,0.,0.,0.00940147,0.,0.,0.00665755,0.,0.,
 -0.00382407,0.,0.,-0.00057649,0.,0.,-0.00558407,0.,0.,-0.02964807,0.,0
 .,0.02358008\\-0.00022975,0.00029274,0.,-0.00013607,0.00003275,0.,0.00
 038334,0.00000590,0.,-0.00003216,0.00000701,0.,0.00044365,-0.00048242,
 0.,-0.00040418,0.00011744,0.,-0.00002483,0.00002659,0.\\\@


 GARBAGE IN, GARBAGE OUT
 Job cpu time:  0 days  2 hours 38 minutes 54.9 seconds.
 File lengths (MBytes):  RWF=    361 Int=      0 D2E=      0 Chk=     13 Scr=      1
 Normal termination of Gaussian 03 at Sun Jan  9 02:28:59 2005.
