 host = p2207 (kernel = 2.6.18-128.el5)
 Running revision A02

 Current disk usage on p2207

 START DATE Thu Jul  8 15:16:42 EDT 2010
 GAUSS_LFLAGS = '-nodelist "p2207"'
 Entering Gaussian System, Link 0=/usr/local/gaussian09-A02-64/g09/g09
 Initial command:
 /usr/local/gaussian09-A02-64/g09/l1.exe /gaussian/Gau-26626.inp -scrdir=/gaussian/
 Entering Link 1 = /usr/local/gaussian09-A02-64/g09/l1.exe PID=     26634.
  
 Copyright (c) 1988,1990,1992,1993,1995,1998,2003,2009, Gaussian, Inc.
                  All Rights Reserved.
  
 This is part of the Gaussian(R) 09 program.  It is based on
 the Gaussian(R) 03 system (copyright 2003, Gaussian, Inc.),
 the Gaussian(R) 98 system (copyright 1998, Gaussian, Inc.),
 the Gaussian(R) 94 system (copyright 1995, Gaussian, Inc.),
 the Gaussian 92(TM) system (copyright 1992, Gaussian, Inc.),
 the Gaussian 90(TM) system (copyright 1990, Gaussian, Inc.),
 the Gaussian 88(TM) system (copyright 1988, Gaussian, Inc.),
 the Gaussian 86(TM) system (copyright 1986, Carnegie Mellon
 University), and the Gaussian 82(TM) system (copyright 1983,
 Carnegie Mellon University). Gaussian is a federally registered
 trademark of Gaussian, Inc.
  
 This software contains proprietary and confidential information,
 including trade secrets, belonging to Gaussian, Inc.
  
 This software is provided under written license and may be
 used, copied, transmitted, or stored only in accord with that
 written license.
  
 The following legend is applicable only to US Government
 contracts under FAR:
  
                    RESTRICTED RIGHTS LEGEND
  
 Use, reproduction and disclosure by the US Government is
 subject to restrictions as set forth in subparagraphs (a)
 and (c) of the Commercial Computer Software - Restricted
 Rights clause in FAR 52.227-19.
  
 Gaussian, Inc.
 340 Quinnipiac St., Bldg. 40, Wallingford CT 06492
  
  
 ---------------------------------------------------------------
 Warning -- This program may not be used in any manner that
 competes with the business of Gaussian, Inc. or will provide
 assistance to any competitor of Gaussian, Inc.  The licensee
 of this program is prohibited from giving any competitor of
 Gaussian, Inc. access to this program.  By using this program,
 the user acknowledges that Gaussian, Inc. is engaged in the
 business of creating and licensing software in the field of
 computational chemistry and represents and warrants to the
 licensee that it is not a competitor of Gaussian, Inc. and that
 it will not use this program in any manner prohibited above.
 ---------------------------------------------------------------
  

 Cite this work as:
 Gaussian 09, Revision A.02,
 M. J. Frisch, G. W. Trucks, H. B. Schlegel, G. E. Scuseria, 
 M. A. Robb, J. R. Cheeseman, G. Scalmani, V. Barone, B. Mennucci, 
 G. A. Petersson, H. Nakatsuji, M. Caricato, X. Li, H. P. Hratchian, 
 A. F. Izmaylov, J. Bloino, G. Zheng, J. L. Sonnenberg, M. Hada, 
 M. Ehara, K. Toyota, R. Fukuda, J. Hasegawa, M. Ishida, T. Nakajima, 
 Y. Honda, O. Kitao, H. Nakai, T. Vreven, J. A. Montgomery, Jr., 
 J. E. Peralta, F. Ogliaro, M. Bearpark, J. J. Heyd, E. Brothers, 
 K. N. Kudin, V. N. Staroverov, R. Kobayashi, J. Normand, 
 K. Raghavachari, A. Rendell, J. C. Burant, S. S. Iyengar, J. Tomasi, 
 M. Cossi, N. Rega, J. M. Millam, M. Klene, J. E. Knox, J. B. Cross, 
 V. Bakken, C. Adamo, J. Jaramillo, R. Gomperts, R. E. Stratmann, 
 O. Yazyev, A. J. Austin, R. Cammi, C. Pomelli, J. W. Ochterski, 
 R. L. Martin, K. Morokuma, V. G. Zakrzewski, G. A. Voth, 
 P. Salvador, J. J. Dannenberg, S. Dapprich, A. D. Daniels, 
 O. Farkas, J. B. Foresman, J. V. Ortiz, J. Cioslowski, 
 and D. J. Fox, Gaussian, Inc., Wallingford CT, 2009.
 
 ******************************************
 Gaussian 09:  AM64L-G09RevA.02 11-Jun-2009
                 8-Jul-2010 
 ******************************************
 %mem=24000000
 ------
 #G3MP2
 ------
 1/18=20,19=15,38=1/1,3;
 2/9=110,12=2,17=6,18=5,40=1/2;
 3/5=33,7=1,11=9,16=1,25=1,30=1,71=1/1,2,3;
 4//1;
 5/5=2,38=5/2;
 6/7=2,8=2,9=2,10=2,28=1/1;
 7//1,2,3,16;
 1/18=20,19=15/3(2);
 2/9=110/2;
 99//99;
 2/9=110/2;
 3/5=33,7=1,11=9,16=1,25=1,30=1,71=1/1,2,3;
 4/5=5,16=3/1;
 5/5=2,38=5/2;
 7//1,2,3,16;
 1/18=20,19=15/3(-5);
 2/9=110/2;
 6/7=2,8=2,9=2,10=2,19=2,28=1/1;
 99/9=1/99;
 -----------------------------------------------------------------
 1htz 1H-Tetrazole casno=288948 state=1 config=1 method=67 basis=0
 -----------------------------------------------------------------
 Symbolic Z-matrix:
 Charge =  0 Multiplicity = 1
 N                    -0.71631  -0.90193   0. 
 N                    -1.09552   0.29142   0. 
 N                     0.        1.03878   0. 
 H                    -0.06148   2.03099   0. 
 N                     0.62215  -0.9895    0. 
 C                     1.05281   0.22578   0. 
 H                     2.07237   0.54298   0. 
 

 GradGradGradGradGradGradGradGradGradGradGradGradGradGradGradGradGradGrad
 Berny optimization.
 Initialization pass.
                           ----------------------------
                           !    Initial Parameters    !
                           ! (Angstroms and Degrees)  !
 --------------------------                            --------------------------
 ! Name  Definition              Value          Derivative Info.                !
 --------------------------------------------------------------------------------
 ! R1    R(1,2)                  1.2522         estimate D2E/DX2                !
 ! R2    R(1,5)                  1.3413         estimate D2E/DX2                !
 ! R3    R(2,3)                  1.3262         estimate D2E/DX2                !
 ! R4    R(3,4)                  0.9941         estimate D2E/DX2                !
 ! R5    R(3,6)                  1.3302         estimate D2E/DX2                !
 ! R6    R(5,6)                  1.2893         estimate D2E/DX2                !
 ! R7    R(6,7)                  1.0678         estimate D2E/DX2                !
 ! A1    A(2,1,5)              111.3714         estimate D2E/DX2                !
 ! A2    A(1,2,3)              106.673          estimate D2E/DX2                !
 ! A3    A(2,3,4)              120.7559         estimate D2E/DX2                !
 ! A4    A(2,3,6)              108.0227         estimate D2E/DX2                !
 ! A5    A(4,3,6)              131.2214         estimate D2E/DX2                !
 ! A6    A(1,5,6)              105.7701         estimate D2E/DX2                !
 ! A7    A(3,6,5)              108.1628         estimate D2E/DX2                !
 ! A8    A(3,6,7)              125.0426         estimate D2E/DX2                !
 ! A9    A(5,6,7)              126.7946         estimate D2E/DX2                !
 ! D1    D(5,1,2,3)              0.0            estimate D2E/DX2                !
 ! D2    D(2,1,5,6)              0.0            estimate D2E/DX2                !
 ! D3    D(1,2,3,4)            180.0            estimate D2E/DX2                !
 ! D4    D(1,2,3,6)              0.0            estimate D2E/DX2                !
 ! D5    D(2,3,6,5)              0.0            estimate D2E/DX2                !
 ! D6    D(2,3,6,7)            180.0            estimate D2E/DX2                !
 ! D7    D(4,3,6,5)            180.0            estimate D2E/DX2                !
 ! D8    D(4,3,6,7)              0.0            estimate D2E/DX2                !
 ! D9    D(1,5,6,3)              0.0            estimate D2E/DX2                !
 ! D10   D(1,5,6,7)            180.0            estimate D2E/DX2                !
 --------------------------------------------------------------------------------
 Trust Radius=3.00D-01 FncErr=1.00D-07 GrdErr=1.00D-07
 Number of steps in this run=  36 maximum allowed number of steps= 100.
 GradGradGradGradGradGradGradGradGradGradGradGradGradGradGradGradGradGrad

                          Input orientation:                          
 ---------------------------------------------------------------------
 Center     Atomic      Atomic             Coordinates (Angstroms)
 Number     Number       Type             X           Y           Z
 ---------------------------------------------------------------------
      1          7           0       -0.716312   -0.901934    0.000000
      2          7           0       -1.095520    0.291420    0.000000
      3          7           0        0.000000    1.038775    0.000000
      4          1           0       -0.061479    2.030994    0.000000
      5          7           0        0.622151   -0.989495    0.000000
      6          6           0        1.052813    0.225779    0.000000
      7          1           0        2.072370    0.542976    0.000000
 ---------------------------------------------------------------------
                    Distance matrix (angstroms):
                    1          2          3          4          5
     1  N    0.000000
     2  N    1.252155   0.000000
     3  N    2.068684   1.326161   0.000000
     4  H    3.005141   2.023699   0.994122   0.000000
     5  N    1.341324   2.142694   2.121544   3.096886   0.000000
     6  C    2.097985   2.149336   1.330180   2.121426   1.289326
     7  H    3.140782   3.177862   2.130853   2.601444   2.109882
                    6          7
     6  C    0.000000
     7  H    1.067760   0.000000
 Stoichiometry    CH2N4
 Framework group  CS[SG(CH2N4)]
 Deg. of freedom    11
 Full point group                 CS      NOp   2
 Largest Abelian subgroup         CS      NOp   2
 Largest concise Abelian subgroup C1      NOp   1
                         Standard orientation:                         
 ---------------------------------------------------------------------
 Center     Atomic      Atomic             Coordinates (Angstroms)
 Number     Number       Type             X           Y           Z
 ---------------------------------------------------------------------
      1          7           0       -0.716312   -0.901934    0.000000
      2          7           0       -1.095520    0.291420    0.000000
      3          7           0        0.000000    1.038775    0.000000
      4          1           0       -0.061479    2.030994    0.000000
      5          7           0        0.622151   -0.989495    0.000000
      6          6           0        1.052813    0.225779    0.000000
      7          1           0        2.072370    0.542976    0.000000
 ---------------------------------------------------------------------
 Rotational constants (GHZ):     10.9198649     10.7343934      5.4131674
 Standard basis: GTBas1 (6D, 7F)
 There are    59 symmetry adapted basis functions of A'  symmetry.
 There are    20 symmetry adapted basis functions of A"  symmetry.
 Integral buffers will be    131072 words long.
 Raffenetti 1 integral format.
 Two-electron integral symmetry is turned on.
    79 basis functions,   148 primitive gaussians,    79 cartesian basis functions
    18 alpha electrons       18 beta electrons
       nuclear repulsion energy       169.8288230689 Hartrees.
 NAtoms=    7 NActive=    7 NUniq=    7 SFac= 7.50D-01 NAtFMM=   80 NAOKFM=F Big=F
 One-electron integrals computed using PRISM.
 NBasis=    79 RedAO= T  NBF=    59    20
 NBsUse=    79 1.00D-06 NBFU=    59    20
 Harris functional with IExCor=  205 diagonalized for initial guess.
 ExpMin= 1.61D-01 ExpMax= 4.17D+03 ExpMxC= 6.27D+02 IAcc=1 IRadAn=         1 AccDes= 0.00D+00
 HarFok:  IExCor=  205 AccDes= 0.00D+00 IRadAn=         1 IDoV= 1
 ScaDFX=  1.000000  1.000000  1.000000  1.000000
 FoFCou: FMM=F IPFlag=           0 FMFlag=      100000 FMFlg1=           0
         NFxFlg=           0 DoJE=T BraDBF=F KetDBF=T FulRan=T
         Omega=  0.000000  0.000000  1.000000  0.000000  0.000000 ICntrl=     500 IOpCl=  0
         NMat0=    1 NMatS0=    1 NMatT0=    0 NMatD0=    1 NMtDS0=    0 NMtDT0=    0
         I1Cent=           4 NGrid=           0.
 Petite list used in FoFCou.
 Initial guess orbital symmetries:
       Occupied  (A') (A') (A') (A') (A') (A') (A') (A') (A') (A')
                 (A') (A') (A") (A') (A") (A") (A') (A')
       Virtual   (A") (A") (A') (A') (A') (A') (A') (A') (A') (A')
                 (A") (A') (A') (A') (A') (A") (A') (A") (A') (A")
                 (A") (A') (A') (A') (A') (A') (A') (A') (A') (A")
                 (A") (A") (A') (A') (A") (A") (A') (A') (A') (A')
                 (A') (A') (A") (A") (A') (A') (A") (A") (A') (A')
                 (A") (A') (A') (A') (A') (A') (A') (A') (A') (A')
                 (A')
 The electronic state of the initial guess is 1-A'.
 Requested convergence on RMS density matrix=1.00D-08 within 128 cycles.
 Requested convergence on MAX density matrix=1.00D-06.
 Requested convergence on             energy=1.00D-06.
 No special actions if energy rises.
 Keep R1 ints in memory in canonical form, NReq=5852352.
 SCF Done:  E(RHF) =  -256.754076242     A.U. after   15 cycles
             Convg  =    0.5086D-08             -V/T =  2.0017

 **********************************************************************

            Population analysis using the SCF density.

 **********************************************************************

 Orbital symmetries:
       Occupied  (A') (A') (A') (A') (A') (A') (A') (A') (A') (A')
                 (A') (A") (A') (A') (A') (A') (A") (A")
       Virtual   (A") (A') (A") (A') (A') (A') (A') (A') (A') (A")
                 (A') (A') (A') (A') (A") (A') (A') (A") (A') (A")
                 (A') (A') (A") (A') (A') (A') (A') (A') (A') (A")
                 (A") (A") (A') (A') (A") (A") (A') (A') (A') (A')
                 (A') (A') (A") (A") (A') (A') (A") (A") (A') (A')
                 (A") (A') (A') (A') (A') (A') (A') (A') (A') (A')
                 (A')
 The electronic state is 1-A'.
 Alpha  occ. eigenvalues --  -15.68426 -15.66114 -15.64137 -15.59954 -11.33392
 Alpha  occ. eigenvalues --   -1.52162  -1.26658  -1.21014  -0.91425  -0.89656
 Alpha  occ. eigenvalues --   -0.81012  -0.68902  -0.68409  -0.57261  -0.47489
 Alpha  occ. eigenvalues --   -0.46285  -0.45783  -0.42408
 Alpha virt. eigenvalues --    0.15145   0.20119   0.20249   0.25700   0.37656
 Alpha virt. eigenvalues --    0.39686   0.48768   0.51617   0.67281   0.73609
 Alpha virt. eigenvalues --    0.74379   0.82417   0.83553   0.90498   0.91522
 Alpha virt. eigenvalues --    0.92043   0.94179   0.95809   0.96154   1.05045
 Alpha virt. eigenvalues --    1.06083   1.08497   1.09726   1.13353   1.17940
 Alpha virt. eigenvalues --    1.23098   1.29429   1.31742   1.49106   1.53806
 Alpha virt. eigenvalues --    1.60296   1.64481   1.65435   1.69836   1.84833
 Alpha virt. eigenvalues --    1.86690   1.93792   2.18768   2.28155   2.37834
 Alpha virt. eigenvalues --    2.41191   2.51234   2.53091   2.58424   2.66428
 Alpha virt. eigenvalues --    2.71023   2.72329   2.79669   2.90121   2.90411
 Alpha virt. eigenvalues --    3.01041   3.04123   3.09308   3.34838   3.38389
 Alpha virt. eigenvalues --    3.42716   3.91286   4.04385   4.39863   4.47079
 Alpha virt. eigenvalues --    4.57576
          Condensed to atoms (all electrons):
              1          2          3          4          5          6
     1  N    6.618476   0.357299  -0.108898   0.004619   0.312254  -0.119598
     2  N    0.357299   6.669376   0.216339  -0.020726  -0.098238  -0.104282
     3  N   -0.108898   0.216339   6.911505   0.321564  -0.077332   0.313518
     4  H    0.004619  -0.020726   0.321564   0.278280   0.003670  -0.017322
     5  N    0.312254  -0.098238  -0.077332   0.003670   6.755883   0.486703
     6  C   -0.119598  -0.104282   0.313518  -0.017322   0.486703   4.741273
     7  H    0.003176   0.001282  -0.036850   0.000966  -0.022636   0.395962
              7
     1  N    0.003176
     2  N    0.001282
     3  N   -0.036850
     4  H    0.000966
     5  N   -0.022636
     6  C    0.395962
     7  H    0.402269
 Mulliken atomic charges:
              1
     1  N   -0.067328
     2  N   -0.021049
     3  N   -0.539846
     4  H    0.428949
     5  N   -0.360304
     6  C    0.303746
     7  H    0.255832
 Sum of Mulliken atomic charges =   0.00000
 Mulliken charges with hydrogens summed into heavy atoms:
              1
     1  N   -0.067328
     2  N   -0.021049
     3  N   -0.110897
     5  N   -0.360304
     6  C    0.559579
 Sum of Mulliken charges with hydrogens summed into heavy atoms =   0.00000
 Electronic spatial extent (au):  <R**2>=            244.6240
 Charge=              0.0000 electrons
 Dipole moment (field-independent basis, Debye):
    X=              2.6731    Y=              4.9691    Z=              0.0000  Tot=              5.6425
 Quadrupole moment (field-independent basis, Debye-Ang):
   XX=            -28.6583   YY=            -26.5335   ZZ=            -28.5222
   XY=              1.9999   XZ=              0.0000   YZ=              0.0000
 Traceless Quadrupole moment (field-independent basis, Debye-Ang):
   XX=             -0.7536   YY=              1.3712   ZZ=             -0.6176
   XY=              1.9999   XZ=              0.0000   YZ=              0.0000
 Octapole moment (field-independent basis, Debye-Ang**2):
  XXX=             12.5498  YYY=             22.9158  ZZZ=              0.0000  XYY=             -0.6883
  XXY=              4.9900  XXZ=              0.0000  XZZ=             -0.5222  YZZ=              0.6168
  YYZ=              0.0000  XYZ=              0.0000
 Hexadecapole moment (field-independent basis, Debye-Ang**3):
 XXXX=           -137.3444 YYYY=           -115.9955 ZZZZ=            -25.2877 XXXY=              6.7902
 XXXZ=              0.0000 YYYX=             -0.0650 YYYZ=              0.0000 ZZZX=              0.0000
 ZZZY=              0.0000 XXYY=            -52.0522 XXZZ=            -29.5103 YYZZ=            -28.1701
 XXYZ=              0.0000 YYXZ=              0.0000 ZZXY=              0.0532
 N-N= 1.698288230689D+02 E-N=-9.408674225037D+02  KE= 2.563113661323D+02
 Symmetry A'   KE= 2.472871354223D+02
 Symmetry A"   KE= 9.024230710058D+00
 Calling FoFJK, ICntrl=      2127 FMM=F ISym2X=1 I1Cent= 0 IOpClX= 0 NMat=1 NMatS=1 NMatT=0.
 ***** Axes restored to original set *****
 -------------------------------------------------------------------
 Center     Atomic                   Forces (Hartrees/Bohr)
 Number     Number              X              Y              Z
 -------------------------------------------------------------------
      1        7          -0.000058962    0.000071443    0.000000000
      2        7           0.000115968   -0.000037757    0.000000000
      3        7          -0.000043486    0.000117940    0.000000000
      4        1          -0.000000050   -0.000029008    0.000000000
      5        7           0.000117187   -0.000027514    0.000000000
      6        6          -0.000131308   -0.000116411    0.000000000
      7        1           0.000000650    0.000021307    0.000000000
 -------------------------------------------------------------------
 Cartesian Forces:  Max     0.000131308 RMS     0.000063932

 GradGradGradGradGradGradGradGradGradGradGradGradGradGradGradGradGradGrad
 Berny optimization.
 Internal  Forces:  Max     0.000081637 RMS     0.000037248
 Search for a local minimum.
 Step number   1 out of a maximum of   36
 All quantities printed in internal units (Hartrees-Bohrs-Radians)
 Mixed Optimization -- En-DIIS/RFO-DIIS
 Second derivative matrix not updated -- first step.
     Eigenvalues ---    0.02505   0.02639   0.02674   0.02834   0.16000
     Eigenvalues ---    0.16000   0.22605   0.24688   0.37515   0.48737
     Eigenvalues ---    0.50885   0.56605   0.58506   0.66912   0.78894
     Eigenvalues --- 1000.000001000.000001000.000001000.000001000.00000
     Eigenvalues --- 1000.000001000.000001000.000001000.000001000.00000
     Eigenvalues --- 1000.00000
 RFO step:  Lambda=-1.29391556D-07 EMin= 2.50522405D-02
 Linear search not attempted -- first point.
 Iteration  1 RMS(Cart)=  0.00013489 RMS(Int)=  0.00000001
 Iteration  2 RMS(Cart)=  0.00000001 RMS(Int)=  0.00000000
 ClnCor:  largest displacement from symmetrization is 2.32D-15 for atom     7.
 Variable       Old X    -DE/DX   Delta X   Delta X   Delta X     New X
                                 (Linear)    (Quad)   (Total)
    R1        2.36623  -0.00004   0.00000  -0.00005  -0.00005   2.36618
    R2        2.53474   0.00004   0.00000   0.00007   0.00007   2.53480
    R3        2.50608  -0.00007   0.00000  -0.00012  -0.00012   2.50596
    R4        1.87862  -0.00003   0.00000  -0.00006  -0.00006   1.87856
    R5        2.51368   0.00001   0.00000   0.00002   0.00002   2.51370
    R6        2.43647  -0.00004   0.00000  -0.00005  -0.00005   2.43642
    R7        2.01777   0.00001   0.00000   0.00002   0.00002   2.01779
    A1        1.94380   0.00001   0.00000   0.00006   0.00006   1.94386
    A2        1.86179   0.00005   0.00000   0.00017   0.00017   1.86197
    A3        2.10759   0.00003   0.00000   0.00014   0.00014   2.10773
    A4        1.88535  -0.00006   0.00000  -0.00030  -0.00030   1.88505
    A5        2.29024   0.00003   0.00000   0.00016   0.00016   2.29041
    A6        1.84604  -0.00008   0.00000  -0.00030  -0.00030   1.84573
    A7        1.88780   0.00008   0.00000   0.00037   0.00037   1.88816
    A8        2.18241  -0.00006   0.00000  -0.00031  -0.00031   2.18209
    A9        2.21298  -0.00002   0.00000  -0.00006  -0.00006   2.21293
    D1        0.00000   0.00000   0.00000   0.00000   0.00000   0.00000
    D2        0.00000   0.00000   0.00000   0.00000   0.00000   0.00000
    D3        3.14159   0.00000   0.00000   0.00000   0.00000   3.14159
    D4        0.00000   0.00000   0.00000   0.00000   0.00000   0.00000
    D5        0.00000   0.00000   0.00000   0.00000   0.00000   0.00000
    D6        3.14159   0.00000   0.00000   0.00000   0.00000   3.14159
    D7        3.14159   0.00000   0.00000   0.00000   0.00000   3.14159
    D8        0.00000   0.00000   0.00000   0.00000   0.00000   0.00000
    D9        0.00000   0.00000   0.00000   0.00000   0.00000   0.00000
   D10        3.14159   0.00000   0.00000   0.00000   0.00000   3.14159
         Item               Value     Threshold  Converged?
 Maximum Force            0.000082     0.000450     YES
 RMS     Force            0.000037     0.000300     YES
 Maximum Displacement     0.000327     0.001800     YES
 RMS     Displacement     0.000135     0.001200     YES
 Predicted change in Energy=-6.469580D-08
 Optimization completed.
    -- Stationary point found.
                           ----------------------------
                           !   Optimized Parameters   !
                           ! (Angstroms and Degrees)  !
 --------------------------                            --------------------------
 ! Name  Definition              Value          Derivative Info.                !
 --------------------------------------------------------------------------------
 ! R1    R(1,2)                  1.2522         -DE/DX =    0.0                 !
 ! R2    R(1,5)                  1.3413         -DE/DX =    0.0                 !
 ! R3    R(2,3)                  1.3262         -DE/DX =   -0.0001              !
 ! R4    R(3,4)                  0.9941         -DE/DX =    0.0                 !
 ! R5    R(3,6)                  1.3302         -DE/DX =    0.0                 !
 ! R6    R(5,6)                  1.2893         -DE/DX =    0.0                 !
 ! R7    R(6,7)                  1.0678         -DE/DX =    0.0                 !
 ! A1    A(2,1,5)              111.3714         -DE/DX =    0.0                 !
 ! A2    A(1,2,3)              106.673          -DE/DX =    0.0                 !
 ! A3    A(2,3,4)              120.7559         -DE/DX =    0.0                 !
 ! A4    A(2,3,6)              108.0227         -DE/DX =   -0.0001              !
 ! A5    A(4,3,6)              131.2214         -DE/DX =    0.0                 !
 ! A6    A(1,5,6)              105.7701         -DE/DX =   -0.0001              !
 ! A7    A(3,6,5)              108.1628         -DE/DX =    0.0001              !
 ! A8    A(3,6,7)              125.0426         -DE/DX =   -0.0001              !
 ! A9    A(5,6,7)              126.7946         -DE/DX =    0.0                 !
 ! D1    D(5,1,2,3)              0.0            -DE/DX =    0.0                 !
 ! D2    D(2,1,5,6)              0.0            -DE/DX =    0.0                 !
 ! D3    D(1,2,3,4)            180.0            -DE/DX =    0.0                 !
 ! D4    D(1,2,3,6)              0.0            -DE/DX =    0.0                 !
 ! D5    D(2,3,6,5)              0.0            -DE/DX =    0.0                 !
 ! D6    D(2,3,6,7)            180.0            -DE/DX =    0.0                 !
 ! D7    D(4,3,6,5)            180.0            -DE/DX =    0.0                 !
 ! D8    D(4,3,6,7)              0.0            -DE/DX =    0.0                 !
 ! D9    D(1,5,6,3)              0.0            -DE/DX =    0.0                 !
 ! D10   D(1,5,6,7)            180.0            -DE/DX =    0.0                 !
 --------------------------------------------------------------------------------
 GradGradGradGradGradGradGradGradGradGradGradGradGradGradGradGradGradGrad

                          Input orientation:                          
 ---------------------------------------------------------------------
 Center     Atomic      Atomic             Coordinates (Angstroms)
 Number     Number       Type             X           Y           Z
 ---------------------------------------------------------------------
      1          7           0       -0.716312   -0.901934    0.000000
      2          7           0       -1.095520    0.291420    0.000000
      3          7           0        0.000000    1.038775    0.000000
      4          1           0       -0.061479    2.030994    0.000000
      5          7           0        0.622151   -0.989495    0.000000
      6          6           0        1.052813    0.225779    0.000000
      7          1           0        2.072370    0.542976    0.000000
 ---------------------------------------------------------------------
                    Distance matrix (angstroms):
                    1          2          3          4          5
     1  N    0.000000
     2  N    1.252155   0.000000
     3  N    2.068684   1.326161   0.000000
     4  H    3.005141   2.023699   0.994122   0.000000
     5  N    1.341324   2.142694   2.121544   3.096886   0.000000
     6  C    2.097985   2.149336   1.330180   2.121426   1.289326
     7  H    3.140782   3.177862   2.130853   2.601444   2.109882
                    6          7
     6  C    0.000000
     7  H    1.067760   0.000000
 Stoichiometry    CH2N4
 Framework group  CS[SG(CH2N4)]
 Deg. of freedom    11
 Full point group                 CS      NOp   2
 Largest Abelian subgroup         CS      NOp   2
 Largest concise Abelian subgroup C1      NOp   1
                         Standard orientation:                         
 ---------------------------------------------------------------------
 Center     Atomic      Atomic             Coordinates (Angstroms)
 Number     Number       Type             X           Y           Z
 ---------------------------------------------------------------------
      1          7           0       -0.716312   -0.901934    0.000000
      2          7           0       -1.095520    0.291420    0.000000
      3          7           0        0.000000    1.038775    0.000000
      4          1           0       -0.061479    2.030994    0.000000
      5          7           0        0.622151   -0.989495    0.000000
      6          6           0        1.052813    0.225779    0.000000
      7          1           0        2.072370    0.542976    0.000000
 ---------------------------------------------------------------------
 Rotational constants (GHZ):     10.9198649     10.7343934      5.4131674
 1\1\GINC-P2207\FOpt\RHF\GTBas1\C1H2N4\RDJ3\08-Jul-2010\0\\#G3MP2\\1htz
  1H-Tetrazole casno=288948 state=1 config=1 method=67 basis=0\\0,1\N,-
 0.716312,-0.901934,0.\N,-1.09552,0.29142,0.\N,0.,1.038775,0.\H,-0.0614
 79,2.030994,0.\N,0.622151,-0.989495,0.\C,1.052813,0.225779,0.\H,2.0723
 7,0.542976,0.\\Version=AM64L-G09RevA.02\State=1-A'\HF=-256.7540762\RMS
 D=5.086e-09\RMSF=6.393e-05\Dipole=1.051678,1.955004,0.\Quadrupole=-0.5
 603005,1.0194454,-0.4591449,1.4868853,0.,0.\PG=CS [SG(C1H2N4)]\\@


 MEN HAVE BECOME THE TOOLS OF THEIR TOOLS... THOREAU   
 Job cpu time:  0 days  0 hours  0 minutes  4.0 seconds.
 File lengths (MBytes):  RWF=      5 Int=      0 D2E=      0 Chk=      1 Scr=      1
 Normal termination of Gaussian 09 at Thu Jul  8 15:16:50 2010.
 Link1:  Proceeding to internal job step number  2.
 -------------------------------------------------------
 #N Geom=AllCheck Guess=TCheck SCRF=Check HF/GTBas1 Freq
 -------------------------------------------------------
 1/10=4,29=7,30=1,38=1,40=1/1,3;
 2/12=2,40=1/2;
 3/5=33,11=9,14=-4,16=1,25=1,30=1,70=2,71=2,116=-2/1,2,3;
 4/5=101/1;
 5/5=2,98=1/2;
 8/6=4,10=90,11=11/1;
 10/13=10,15=4/2;
 11/6=3,8=1,9=11,15=111,16=1/1,2,10;
 10/6=1/2;
 6/7=2,8=2,9=2,10=2,18=1,28=1/1;
 7/8=1,10=1,25=1/1,2,3,16;
 1/10=4,30=1/3;
 99//99;
 -----------------------------------------------------------------
 1htz 1H-Tetrazole casno=288948 state=1 config=1 method=67 basis=0
 -----------------------------------------------------------------
 Redundant internal coordinates taken from checkpoint file:
 /gaussian/Gau-26634.chk
 Charge =  0 Multiplicity = 1
 N,0,-0.716312,-0.901934,0.
 N,0,-1.09552,0.29142,0.
 N,0,0.,1.038775,0.
 H,0,-0.061479,2.030994,0.
 N,0,0.622151,-0.989495,0.
 C,0,1.052813,0.225779,0.
 H,0,2.07237,0.542976,0.
 Recover connectivity data from disk.

 GradGradGradGradGradGradGradGradGradGradGradGradGradGradGradGradGradGrad
 Berny optimization.
 Initialization pass.
                           ----------------------------
                           !    Initial Parameters    !
                           ! (Angstroms and Degrees)  !
 --------------------------                            --------------------------
 ! Name  Definition              Value          Derivative Info.                !
 --------------------------------------------------------------------------------
 ! R1    R(1,2)                  1.2522         calculate D2E/DX2 analytically  !
 ! R2    R(1,5)                  1.3413         calculate D2E/DX2 analytically  !
 ! R3    R(2,3)                  1.3262         calculate D2E/DX2 analytically  !
 ! R4    R(3,4)                  0.9941         calculate D2E/DX2 analytically  !
 ! R5    R(3,6)                  1.3302         calculate D2E/DX2 analytically  !
 ! R6    R(5,6)                  1.2893         calculate D2E/DX2 analytically  !
 ! R7    R(6,7)                  1.0678         calculate D2E/DX2 analytically  !
 ! A1    A(2,1,5)              111.3714         calculate D2E/DX2 analytically  !
 ! A2    A(1,2,3)              106.673          calculate D2E/DX2 analytically  !
 ! A3    A(2,3,4)              120.7559         calculate D2E/DX2 analytically  !
 ! A4    A(2,3,6)              108.0227         calculate D2E/DX2 analytically  !
 ! A5    A(4,3,6)              131.2214         calculate D2E/DX2 analytically  !
 ! A6    A(1,5,6)              105.7701         calculate D2E/DX2 analytically  !
 ! A7    A(3,6,5)              108.1628         calculate D2E/DX2 analytically  !
 ! A8    A(3,6,7)              125.0426         calculate D2E/DX2 analytically  !
 ! A9    A(5,6,7)              126.7946         calculate D2E/DX2 analytically  !
 ! D1    D(5,1,2,3)              0.0            calculate D2E/DX2 analytically  !
 ! D2    D(2,1,5,6)              0.0            calculate D2E/DX2 analytically  !
 ! D3    D(1,2,3,4)            180.0            calculate D2E/DX2 analytically  !
 ! D4    D(1,2,3,6)              0.0            calculate D2E/DX2 analytically  !
 ! D5    D(2,3,6,5)              0.0            calculate D2E/DX2 analytically  !
 ! D6    D(2,3,6,7)            180.0            calculate D2E/DX2 analytically  !
 ! D7    D(4,3,6,5)            180.0            calculate D2E/DX2 analytically  !
 ! D8    D(4,3,6,7)              0.0            calculate D2E/DX2 analytically  !
 ! D9    D(1,5,6,3)              0.0            calculate D2E/DX2 analytically  !
 ! D10   D(1,5,6,7)            180.0            calculate D2E/DX2 analytically  !
 --------------------------------------------------------------------------------
 Trust Radius=3.00D-01 FncErr=1.00D-07 GrdErr=1.00D-07
 Number of steps in this run=   2 maximum allowed number of steps=   2.
 GradGradGradGradGradGradGradGradGradGradGradGradGradGradGradGradGradGrad

                          Input orientation:                          
 ---------------------------------------------------------------------
 Center     Atomic      Atomic             Coordinates (Angstroms)
 Number     Number       Type             X           Y           Z
 ---------------------------------------------------------------------
      1          7           0       -0.716312   -0.901934    0.000000
      2          7           0       -1.095520    0.291420    0.000000
      3          7           0        0.000000    1.038775    0.000000
      4          1           0       -0.061479    2.030994    0.000000
      5          7           0        0.622151   -0.989495    0.000000
      6          6           0        1.052813    0.225779    0.000000
      7          1           0        2.072370    0.542976    0.000000
 ---------------------------------------------------------------------
                    Distance matrix (angstroms):
                    1          2          3          4          5
     1  N    0.000000
     2  N    1.252155   0.000000
     3  N    2.068684   1.326161   0.000000
     4  H    3.005141   2.023699   0.994122   0.000000
     5  N    1.341324   2.142694   2.121544   3.096886   0.000000
     6  C    2.097985   2.149336   1.330180   2.121426   1.289326
     7  H    3.140782   3.177862   2.130853   2.601444   2.109882
                    6          7
     6  C    0.000000
     7  H    1.067760   0.000000
 Stoichiometry    CH2N4
 Framework group  CS[SG(CH2N4)]
 Deg. of freedom    11
 Full point group                 CS      NOp   2
 Largest Abelian subgroup         CS      NOp   2
 Largest concise Abelian subgroup C1      NOp   1
                         Standard orientation:                         
 ---------------------------------------------------------------------
 Center     Atomic      Atomic             Coordinates (Angstroms)
 Number     Number       Type             X           Y           Z
 ---------------------------------------------------------------------
      1          7           0       -0.716312   -0.901934    0.000000
      2          7           0       -1.095520    0.291420    0.000000
      3          7           0        0.000000    1.038775    0.000000
      4          1           0       -0.061479    2.030994    0.000000
      5          7           0        0.622151   -0.989495    0.000000
      6          6           0        1.052813    0.225779    0.000000
      7          1           0        2.072370    0.542976    0.000000
 ---------------------------------------------------------------------
 Rotational constants (GHZ):     10.9198649     10.7343934      5.4131674
 Standard basis: GTBas1 (6D, 7F)
 There are    59 symmetry adapted basis functions of A'  symmetry.
 There are    20 symmetry adapted basis functions of A"  symmetry.
 Integral buffers will be    131072 words long.
 Raffenetti 1 integral format.
 Two-electron integral symmetry is turned on.
    79 basis functions,   148 primitive gaussians,    79 cartesian basis functions
    18 alpha electrons       18 beta electrons
       nuclear repulsion energy       169.8288230689 Hartrees.
 NAtoms=    7 NActive=    7 NUniq=    7 SFac= 7.50D-01 NAtFMM=   80 NAOKFM=F Big=F
 One-electron integrals computed using PRISM.
 NBasis=    79 RedAO= T  NBF=    59    20
 NBsUse=    79 1.00D-06 NBFU=    59    20
 Initial guess read from the checkpoint file:  /gaussian/Gau-26634.chk
 B after Tr=     0.000000    0.000000    0.000000
         Rot=    1.000000    0.000000    0.000000    0.000000 Ang=   0.00 deg.
 Initial guess orbital symmetries:
       Occupied  (A') (A') (A') (A') (A') (A') (A') (A') (A') (A')
                 (A') (A") (A') (A') (A') (A') (A") (A")
       Virtual   (A") (A') (A") (A') (A') (A') (A') (A') (A') (A")
                 (A') (A') (A') (A') (A") (A') (A') (A") (A') (A")
                 (A') (A') (A") (A') (A') (A') (A') (A') (A') (A")
                 (A") (A") (A') (A') (A") (A") (A') (A') (A') (A')
                 (A') (A') (A") (A") (A') (A') (A") (A") (A') (A')
                 (A") (A') (A') (A') (A') (A') (A') (A') (A') (A')
                 (A')
 Requested convergence on RMS density matrix=1.00D-08 within 128 cycles.
 Requested convergence on MAX density matrix=1.00D-06.
 Requested convergence on             energy=1.00D-06.
 No special actions if energy rises.
 Keep R1 ints in memory in canonical form, NReq=5852352.
 SCF Done:  E(RHF) =  -256.754076242     A.U. after    1 cycles
             Convg  =    0.5184D-09             -V/T =  2.0017
 Range of M.O.s used for correlation:     1    79
 NBasis=    79 NAE=    18 NBE=    18 NFC=     0 NFV=     0
 NROrb=     79 NOA=    18 NOB=    18 NVA=    61 NVB=    61
          Differentiating once with respect to electric field.
                with respect to dipole field.
          Electric field/nuclear overlap derivatives assumed to be zero.
          Keep R1 ints in memory in canonical form, NReq=5815169.
          There are     3 degrees of freedom in the 1st order CPHF.  IDoFFX=0.
      3 vectors produced by pass  0 Test12= 3.66D-14 3.33D-08 XBig12= 1.16D+01 1.97D+00.
 AX will form     3 AO Fock derivatives at one time.
      3 vectors produced by pass  1 Test12= 3.66D-14 3.33D-08 XBig12= 1.65D+00 4.30D-01.
      3 vectors produced by pass  2 Test12= 3.66D-14 3.33D-08 XBig12= 1.07D-01 9.87D-02.
      3 vectors produced by pass  3 Test12= 3.66D-14 3.33D-08 XBig12= 6.45D-03 3.43D-02.
      3 vectors produced by pass  4 Test12= 3.66D-14 3.33D-08 XBig12= 1.22D-03 1.41D-02.
      3 vectors produced by pass  5 Test12= 3.66D-14 3.33D-08 XBig12= 6.14D-05 2.05D-03.
      3 vectors produced by pass  6 Test12= 3.66D-14 3.33D-08 XBig12= 6.77D-06 5.20D-04.
      3 vectors produced by pass  7 Test12= 3.66D-14 3.33D-08 XBig12= 2.17D-07 1.15D-04.
      3 vectors produced by pass  8 Test12= 3.66D-14 3.33D-08 XBig12= 6.17D-09 2.39D-05.
      3 vectors produced by pass  9 Test12= 3.66D-14 3.33D-08 XBig12= 1.92D-10 2.73D-06.
      2 vectors produced by pass 10 Test12= 3.66D-14 3.33D-08 XBig12= 5.76D-12 7.35D-07.
      1 vectors produced by pass 11 Test12= 3.66D-14 3.33D-08 XBig12= 1.42D-13 7.85D-08.
 Inverted reduced A of dimension    33 with in-core refinement.
 End of Minotr Frequency-dependent properties file   721 does not exist.
 End of Minotr Frequency-dependent properties file   722 does not exist.
 Symmetrizing basis deriv contribution to polar:
 IMax=3 JMax=2 DiffMx= 0.00D+00
 G2DrvN: will do     8 centers at a time, making    1 passes doing MaxLOS=2.
 Calling FoFCou, ICntrl=  3107 FMM=F I1Cent=   0 AccDes= 0.00D+00.
 FoFDir/FoFCou used for L=0 through L=2.
 End of G2Drv Frequency-dependent properties file   721 does not exist.
 End of G2Drv Frequency-dependent properties file   722 does not exist.
          IDoAtm=1111111
          Differentiating once with respect to electric field.
                with respect to dipole field.
          Differentiating once with respect to nuclear coordinates.
          Keep R1 ints in memory in canonical form, NReq=5815316.
          There are    24 degrees of freedom in the 1st order CPHF.  IDoFFX=5.
 Will reuse    3 saved solutions.
     18 vectors produced by pass  0 Test12= 4.57D-15 4.17D-09 XBig12= 8.55D-02 1.09D-01.
 AX will form    18 AO Fock derivatives at one time.
     18 vectors produced by pass  1 Test12= 4.57D-15 4.17D-09 XBig12= 6.88D-03 5.09D-02.
     18 vectors produced by pass  2 Test12= 4.57D-15 4.17D-09 XBig12= 3.55D-04 3.73D-03.
     18 vectors produced by pass  3 Test12= 4.57D-15 4.17D-09 XBig12= 7.64D-06 9.03D-04.
     18 vectors produced by pass  4 Test12= 4.57D-15 4.17D-09 XBig12= 8.61D-08 8.38D-05.
     18 vectors produced by pass  5 Test12= 4.57D-15 4.17D-09 XBig12= 8.14D-10 6.99D-06.
     18 vectors produced by pass  6 Test12= 4.57D-15 4.17D-09 XBig12= 4.98D-12 4.19D-07.
     10 vectors produced by pass  7 Test12= 4.57D-15 4.17D-09 XBig12= 2.48D-14 2.80D-08.
 Inverted reduced A of dimension   136 with in-core refinement.
 Isotropic polarizability for W=    0.000000       28.02 Bohr**3.
 End of Minotr Frequency-dependent properties file   721 does not exist.
 End of Minotr Frequency-dependent properties file   722 does not exist.

 **********************************************************************

            Population analysis using the SCF density.

 **********************************************************************

 Orbital symmetries:
       Occupied  (A') (A') (A') (A') (A') (A') (A') (A') (A') (A')
                 (A') (A") (A') (A') (A') (A') (A") (A")
       Virtual   (A") (A') (A") (A') (A') (A') (A') (A') (A') (A")
                 (A') (A') (A') (A') (A") (A') (A') (A") (A') (A")
                 (A') (A') (A") (A') (A') (A') (A') (A') (A') (A")
                 (A") (A") (A') (A') (A") (A") (A') (A') (A') (A')
                 (A') (A') (A") (A") (A') (A') (A") (A") (A') (A')
                 (A") (A') (A') (A') (A') (A') (A') (A') (A') (A')
                 (A')
 The electronic state is 1-A'.
 Alpha  occ. eigenvalues --  -15.68426 -15.66114 -15.64137 -15.59954 -11.33392
 Alpha  occ. eigenvalues --   -1.52162  -1.26658  -1.21014  -0.91425  -0.89656
 Alpha  occ. eigenvalues --   -0.81012  -0.68902  -0.68409  -0.57261  -0.47489
 Alpha  occ. eigenvalues --   -0.46285  -0.45783  -0.42408
 Alpha virt. eigenvalues --    0.15145   0.20119   0.20249   0.25700   0.37656
 Alpha virt. eigenvalues --    0.39686   0.48768   0.51617   0.67281   0.73609
 Alpha virt. eigenvalues --    0.74379   0.82417   0.83553   0.90498   0.91522
 Alpha virt. eigenvalues --    0.92043   0.94179   0.95809   0.96154   1.05045
 Alpha virt. eigenvalues --    1.06083   1.08497   1.09726   1.13353   1.17940
 Alpha virt. eigenvalues --    1.23098   1.29429   1.31742   1.49106   1.53806
 Alpha virt. eigenvalues --    1.60296   1.64481   1.65435   1.69836   1.84833
 Alpha virt. eigenvalues --    1.86690   1.93792   2.18768   2.28155   2.37834
 Alpha virt. eigenvalues --    2.41191   2.51234   2.53091   2.58424   2.66428
 Alpha virt. eigenvalues --    2.71023   2.72329   2.79669   2.90121   2.90411
 Alpha virt. eigenvalues --    3.01041   3.04123   3.09308   3.34838   3.38389
 Alpha virt. eigenvalues --    3.42716   3.91286   4.04385   4.39863   4.47079
 Alpha virt. eigenvalues --    4.57576
          Condensed to atoms (all electrons):
              1          2          3          4          5          6
     1  N    6.618476   0.357299  -0.108898   0.004619   0.312254  -0.119598
     2  N    0.357299   6.669376   0.216339  -0.020726  -0.098238  -0.104282
     3  N   -0.108898   0.216339   6.911505   0.321564  -0.077332   0.313518
     4  H    0.004619  -0.020726   0.321564   0.278280   0.003670  -0.017322
     5  N    0.312254  -0.098238  -0.077332   0.003670   6.755883   0.486703
     6  C   -0.119598  -0.104282   0.313518  -0.017322   0.486703   4.741273
     7  H    0.003176   0.001282  -0.036850   0.000966  -0.022636   0.395962
              7
     1  N    0.003176
     2  N    0.001282
     3  N   -0.036850
     4  H    0.000966
     5  N   -0.022636
     6  C    0.395962
     7  H    0.402269
 Mulliken atomic charges:
              1
     1  N   -0.067328
     2  N   -0.021049
     3  N   -0.539846
     4  H    0.428949
     5  N   -0.360304
     6  C    0.303746
     7  H    0.255832
 Sum of Mulliken atomic charges =   0.00000
 Mulliken charges with hydrogens summed into heavy atoms:
              1
     1  N   -0.067328
     2  N   -0.021049
     3  N   -0.110897
     5  N   -0.360304
     6  C    0.559579
 Sum of Mulliken charges with hydrogens summed into heavy atoms =   0.00000
 APT atomic charges:
              1
     1  N   -0.019129
     2  N   -0.059082
     3  N   -0.331799
     4  H    0.319603
     5  N   -0.384876
     6  C    0.366629
     7  H    0.108654
 Sum of APT charges=   0.00000
 APT Atomic charges with hydrogens summed into heavy atoms:
              1
     1  N   -0.019129
     2  N   -0.059082
     3  N   -0.012196
     4  H    0.000000
     5  N   -0.384876
     6  C    0.475284
     7  H    0.000000
 Sum of APT charges=   0.00000
 Electronic spatial extent (au):  <R**2>=            244.6240
 Charge=              0.0000 electrons
 Dipole moment (field-independent basis, Debye):
    X=              2.6731    Y=              4.9691    Z=              0.0000  Tot=              5.6425
 Quadrupole moment (field-independent basis, Debye-Ang):
   XX=            -28.6583   YY=            -26.5335   ZZ=            -28.5222
   XY=              1.9999   XZ=              0.0000   YZ=              0.0000
 Traceless Quadrupole moment (field-independent basis, Debye-Ang):
   XX=             -0.7536   YY=              1.3712   ZZ=             -0.6176
   XY=              1.9999   XZ=              0.0000   YZ=              0.0000
 Octapole moment (field-independent basis, Debye-Ang**2):
  XXX=             12.5498  YYY=             22.9158  ZZZ=              0.0000  XYY=             -0.6883
  XXY=              4.9900  XXZ=              0.0000  XZZ=             -0.5222  YZZ=              0.6168
  YYZ=              0.0000  XYZ=              0.0000
 Hexadecapole moment (field-independent basis, Debye-Ang**3):
 XXXX=           -137.3444 YYYY=           -115.9955 ZZZZ=            -25.2877 XXXY=              6.7902
 XXXZ=              0.0000 YYYX=             -0.0650 YYYZ=              0.0000 ZZZX=              0.0000
 ZZZY=              0.0000 XXYY=            -52.0522 XXZZ=            -29.5103 YYZZ=            -28.1701
 XXYZ=              0.0000 YYXZ=              0.0000 ZZXY=              0.0532
 N-N= 1.698288230689D+02 E-N=-9.408674224553D+02  KE= 2.563113661078D+02
 Symmetry A'   KE= 2.472871354188D+02
 Symmetry A"   KE= 9.024230688966D+00
  Exact polarizability:  34.273   0.712  34.627   0.000   0.000  15.169
 Approx polarizability:  35.241   0.271  37.688   0.000   0.000  16.765
 Calling FoFJK, ICntrl=    100127 FMM=F ISym2X=1 I1Cent= 0 IOpClX= 0 NMat=1 NMatS=1 NMatT=0.
 Full mass-weighted force constant matrix:
 Low frequencies ---   -4.0104   -0.0011   -0.0006    0.0005    4.7100    7.7761
 Low frequencies ---  623.6162  752.6045  815.3864
 Diagonal vibrational polarizability:
        1.2505853       1.2989528      10.0154409
 Diagonal vibrational hyperpolarizability:
       12.2839152       5.8492365       0.0000000
 Harmonic frequencies (cm**-1), IR intensities (KM/Mole), Raman scattering
 activities (A**4/AMU), depolarization ratios for plane and unpolarized
 incident light, reduced masses (AMU), force constants (mDyne/A),
 and normal coordinates:
                     1                      2                      3
                    A"                     A"                     A"
 Frequencies --   623.6162               752.6045               815.3864
 Red. masses --     1.6225                 2.0911                 9.3328
 Frc consts  --     0.3718                 0.6978                 3.6558
 IR Inten    --   131.2050                 7.0647                 8.7900
 Raman Activ --     0.5384                 0.3360                 0.0763
 Depolar (P) --     0.7500                 0.7500                 0.7500
 Depolar (U) --     0.8571                 0.8571                 0.8571
  Atom  AN      X      Y      Z        X      Y      Z        X      Y      Z
     1   7     0.00   0.00   0.00     0.00   0.00   0.03     0.00   0.00   0.53
     2   7     0.00   0.00  -0.07     0.00   0.00   0.11     0.00   0.00  -0.45
     3   7     0.00   0.00   0.19     0.00   0.00  -0.11     0.00   0.00   0.14
     4   1     0.00   0.00  -0.95     0.00   0.00  -0.78     0.00   0.00   0.57
     5   7     0.00   0.00   0.02     0.00   0.00  -0.17     0.00   0.00  -0.36
     6   6     0.00   0.00  -0.07     0.00   0.00   0.18     0.00   0.00   0.09
     7   1     0.00   0.00  -0.22     0.00   0.00   0.55     0.00   0.00   0.17
                     4                      5                      6
                    A"                     A'                     A'
 Frequencies --  1010.4120              1092.9716              1114.8763
 Red. masses --     1.3784                 4.8435                 7.2254
 Frc consts  --     0.8291                 3.4090                 5.2913
 IR Inten    --     9.2859                 1.9712                 1.6746
 Raman Activ --     0.4595                 2.2584                 2.6735
 Depolar (P) --     0.7500                 0.5670                 0.6269
 Depolar (U) --     0.8571                 0.7236                 0.7707
  Atom  AN      X      Y      Z        X      Y      Z        X      Y      Z
     1   7     0.00   0.00   0.01     0.04   0.20   0.00     0.24  -0.10   0.00
     2   7     0.00   0.00   0.00    -0.17   0.13   0.00     0.26  -0.02   0.00
     3   7     0.00   0.00   0.03    -0.09  -0.01   0.00    -0.02   0.39   0.00
     4   1     0.00   0.00   0.03     0.46   0.03   0.00    -0.08   0.41   0.00
     5   7     0.00   0.00   0.03     0.32  -0.26   0.00    -0.11  -0.22   0.00
     6   6     0.00   0.00  -0.18    -0.14  -0.12   0.00    -0.39  -0.04   0.00
     7   1     0.00   0.00   0.98    -0.36   0.60   0.00    -0.29  -0.49   0.00
                     7                      8                      9
                    A'                     A'                     A'
 Frequencies --  1181.9138              1203.6567              1262.1020
 Red. masses --     3.5666                 2.8650                 2.3056
 Frc consts  --     2.9355                 2.4456                 2.1638
 IR Inten    --    24.0752                35.5541                18.6191
 Raman Activ --     5.0167                 2.4216                 7.5125
 Depolar (P) --     0.1749                 0.6444                 0.7195
 Depolar (U) --     0.2977                 0.7838                 0.8369
  Atom  AN      X      Y      Z        X      Y      Z        X      Y      Z
     1   7     0.14   0.04   0.00     0.21   0.01   0.00     0.19   0.13   0.00
     2   7     0.21   0.16   0.00    -0.20  -0.06   0.00    -0.08   0.05   0.00
     3   7    -0.10  -0.25   0.00     0.14  -0.06   0.00    -0.14  -0.04   0.00
     4   1    -0.19  -0.28   0.00     0.92  -0.02   0.00    -0.41  -0.06   0.00
     5   7    -0.16  -0.01   0.00    -0.14   0.05   0.00    -0.03   0.02   0.00
     6   6    -0.07   0.04   0.00    -0.09   0.07   0.00     0.07  -0.11   0.00
     7   1    -0.31   0.77   0.00    -0.08   0.02   0.00     0.29  -0.80   0.00
                    10                     11                     12
                    A'                     A'                     A'
 Frequencies --  1429.3172              1548.5303              1628.8481
 Red. masses --     2.7359                 5.7613                 3.2612
 Frc consts  --     3.2931                 8.1398                 5.0978
 IR Inten    --     1.1130                37.7350                11.4749
 Raman Activ --    10.2223                16.8122                 7.6954
 Depolar (P) --     0.1306                 0.1216                 0.6146
 Depolar (U) --     0.2311                 0.2168                 0.7613
  Atom  AN      X      Y      Z        X      Y      Z        X      Y      Z
     1   7    -0.07  -0.01   0.00    -0.04   0.39   0.00     0.02   0.04   0.00
     2   7     0.12   0.04   0.00     0.07  -0.35   0.00     0.07  -0.11   0.00
     3   7    -0.05  -0.12   0.00     0.20  -0.06   0.00    -0.17   0.12   0.00
     4   1     0.61  -0.10   0.00    -0.70  -0.14   0.00     0.67   0.19   0.00
     5   7     0.14   0.19   0.00     0.00   0.07   0.00    -0.07   0.15   0.00
     6   6    -0.21  -0.03   0.00    -0.18  -0.07   0.00     0.13  -0.29   0.00
     7   1    -0.04  -0.69   0.00    -0.30   0.17   0.00    -0.12   0.56   0.00
                    13                     14                     15
                    A'                     A'                     A'
 Frequencies --  1721.4438              3495.8488              3924.7786
 Red. masses --     3.7994                 1.1041                 1.0854
 Frc consts  --     6.6337                 7.9499                 9.8508
 IR Inten    --    25.5387                 0.2919               139.0891
 Raman Activ --     1.5551                63.3941                62.7140
 Depolar (P) --     0.6745                 0.2767                 0.2852
 Depolar (U) --     0.8056                 0.4334                 0.4438
  Atom  AN      X      Y      Z        X      Y      Z        X      Y      Z
     1   7     0.07  -0.16   0.00     0.00   0.00   0.00     0.00   0.00   0.00
     2   7    -0.13   0.15   0.00     0.00   0.00   0.00     0.00   0.00   0.00
     3   7     0.18   0.03   0.00     0.00   0.00   0.00     0.01  -0.08   0.00
     4   1    -0.75  -0.03   0.00     0.01   0.02   0.00    -0.06   0.99   0.00
     5   7     0.06   0.20   0.00     0.00   0.00   0.00     0.00   0.00   0.00
     6   6    -0.11  -0.27   0.00     0.09   0.03   0.00     0.00   0.00   0.00
     7   1    -0.34   0.31   0.00    -0.95  -0.29   0.00     0.01   0.00   0.00

 -------------------
 - Thermochemistry -
 -------------------
 Temperature   298.150 Kelvin.  Pressure   1.00000 Atm.
 Atom     1 has atomic number  7 and mass  14.00307
 Atom     2 has atomic number  7 and mass  14.00307
 Atom     3 has atomic number  7 and mass  14.00307
 Atom     4 has atomic number  1 and mass   1.00783
 Atom     5 has atomic number  7 and mass  14.00307
 Atom     6 has atomic number  6 and mass  12.00000
 Atom     7 has atomic number  1 and mass   1.00783
 Molecular mass:    70.02795 amu.
 Principal axes and moments of inertia in atomic units:
                           1         2         3
     Eigenvalues --   165.27139 168.12699 333.39837
           X            0.93999   0.34119   0.00000
           Y           -0.34119   0.93999   0.00000
           Z            0.00000   0.00000   1.00000
 This molecule is an asymmetric top.
 Rotational symmetry number  1.
 Rotational temperatures (Kelvin)      0.52407     0.51517     0.25979
 Rotational constants (GHZ):          10.91986    10.73439     5.41317
 Zero-point vibrational energy     136412.0 (Joules/Mol)
                                   32.60325 (Kcal/Mol)
 Vibrational temperatures:    897.24  1082.83  1173.16  1453.76  1572.54
          (Kelvin)           1604.06  1700.51  1731.79  1815.88  2056.47
                             2227.99  2343.55  2476.77  5029.74  5646.87
 
 Zero-point correction=                           0.051957 (Hartree/Particle)
 Thermal correction to Energy=                    0.055251
 Thermal correction to Enthalpy=                  0.056196
 Thermal correction to Gibbs Free Energy=         0.025968
 Sum of electronic and zero-point Energies=           -256.702120
 Sum of electronic and thermal Energies=              -256.698825
 Sum of electronic and thermal Enthalpies=            -256.697881
 Sum of electronic and thermal Free Energies=         -256.728109
 
                     E (Thermal)             CV                S
                      KCal/Mol        Cal/Mol-Kelvin    Cal/Mol-Kelvin
 Total                   34.671             10.048             63.620
 Electronic               0.000              0.000              0.000
 Translational            0.889              2.981             38.656
 Rotational               0.889              2.981             23.742
 Vibrational             32.893              4.087              1.222
                       Q            Log10(Q)             Ln(Q)
 Total Bot       0.113695D-11        -11.944259        -27.502673
 Total V=0       0.899625D+12         11.954062         27.525244
 Vib (Bot)       0.143263D-23        -23.843867        -54.902533
 Vib (V=0)       0.113358D+01          0.054454          0.125384
 Electronic      0.100000D+01          0.000000          0.000000
 Translational   0.230336D+08          7.362362         16.952466
 Rotational      0.344545D+05          4.537246         10.447394
 ***** Axes restored to original set *****
 -------------------------------------------------------------------
 Center     Atomic                   Forces (Hartrees/Bohr)
 Number     Number              X              Y              Z
 -------------------------------------------------------------------
      1        7          -0.000058960    0.000071449    0.000000000
      2        7           0.000115965   -0.000037759    0.000000000
      3        7          -0.000043486    0.000117936    0.000000000
      4        1          -0.000000049   -0.000029008    0.000000000
      5        7           0.000117187   -0.000027517    0.000000000
      6        6          -0.000131309   -0.000116409    0.000000000
      7        1           0.000000652    0.000021307    0.000000000
 -------------------------------------------------------------------
 Cartesian Forces:  Max     0.000131309 RMS     0.000063932

 GradGradGradGradGradGradGradGradGradGradGradGradGradGradGradGradGradGrad
 Berny optimization.
 Internal  Forces:  Max     0.000081636 RMS     0.000037248
 Search for a local minimum.
 Step number   1 out of a maximum of    2
 All quantities printed in internal units (Hartrees-Bohrs-Radians)
 Second derivative matrix not updated -- analytic derivatives used.
     Eigenvalues ---    0.00926   0.03259   0.08484   0.09099   0.12355
     Eigenvalues ---    0.12788   0.26200   0.31370   0.42699   0.43221
     Eigenvalues ---    0.53809   0.54764   0.59807   0.70627   0.78530
     Eigenvalues --- 1000.000001000.000001000.000001000.000001000.00000
     Eigenvalues --- 1000.000001000.000001000.000001000.000001000.00000
     Eigenvalues --- 1000.00000
 Angle between quadratic step and forces=  25.24 degrees.
 Linear search not attempted -- first point.
 Iteration  1 RMS(Cart)=  0.00009240 RMS(Int)=  0.00000001
 Iteration  2 RMS(Cart)=  0.00000001 RMS(Int)=  0.00000000
 ClnCor:  largest displacement from symmetrization is 2.32D-15 for atom     7.
 Variable       Old X    -DE/DX   Delta X   Delta X   Delta X     New X
                                 (Linear)    (Quad)   (Total)
    R1        2.36623  -0.00004   0.00000  -0.00013  -0.00013   2.36610
    R2        2.53474   0.00004   0.00000   0.00024   0.00024   2.53497
    R3        2.50608  -0.00007   0.00000  -0.00009  -0.00009   2.50599
    R4        1.87862  -0.00003   0.00000  -0.00006  -0.00006   1.87856
    R5        2.51368   0.00001   0.00000   0.00006   0.00006   2.51374
    R6        2.43647  -0.00004   0.00000  -0.00014  -0.00014   2.43634
    R7        2.01777   0.00001   0.00000   0.00003   0.00003   2.01780
    A1        1.94380   0.00001   0.00000   0.00000   0.00000   1.94379
    A2        1.86179   0.00005   0.00000   0.00015   0.00015   1.86194
    A3        2.10759   0.00003   0.00000   0.00009   0.00009   2.10768
    A4        1.88535  -0.00006   0.00000  -0.00019  -0.00019   1.88516
    A5        2.29024   0.00003   0.00000   0.00010   0.00010   2.29034
    A6        1.84604  -0.00008   0.00000  -0.00019  -0.00019   1.84585
    A7        1.88780   0.00008   0.00000   0.00023   0.00023   1.88803
    A8        2.18241  -0.00006   0.00000  -0.00030  -0.00030   2.18211
    A9        2.21298  -0.00002   0.00000   0.00006   0.00006   2.21305
    D1        0.00000   0.00000   0.00000   0.00000   0.00000   0.00000
    D2        0.00000   0.00000   0.00000   0.00000   0.00000   0.00000
    D3        3.14159   0.00000   0.00000   0.00000   0.00000   3.14159
    D4        0.00000   0.00000   0.00000   0.00000   0.00000   0.00000
    D5        0.00000   0.00000   0.00000   0.00000   0.00000   0.00000
    D6        3.14159   0.00000   0.00000   0.00000   0.00000   3.14159
    D7        3.14159   0.00000   0.00000   0.00000   0.00000   3.14159
    D8        0.00000   0.00000   0.00000   0.00000   0.00000   0.00000
    D9        0.00000   0.00000   0.00000   0.00000   0.00000   0.00000
   D10        3.14159   0.00000   0.00000   0.00000   0.00000   3.14159
         Item               Value     Threshold  Converged?
 Maximum Force            0.000082     0.000450     YES
 RMS     Force            0.000037     0.000300     YES
 Maximum Displacement     0.000208     0.001800     YES
 RMS     Displacement     0.000092     0.001200     YES
 Predicted change in Energy=-5.197403D-08
 Optimization completed.
    -- Stationary point found.
                           ----------------------------
                           !   Optimized Parameters   !
                           ! (Angstroms and Degrees)  !
 --------------------------                            --------------------------
 ! Name  Definition              Value          Derivative Info.                !
 --------------------------------------------------------------------------------
 ! R1    R(1,2)                  1.2522         -DE/DX =    0.0                 !
 ! R2    R(1,5)                  1.3413         -DE/DX =    0.0                 !
 ! R3    R(2,3)                  1.3262         -DE/DX =   -0.0001              !
 ! R4    R(3,4)                  0.9941         -DE/DX =    0.0                 !
 ! R5    R(3,6)                  1.3302         -DE/DX =    0.0                 !
 ! R6    R(5,6)                  1.2893         -DE/DX =    0.0                 !
 ! R7    R(6,7)                  1.0678         -DE/DX =    0.0                 !
 ! A1    A(2,1,5)              111.3714         -DE/DX =    0.0                 !
 ! A2    A(1,2,3)              106.673          -DE/DX =    0.0                 !
 ! A3    A(2,3,4)              120.7559         -DE/DX =    0.0                 !
 ! A4    A(2,3,6)              108.0227         -DE/DX =   -0.0001              !
 ! A5    A(4,3,6)              131.2214         -DE/DX =    0.0                 !
 ! A6    A(1,5,6)              105.7701         -DE/DX =   -0.0001              !
 ! A7    A(3,6,5)              108.1628         -DE/DX =    0.0001              !
 ! A8    A(3,6,7)              125.0426         -DE/DX =   -0.0001              !
 ! A9    A(5,6,7)              126.7946         -DE/DX =    0.0                 !
 ! D1    D(5,1,2,3)              0.0            -DE/DX =    0.0                 !
 ! D2    D(2,1,5,6)              0.0            -DE/DX =    0.0                 !
 ! D3    D(1,2,3,4)            180.0            -DE/DX =    0.0                 !
 ! D4    D(1,2,3,6)              0.0            -DE/DX =    0.0                 !
 ! D5    D(2,3,6,5)              0.0            -DE/DX =    0.0                 !
 ! D6    D(2,3,6,7)            180.0            -DE/DX =    0.0                 !
 ! D7    D(4,3,6,5)            180.0            -DE/DX =    0.0                 !
 ! D8    D(4,3,6,7)              0.0            -DE/DX =    0.0                 !
 ! D9    D(1,5,6,3)              0.0            -DE/DX =    0.0                 !
 ! D10   D(1,5,6,7)            180.0            -DE/DX =    0.0                 !
 --------------------------------------------------------------------------------
 GradGradGradGradGradGradGradGradGradGradGradGradGradGradGradGradGradGrad

 1\1\GINC-P2207\Freq\RHF\GTBas1\C1H2N4\RDJ3\08-Jul-2010\0\\#N Geom=AllC
 heck Guess=TCheck SCRF=Check HF/GTBas1 Freq\\1htz 1H-Tetrazole casno=2
 88948 state=1 config=1 method=67 basis=0\\0,1\N,-0.716312,-0.901934,0.
 \N,-1.09552,0.29142,0.\N,0.,1.038775,0.\H,-0.061479,2.030994,0.\N,0.62
 2151,-0.989495,0.\C,1.052813,0.225779,0.\H,2.07237,0.542976,0.\\Versio
 n=AM64L-G09RevA.02\State=1-A'\HF=-256.7540762\RMSD=5.184e-10\RMSF=6.39
 3e-05\ZeroPoint=0.0519566\Thermal=0.0552514\Dipole=1.051678,1.955004,0
 .\DipoleDeriv=0.2463064,-0.1013412,0.,-0.0931335,-0.1553172,0.,0.,0.,-
 0.1483762,-0.2648937,0.4088076,0.,0.3059577,0.176765,0.,0.,0.,-0.08911
 68,-0.1136931,-0.1809055,0.,-0.0376927,-0.6336832,0.,0.,0.,-0.2480222,
 0.2247985,-0.0074238,0.,-0.0238501,0.3446879,0.,0.,0.,0.3893226,-0.510
 6798,0.0653703,0.,-0.1867442,-0.3792135,0.,0.,0.,-0.2647361,0.3545355,
 -0.15263,0.,0.0645613,0.5425925,0.,0.,0.,0.2027601,0.0636261,-0.031877
 5,0.,-0.0290986,0.1041685,0.,0.,0.,0.1581686\Polar=34.2730133,0.712486
 7,34.6270211,0.,0.,15.1686152\PolarDeriv=2.3703703,-4.4534849,-4.69022
 2,0.,0.,-0.295709,-6.0849767,-1.2902158,-5.6068223,0.,0.,-0.4600531,0.
 ,0.,0.,-1.4474886,-2.7610343,0.,-9.2076421,3.2224869,-2.5737691,0.,0.,
 -0.2085193,6.4827384,-3.203246,1.8307342,0.,0.,0.3926115,0.,0.,0.,-3.0
 500698,1.4462018,0.,0.142181,-0.7165591,-0.1572319,0.,0.,-0.4608812,-0
 .6050931,1.0983321,0.8279521,0.,0.,0.0117045,0.,0.,0.,-0.1874341,1.990
 9951,0.,-0.2039529,1.245822,-0.3745115,0.,0.,-0.0333633,0.5576509,-0.4
 986025,8.4228665,0.,0.,0.1185701,0.,0.,0.,-0.0688864,0.812958,0.,-2.44
 0142,-1.6552599,5.0620919,0.,0.,0.0060163,-6.1110481,2.5643771,-5.5015
 159,0.,0.,-0.1375344,0.,0.,0.,0.9276412,-3.2405044,0.,1.2403969,0.7307
 768,1.7194619,0.,0.,0.51298,4.0298346,-0.4177043,-1.0933864,0.,0.,-0.0
 669517,0.,0.,0.,2.7260893,1.5495351,0.,8.0987888,1.6262182,1.0141807,0
 .,0.,0.4794765,1.730894,1.7470594,1.1201717,0.,0.,0.1416531,0.,0.,0.,1
 .1001485,0.2018488,0.\HyperPolar=29.5438252,16.8107512,6.8209555,34.28
 56168,0.,0.,0.,4.6983334,4.198222,0.\PG=CS [SG(C1H2N4)]\NImag=0\\0.557
 14168,0.03372260,0.82427685,0.,0.,0.15179732,-0.18224420,0.08836027,0.
 ,0.66845820,0.14374077,-0.50103184,0.,-0.13832426,0.72887871,0.,0.,-0.
 11931688,0.,0.,0.14103352,-0.02993311,-0.09262898,0.,-0.28350030,-0.08
 633157,0.,0.71343756,0.01056113,-0.18467354,0.,-0.03458163,-0.15350856
 ,0.,-0.08351246,1.20977228,0.,0.,0.03410881,0.,0.,-0.08301460,0.,0.,0.
 10893427,-0.01035663,-0.01147623,0.,0.02071742,-0.03474130,0.,-0.09565
 232,0.04161424,0.,0.07501967,-0.00363611,0.00172864,0.,0.00553102,-0.0
 1129452,0.,0.02966371,-0.53256247,0.,-0.02909897,0.54426495,0.,0.,0.00
 880903,0.,0.,-0.01415924,0.,0.,-0.00737540,0.,0.,0.01563854,-0.2569484
 0,0.00797737,0.,-0.09246841,0.15796709,0.,0.02403929,-0.04929274,0.,-0
 .00686109,0.00143287,0.,0.51900435,-0.02309573,-0.13465850,0.,0.015996
 24,-0.03848925,0.,0.10593619,-0.12937452,0.,0.00986367,0.00170645,0.,0
 .00388454,0.76770982,0.,0.,-0.10849021,0.,0.,0.04366509,0.,0.,0.025725
 68,0.,0.,0.00901368,0.,0.,0.13260799,-0.07902186,-0.02644226,0.,-0.130
 32322,-0.04484563,0.,-0.31331078,0.12584704,0.,0.01788720,-0.00443599,
 0.,-0.18752641,-0.11072899,0.,1.07407262,-0.15641401,0.00062541,0.,0.0
 5883833,-0.01807893,0.,0.09747529,-0.22693538,0.,0.02434781,-0.0036383
 6,0.,-0.08783573,-0.46793166,0.,0.15711286,0.81563708,0.,0.,0.02205706
 ,0.,0.,0.02446771,0.,0.,-0.07795791,0.,0.,-0.01065976,0.,0.,-0.0986478
 4,0.,0.,0.18466284,0.00136252,0.00048724,0.,-0.00063950,0.00253490,0.,
 -0.01508034,-0.01063558,0.,-0.00075425,0.00054347,0.,0.00076066,-0.001
 85594,0.,-0.38177755,-0.09352455,0.,0.39612847,-0.00487866,-0.00626702
 ,0.,0.00418003,-0.00647561,0.,0.02939782,0.01728219,0.,-0.00050923,-0.
 00020470,0.,-0.03413340,0.00103765,0.,-0.09650704,-0.09967817,0.,0.102
 45046,0.09430566,0.,0.,0.01103486,0.,0.,0.00732440,0.,0.,-0.00042086,0
 .,0.,-0.00126685,0.,0.,-0.00387440,0.,0.,-0.04392211,0.,0.,0.03112496\
 \0.00005896,-0.00007145,0.,-0.00011597,0.00003776,0.,0.00004349,-0.000
 11794,0.,0.00000005,0.00002901,0.,-0.00011719,0.00002752,0.,0.00013131
 ,0.00011641,0.,-0.00000065,-0.00002131,0.\\\@


 WHEN YOU'VE SEEN ONE NUCLEAR WAR YOU'VE SEEN THEM ALL.
 Job cpu time:  0 days  0 hours  0 minutes 17.3 seconds.
 File lengths (MBytes):  RWF=      9 Int=      0 D2E=      0 Chk=      1 Scr=      1
 Normal termination of Gaussian 09 at Thu Jul  8 15:17:10 2010.
 Link1:  Proceeding to internal job step number  3.
 ------------------------------------------------------------------
 #N Geom=AllCheck Guess=TCheck SCRF=Check MP2(Full)/GTBas1 Opt=RCFC
 ------------------------------------------------------------------
 1/10=5,14=-1,18=20,19=15,29=7,38=1,40=1/1,3;
 2/9=110,12=2,40=1/2;
 3/5=33,11=9,14=-4,16=1,25=1,30=1,70=2,71=1,116=-2/1,2,3;
 4/5=101/1;
 5/5=2/2;
 8/6=4,10=90/1;
 9/15=2,16=-3/6;
 10/5=1/2;
 6/7=2,8=2,9=2,10=2/1;
 7/12=2/1,2,3,16;
 1/14=-1,18=20,19=15/3(2);
 2/9=110/2;
 99//99;
 2/9=110/2;
 3/5=33,11=9,14=-2,16=1,25=1,30=1,70=5,71=1/1,2,3;
 4/5=5,16=3/1;
 5/5=2,38=5/2;
 8/6=4,10=90/1;
 9/15=2,16=-3/6;
 10/5=1/2;
 7/12=2/1,2,3,16;
 1/14=-1,18=20,19=15/3(-8);
 2/9=110/2;
 6/7=2,8=2,9=2,10=2/1;
 99//99;
 -----------------------------------------------------------------
 1htz 1H-Tetrazole casno=288948 state=1 config=1 method=67 basis=0
 -----------------------------------------------------------------
 Redundant internal coordinates taken from checkpoint file:
 /gaussian/Gau-26634.chk
 Charge =  0 Multiplicity = 1
 N,0,-0.716312,-0.901934,0.
 N,0,-1.09552,0.29142,0.
 N,0,0.,1.038775,0.
 H,0,-0.061479,2.030994,0.
 N,0,0.622151,-0.989495,0.
 C,0,1.052813,0.225779,0.
 H,0,2.07237,0.542976,0.
 Recover connectivity data from disk.

 GradGradGradGradGradGradGradGradGradGradGradGradGradGradGradGradGradGrad
 Berny optimization.
 Initialization pass.
 Cartesian force constants read from checkpoint file:
 /gaussian/Gau-26634.chk
                           ----------------------------
                           !    Initial Parameters    !
                           ! (Angstroms and Degrees)  !
 --------------------------                            --------------------------
 ! Name  Definition              Value          Derivative Info.                !
 --------------------------------------------------------------------------------
 ! R1    R(1,2)                  1.2522         D2E/DX2 =    0.6025             !
 ! R2    R(1,5)                  1.3413         D2E/DX2 =    0.3526             !
 ! R3    R(2,3)                  1.3262         D2E/DX2 =    0.4092             !
 ! R4    R(3,4)                  0.9941         D2E/DX2 =    0.5461             !
 ! R5    R(3,6)                  1.3302         D2E/DX2 =    0.4758             !
 ! R6    R(5,6)                  1.2893         D2E/DX2 =    0.5821             !
 ! R7    R(6,7)                  1.0678         D2E/DX2 =    0.4276             !
 ! A1    A(2,1,5)              111.3714         D2E/DX2 =    0.2802             !
 ! A2    A(1,2,3)              106.673          D2E/DX2 =    0.2448             !
 ! A3    A(2,3,4)              120.7559         D2E/DX2 =    0.1102             !
 ! A4    A(2,3,6)              108.0227         D2E/DX2 =    0.1571             !
 ! A5    A(4,3,6)              131.2214         D2E/DX2 =    0.0976             !
 ! A6    A(1,5,6)              105.7701         D2E/DX2 =    0.2187             !
 ! A7    A(3,6,5)              108.1628         D2E/DX2 =    0.1529             !
 ! A8    A(3,6,7)              125.0426         D2E/DX2 =    0.1021             !
 ! A9    A(5,6,7)              126.7946         D2E/DX2 =    0.1022             !
 ! D1    D(5,1,2,3)              0.0            D2E/DX2 =    0.0314             !
 ! D2    D(2,1,5,6)              0.0            D2E/DX2 =    0.0332             !
 ! D3    D(1,2,3,4)            180.0            D2E/DX2 =    0.011              !
 ! D4    D(1,2,3,6)              0.0            D2E/DX2 =    0.0286             !
 ! D5    D(2,3,6,5)              0.0            D2E/DX2 =    0.0296             !
 ! D6    D(2,3,6,7)            180.0            D2E/DX2 =    0.0166             !
 ! D7    D(4,3,6,5)            180.0            D2E/DX2 =    0.013              !
 ! D8    D(4,3,6,7)              0.0            D2E/DX2 =    0.0097             !
 ! D9    D(1,5,6,3)              0.0            D2E/DX2 =    0.0292             !
 ! D10   D(1,5,6,7)            180.0            D2E/DX2 =    0.0154             !
 --------------------------------------------------------------------------------
 Trust Radius=3.00D-01 FncErr=1.00D-07 GrdErr=1.00D-07
 Number of steps in this run=  36 maximum allowed number of steps= 100.
 GradGradGradGradGradGradGradGradGradGradGradGradGradGradGradGradGradGrad

                          Input orientation:                          
 ---------------------------------------------------------------------
 Center     Atomic      Atomic             Coordinates (Angstroms)
 Number     Number       Type             X           Y           Z
 ---------------------------------------------------------------------
      1          7           0       -0.716312   -0.901934    0.000000
      2          7           0       -1.095520    0.291420    0.000000
      3          7           0        0.000000    1.038775    0.000000
      4          1           0       -0.061479    2.030994    0.000000
      5          7           0        0.622151   -0.989495    0.000000
      6          6           0        1.052813    0.225779    0.000000
      7          1           0        2.072370    0.542976    0.000000
 ---------------------------------------------------------------------
                    Distance matrix (angstroms):
                    1          2          3          4          5
     1  N    0.000000
     2  N    1.252155   0.000000
     3  N    2.068684   1.326161   0.000000
     4  H    3.005141   2.023699   0.994122   0.000000
     5  N    1.341324   2.142694   2.121544   3.096886   0.000000
     6  C    2.097985   2.149336   1.330180   2.121426   1.289326
     7  H    3.140782   3.177862   2.130853   2.601444   2.109882
                    6          7
     6  C    0.000000
     7  H    1.067760   0.000000
 Stoichiometry    CH2N4
 Framework group  CS[SG(CH2N4)]
 Deg. of freedom    11
 Full point group                 CS      NOp   2
 Largest Abelian subgroup         CS      NOp   2
 Largest concise Abelian subgroup C1      NOp   1
                         Standard orientation:                         
 ---------------------------------------------------------------------
 Center     Atomic      Atomic             Coordinates (Angstroms)
 Number     Number       Type             X           Y           Z
 ---------------------------------------------------------------------
      1          7           0       -0.716312   -0.901934    0.000000
      2          7           0       -1.095520    0.291420    0.000000
      3          7           0        0.000000    1.038775    0.000000
      4          1           0       -0.061479    2.030994    0.000000
      5          7           0        0.622151   -0.989495    0.000000
      6          6           0        1.052813    0.225779    0.000000
      7          1           0        2.072370    0.542976    0.000000
 ---------------------------------------------------------------------
 Rotational constants (GHZ):     10.9198649     10.7343934      5.4131674
 Standard basis: GTBas1 (6D, 7F)
 There are    59 symmetry adapted basis functions of A'  symmetry.
 There are    20 symmetry adapted basis functions of A"  symmetry.
 Integral buffers will be    131072 words long.
 Raffenetti 1 integral format.
 Two-electron integral symmetry is turned on.
    79 basis functions,   148 primitive gaussians,    79 cartesian basis functions
    18 alpha electrons       18 beta electrons
       nuclear repulsion energy       169.8288230689 Hartrees.
 NAtoms=    7 NActive=    7 NUniq=    7 SFac= 7.50D-01 NAtFMM=   80 NAOKFM=F Big=F
 One-electron integrals computed using PRISM.
 NBasis=    79 RedAO= T  NBF=    59    20
 NBsUse=    79 1.00D-06 NBFU=    59    20
 Initial guess read from the checkpoint file:  /gaussian/Gau-26634.chk
 B after Tr=     0.000000    0.000000    0.000000
         Rot=    1.000000    0.000000    0.000000    0.000000 Ang=   0.00 deg.
 Initial guess orbital symmetries:
       Occupied  (A') (A') (A') (A') (A') (A') (A') (A') (A') (A')
                 (A') (A") (A') (A') (A') (A') (A") (A")
       Virtual   (A") (A') (A") (A') (A') (A') (A') (A') (A') (A")
                 (A') (A') (A') (A') (A") (A') (A') (A") (A') (A")
                 (A') (A') (A") (A') (A') (A') (A') (A') (A') (A")
                 (A") (A") (A') (A') (A") (A") (A') (A') (A') (A')
                 (A') (A') (A") (A") (A') (A') (A") (A") (A') (A')
                 (A") (A') (A') (A') (A') (A') (A') (A') (A') (A')
                 (A')
 Requested convergence on RMS density matrix=1.00D-08 within 128 cycles.
 Requested convergence on MAX density matrix=1.00D-06.
 Requested convergence on             energy=1.00D-06.
 No special actions if energy rises.
 Keep R1 ints in memory in canonical form, NReq=5852352.
 SCF Done:  E(RHF) =  -256.754076242     A.U. after    1 cycles
             Convg  =    0.2542D-09             -V/T =  2.0017
 Range of M.O.s used for correlation:     1    79
 NBasis=    79 NAE=    18 NBE=    18 NFC=     0 NFV=     0
 NROrb=     79 NOA=    18 NOB=    18 NVA=    61 NVB=    61
 Fully direct method using O(ONN) memory.
 JobTyp=1 Pass  1:  I=   1 to  18 NPSUse=  1 ParTrn=F ParDer=F DoDerP=T.
 Spin components of T(2) and E(2):
     alpha-alpha T2 =       0.3629387169D-01 E2=     -0.1104209944D+00
     alpha-beta  T2 =       0.1824818545D+00 E2=     -0.5720215058D+00
     beta-beta   T2 =       0.3629387169D-01 E2=     -0.1104209944D+00
 ANorm=    0.1120298888D+01
 E2 =    -0.7928634946D+00 EUMP2 =    -0.25754693973648D+03
          IDoAtm=1111111
          Differentiating once with respect to electric field.
                with respect to dipole field.
          Differentiating once with respect to nuclear coordinates.
          Keep R1 ints in memory in canonical form, NReq=5815316.
          There are     1 degrees of freedom in the 1st order CPHF.  IDoFFX=0.
 LinEq1:  Iter=  0 NonCon=     1 RMS=7.06D-03 Max=7.50D-02
 AX will form     1 AO Fock derivatives at one time.
 LinEq1:  Iter=  1 NonCon=     1 RMS=1.61D-03 Max=1.88D-02
 LinEq1:  Iter=  2 NonCon=     1 RMS=6.14D-04 Max=1.03D-02
 LinEq1:  Iter=  3 NonCon=     1 RMS=1.69D-04 Max=1.61D-03
 LinEq1:  Iter=  4 NonCon=     1 RMS=6.65D-05 Max=9.68D-04
 LinEq1:  Iter=  5 NonCon=     1 RMS=1.96D-05 Max=2.51D-04
 LinEq1:  Iter=  6 NonCon=     1 RMS=8.16D-06 Max=1.09D-04
 LinEq1:  Iter=  7 NonCon=     1 RMS=3.65D-06 Max=6.26D-05
 LinEq1:  Iter=  8 NonCon=     1 RMS=9.81D-07 Max=1.09D-05
 LinEq1:  Iter=  9 NonCon=     1 RMS=4.96D-07 Max=7.87D-06
 LinEq1:  Iter= 10 NonCon=     1 RMS=9.89D-08 Max=7.38D-07
 LinEq1:  Iter= 11 NonCon=     1 RMS=3.33D-08 Max=2.70D-07
 LinEq1:  Iter= 12 NonCon=     1 RMS=1.33D-08 Max=1.28D-07
 LinEq1:  Iter= 13 NonCon=     1 RMS=2.50D-09 Max=3.07D-08
 LinEq1:  Iter= 14 NonCon=     1 RMS=4.82D-10 Max=5.20D-09
 LinEq1:  Iter= 15 NonCon=     0 RMS=8.39D-11 Max=7.08D-10
 Linear equations converged to 1.000D-10 1.000D-09 after    15 iterations.
 End of Minotr Frequency-dependent properties file   721 does not exist.
 End of Minotr Frequency-dependent properties file   722 does not exist.

 **********************************************************************

            Population analysis using the SCF density.

 **********************************************************************

 Orbital symmetries:
       Occupied  (A') (A') (A') (A') (A') (A') (A') (A') (A') (A')
                 (A') (A") (A') (A') (A') (A') (A") (A")
       Virtual   (A") (A') (A") (A') (A') (A') (A') (A') (A') (A")
                 (A') (A') (A') (A') (A") (A') (A') (A") (A') (A")
                 (A') (A') (A") (A') (A') (A') (A') (A') (A') (A")
                 (A") (A") (A') (A') (A") (A") (A') (A') (A') (A')
                 (A') (A') (A") (A") (A') (A') (A") (A") (A') (A')
                 (A") (A') (A') (A') (A') (A') (A') (A') (A') (A')
                 (A')
 The electronic state is 1-A'.
 Alpha  occ. eigenvalues --  -15.68426 -15.66114 -15.64137 -15.59954 -11.33392
[...]
 N-N= 1.657895878901D+02 E-N=-9.323718373019D+02  KE= 2.557374952516D+02
 Symmetry A'   KE= 2.468183535545D+02
 Symmetry A"   KE= 8.919141697133D+00
 1\1\GINC-P2207\SP\RQCISD(T)\GTBas1\C1H2N4\RDJ3\08-Jul-2010\0\\#N Geom=
 AllCheck Guess=TCheck SCRF=Check QCISD(T,FrzG3)/GTBas1\\1htz 1H-Tetraz
 ole casno=288948 state=1 config=1 method=67 basis=0\\0,1\N,0,-0.728957
 456,-0.9449126724,0.\N,0,-1.1305004786,0.3137498782,0.\N,0,-0.00144635
 54,1.0479530025,0.\H,0,-0.0595549044,2.0604093867,0.\N,0,0.630729564,-
 1.0221205724,0.\C,0,1.0674362806,0.2289083802,0.\H,0,2.0963163497,0.55
 45275973,0.\\Version=AM64L-G09RevA.02\State=1-A'\HF=-256.7449748\MP2=-
 257.5357378\MP3=-257.5313505\MP4D=-257.5542016\MP4DQ=-257.5324926\MP4S
 DQ=-257.5419417\QCISD=-257.542738\QCISD(T)=-257.5778075\RMSD=1.427e-09
 \PG=CS [SG(C1H2N4)]\\@


 THE LENGTH OF A MEETING IS PROPORTIONAL TO THE
 SQUARE OF THE PARTICIPANTS.
 Job cpu time:  0 days  0 hours  1 minutes 28.2 seconds.
 File lengths (MBytes):  RWF=     98 Int=      0 D2E=      0 Chk=      2 Scr=      1
 Normal termination of Gaussian 09 at Thu Jul  8 15:19:58 2010.
 Link1:  Proceeding to internal job step number  5.
 -------------------------------------------------------------
 #N Geom=AllCheck Guess=TCheck SCRF=Check MP2=FrzG3/GTMP2Large
 -------------------------------------------------------------
 1/29=7,38=1,40=1/1;
 2/12=2,40=1/2;
 3/5=25,11=9,14=-4,16=1,25=1,30=1,70=2,116=-2/1,2,3;
 4/5=101/1;
 5/5=2/2;
 8/10=5/1;
 9/16=-3/6;
 6/7=2,8=2,9=2,10=2/1;
 99/5=1,9=1/99;
 -----------------------------------------------------------------
 1htz 1H-Tetrazole casno=288948 state=1 config=1 method=67 basis=0
 -----------------------------------------------------------------
 Redundant internal coordinates taken from checkpoint file:
 /gaussian/Gau-26634.chk
 Charge =  0 Multiplicity = 1
 N,0,-0.728957456,-0.9449126724,0.
 N,0,-1.1305004786,0.3137498782,0.
 N,0,-0.0014463554,1.0479530025,0.
 H,0,-0.0595549044,2.0604093867,0.
 N,0,0.630729564,-1.0221205724,0.
 C,0,1.0674362806,0.2289083802,0.
 H,0,2.0963163497,0.5545275973,0.
 Recover connectivity data from disk.
                          Input orientation:                          
 ---------------------------------------------------------------------
 Center     Atomic      Atomic             Coordinates (Angstroms)
 Number     Number       Type             X           Y           Z
 ---------------------------------------------------------------------
      1          7           0       -0.728957   -0.944913    0.000000
      2          7           0       -1.130500    0.313750    0.000000
      3          7           0       -0.001446    1.047953    0.000000
      4          1           0       -0.059555    2.060409    0.000000
      5          7           0        0.630730   -1.022121    0.000000
      6          6           0        1.067436    0.228908    0.000000
      7          1           0        2.096316    0.554528    0.000000
 ---------------------------------------------------------------------
                    Distance matrix (angstroms):
                    1          2          3          4          5
     1  N    0.000000
     2  N    1.321162   0.000000
     3  N    2.121506   1.346780   0.000000
     4  H    3.078971   2.048840   1.014123   0.000000
     5  N    1.361877   2.210539   2.164452   3.158874   0.000000
     6  C    2.145900   2.199574   1.346605   2.150466   1.325061
     7  H    3.198514   3.235788   2.155012   2.629726   2.152618
                    6          7
     6  C    0.000000
     7  H    1.079177   0.000000
 Stoichiometry    CH2N4
 Framework group  CS[SG(CH2N4)]
 Deg. of freedom    11
 Full point group                 CS      NOp   2
 Largest Abelian subgroup         CS      NOp   2
 Largest concise Abelian subgroup C1      NOp   1
                         Standard orientation:                         
 ---------------------------------------------------------------------
 Center     Atomic      Atomic             Coordinates (Angstroms)
 Number     Number       Type             X           Y           Z
 ---------------------------------------------------------------------
      1          7           0       -0.721327   -0.940240    0.000000
      2          7           0       -1.126772    0.317171    0.000000
      3          7           0        0.000000    1.054873    0.000000
      4          1           0       -0.061248    2.067144    0.000000
      5          7           0        0.638593   -1.013230    0.000000
      6          6           0        1.071418    0.239147    0.000000
      7          1           0        2.099283    0.567956    0.000000
 ---------------------------------------------------------------------
 Rotational constants (GHZ):     10.4295177     10.2207103      5.1620292
 Standard basis: GTMP2large (5D, 7F)
 There are   131 symmetry adapted basis functions of A'  symmetry.
 There are    59 symmetry adapted basis functions of A"  symmetry.
 Integral buffers will be    131072 words long.
 Raffenetti 1 integral format.
 Two-electron integral symmetry is turned on.
   190 basis functions,   284 primitive gaussians,   215 cartesian basis functions
    18 alpha electrons       18 beta electrons
       nuclear repulsion energy       165.7895878901 Hartrees.
 NAtoms=    7 NActive=    7 NUniq=    7 SFac= 7.50D-01 NAtFMM=   80 NAOKFM=F Big=F
 One-electron integrals computed using PRISM.
 NBasis=   190 RedAO= T  NBF=   131    59
 NBsUse=   190 1.00D-06 NBFU=   131    59
 Initial guess read from the checkpoint file:  /gaussian/Gau-26634.chk
 B after Tr=     0.000000    0.000000    0.000000
         Rot=    1.000000    0.000000    0.000000    0.000000 Ang=   0.00 deg.
 Initial guess orbital symmetries:
       Occupied  (A') (A') (A') (A') (A') (A') (A') (A') (A') (A')
                 (A') (A') (A") (A') (A') (A') (A") (A")
       Virtual   (A') (A') (A') (A') (A') (A') (A') (A') (A') (A')
                 (A') (A') (A') (A') (A') (A') (A') (A') (A') (A')
                 (A') (A') (A') (A') (A') (A') (A') (A') (A') (A')
                 (A') (A') (A') (A') (A') (A') (A') (A') (A') (A')
                 (A') (A') (A') (A') (A') (A') (A') (A') (A') (A')
                 (A') (A') (A') (A') (A') (A') (A') (A') (A') (A')
                 (A') (A') (A') (A') (A') (A') (A') (A') (A') (A')
                 (A') (A') (A') (A') (A') (A') (A') (A') (A') (A')
                 (A') (A') (A') (A') (A') (A') (A') (A') (A') (A')
                 (A') (A') (A') (A') (A') (A') (A') (A') (A') (A')
                 (A') (A') (A') (A') (A') (A') (A') (A') (A') (A')
                 (A') (A') (A') (A') (A') (A') (A") (A") (A") (A")
                 (A") (A") (A") (A") (A") (A") (A") (A") (A") (A")
                 (A") (A") (A") (A") (A") (A") (A") (A") (A") (A")
                 (A") (A") (A") (A") (A") (A") (A") (A") (A") (A")
                 (A") (A") (A") (A") (A") (A") (A") (A") (A") (A")
                 (A") (A") (A") (A") (A") (A") (A") (A") (A") (A")
                 (A") (A")
 Requested convergence on RMS density matrix=1.00D-08 within 128 cycles.
 Requested convergence on MAX density matrix=1.00D-06.
 Requested convergence on             energy=1.00D-06.
 No special actions if energy rises.
 SCF Done:  E(RHF) =  -256.831595045     A.U. after   14 cycles
             Convg  =    0.2882D-08             -V/T =  2.0025
 ExpMin= 3.60D-02 ExpMax= 6.29D+03 ExpMxC= 9.49D+02 IAcc=3 IRadAn=         5 AccDes= 0.00D+00
 HarFok:  IExCor=  205 AccDes= 0.00D+00 IRadAn=         5 IDoV=-2
 ScaDFX=  1.000000  1.000000  1.000000  1.000000
 Range of M.O.s used for correlation:     6   190
 NBasis=   190 NAE=    18 NBE=    18 NFC=     5 NFV=     0
 NROrb=    185 NOA=    13 NOB=    13 NVA=   172 NVB=   172

 **** Warning!!: The largest alpha MO coefficient is  0.45408239D+02

 Fully direct method using O(OVN) memory.
 JobTyp=1 Pass  1:  I=   1 to  13 NPSUse=  1 ParTrn=F ParDer=F DoDerP=F.
 Spin components of T(2) and E(2):
     alpha-alpha T2 =       0.4304675492D-01 E2=     -0.1290166567D+00
     alpha-beta  T2 =       0.2175895514D+00 E2=     -0.7027568627D+00
     beta-beta   T2 =       0.4304675492D-01 E2=     -0.1290166567D+00
 ANorm=    0.1141789412D+01
 E2 =    -0.9607901762D+00 EUMP2 =    -0.25779238522150D+03

 **********************************************************************

            Population analysis using the SCF density.

 **********************************************************************

 Orbital symmetries:
       Occupied  (A') (A') (A') (A') (A') (A') (A') (A') (A') (A')
                 (A') (A') (A") (A') (A') (A') (A") (A")
       Virtual   (A') (A') (A") (A') (A') (A") (A') (A') (A") (A')
                 (A') (A") (A") (A') (A') (A') (A') (A") (A') (A")
                 (A') (A') (A') (A') (A') (A') (A') (A') (A') (A')
                 (A') (A') (A") (A") (A') (A') (A') (A') (A') (A")
                 (A') (A') (A") (A') (A") (A") (A') (A') (A') (A")
                 (A") (A") (A') (A') (A') (A") (A') (A') (A') (A')
                 (A") (A") (A') (A') (A") (A') (A') (A") (A') (A')
                 (A") (A') (A') (A') (A") (A') (A') (A") (A') (A')
                 (A') (A') (A') (A') (A') (A") (A") (A') (A') (A")
                 (A") (A') (A') (A") (A') (A") (A') (A") (A") (A')
                 (A") (A') (A') (A") (A') (A") (A') (A') (A') (A')
                 (A") (A') (A") (A') (A") (A') (A") (A") (A') (A')
                 (A') (A') (A') (A") (A') (A') (A') (A') (A") (A")
                 (A') (A") (A") (A') (A') (A") (A") (A") (A') (A')
                 (A") (A") (A') (A") (A") (A') (A") (A') (A") (A')
                 (A") (A') (A') (A") (A') (A') (A') (A') (A') (A')
                 (A') (A') (A') (A') (A') (A') (A') (A') (A') (A')
                 (A') (A')
 The electronic state is 1-A'.
 Alpha  occ. eigenvalues --  -15.68801 -15.66816 -15.65385 -15.61041 -11.34173
 Alpha  occ. eigenvalues --   -1.48620  -1.25818  -1.18674  -0.90995  -0.88981
 Alpha  occ. eigenvalues --   -0.79789  -0.67626  -0.67488  -0.56890  -0.48804
 Alpha  occ. eigenvalues --   -0.47437  -0.45825  -0.41473
 Alpha virt. eigenvalues --    0.02414   0.04954   0.08676   0.09525   0.11409
 Alpha virt. eigenvalues --    0.12379   0.14883   0.16718   0.16785   0.18797
 Alpha virt. eigenvalues --    0.19568   0.20226   0.21768   0.22937   0.24416
 Alpha virt. eigenvalues --    0.27417   0.27854   0.28270   0.29944   0.30117
 Alpha virt. eigenvalues --    0.31277   0.32255   0.33533   0.39043   0.40047
 Alpha virt. eigenvalues --    0.41450   0.42080   0.44631   0.53722   0.57804
 Alpha virt. eigenvalues --    0.63387   0.65907   0.67393   0.72848   0.74281
 Alpha virt. eigenvalues --    0.76373   0.81483   0.84447   0.87443   0.88906
 Alpha virt. eigenvalues --    0.93760   0.93999   0.95415   0.97370   0.97889
 Alpha virt. eigenvalues --    0.98988   1.01335   1.04017   1.04612   1.05407
 Alpha virt. eigenvalues --    1.06602   1.12228   1.12568   1.18161   1.20978
 Alpha virt. eigenvalues --    1.22205   1.23362   1.30546   1.35672   1.37398
 Alpha virt. eigenvalues --    1.43370   1.48865   1.51068   1.53559   1.61367
 Alpha virt. eigenvalues --    1.61694   1.68854   1.72110   1.76040   1.83944
 Alpha virt. eigenvalues --    1.94209   1.95312   1.96760   2.00298   2.01505
 Alpha virt. eigenvalues --    2.07759   2.11347   2.12168   2.16725   2.25152
 Alpha virt. eigenvalues --    2.26894   2.37160   2.42215   2.54450   2.87520
 Alpha virt. eigenvalues --    3.07084   3.07527   3.18652   3.21899   3.22989
 Alpha virt. eigenvalues --    3.33819   3.36504   3.45852   3.49918   3.55316
 Alpha virt. eigenvalues --    3.57041   3.59226   3.62136   3.62540   3.68214
 Alpha virt. eigenvalues --    3.72183   3.74357   3.77035   3.82789   3.85541
 Alpha virt. eigenvalues --    3.89739   3.94617   4.00845   4.03155   4.09694
 Alpha virt. eigenvalues --    4.15889   4.18662   4.18982   4.19779   4.21175
 Alpha virt. eigenvalues --    4.24412   4.26520   4.27477   4.28443   4.38034
 Alpha virt. eigenvalues --    4.41374   4.44575   4.50311   4.50859   4.56503
 Alpha virt. eigenvalues --    4.59318   4.69059   4.73946   4.94480   5.14573
 Alpha virt. eigenvalues --    5.18447   5.24122   5.26872   5.27684   5.30515
 Alpha virt. eigenvalues --    5.30872   5.37481   5.37774   5.38839   5.46551
 Alpha virt. eigenvalues --    5.46731   5.50437   5.51850   5.56916   5.57949
 Alpha virt. eigenvalues --    5.58398   5.64899   5.69623   5.70428   5.75675
 Alpha virt. eigenvalues --    5.80536   5.86892   5.89962   5.92437   6.04567
 Alpha virt. eigenvalues --    6.09186   6.15876   6.23757   6.31251   6.32783
 Alpha virt. eigenvalues --    6.41487   6.55818   6.66198   6.85344   6.96395
 Alpha virt. eigenvalues --    7.12574   7.43821  25.79006  37.11422  37.28783
 Alpha virt. eigenvalues --   37.32187  37.34076
          Condensed to atoms (all electrons):
              1          2          3          4          5          6
     1  N    6.299309   0.442257  -0.066109   0.001915   0.322374   0.001956
     2  N    0.442257   6.513312   0.217576  -0.022172   0.007963  -0.130857
     3  N   -0.066109   0.217576   6.348570   0.413846  -0.023339   0.270415
     4  H    0.001915  -0.022172   0.413846   0.434046   0.006132  -0.055059
     5  N    0.322374   0.007963  -0.023339   0.006132   6.730214   0.290143
     6  C    0.001956  -0.130857   0.270415  -0.055059   0.290143   5.107258
     7  H   -0.001177   0.017580  -0.037535  -0.001133  -0.018704   0.411535
              7
     1  N   -0.001177
     2  N    0.017580
     3  N   -0.037535
     4  H   -0.001133
     5  N   -0.018704
     6  C    0.411535
     7  H    0.472077
 Mulliken atomic charges:
              1
     1  N   -0.000525
     2  N   -0.045658
     3  N   -0.123423
     4  H    0.222425
     5  N   -0.314783
     6  C    0.104608
     7  H    0.157356
 Sum of Mulliken atomic charges =   0.00000
 Mulliken charges with hydrogens summed into heavy atoms:
              1
     1  N   -0.000525
     2  N   -0.045658
     3  N    0.099002
     5  N   -0.314783
     6  C    0.261964
 Sum of Mulliken charges with hydrogens summed into heavy atoms =   0.00000
 Electronic spatial extent (au):  <R**2>=            254.2563
 Charge=              0.0000 electrons
 Dipole moment (field-independent basis, Debye):
    X=              2.7380    Y=              4.9719    Z=              0.0000  Tot=              5.6760
 Quadrupole moment (field-independent basis, Debye-Ang):
   XX=            -29.0764   YY=            -26.7032   ZZ=            -29.2827
   XY=              2.1259   XZ=              0.0000   YZ=              0.0000
 Traceless Quadrupole moment (field-independent basis, Debye-Ang):
   XX=             -0.7223   YY=              1.6509   ZZ=             -0.9286
   XY=              2.1259   XZ=              0.0000   YZ=              0.0000
 Octapole moment (field-independent basis, Debye-Ang**2):
  XXX=             13.4840  YYY=             23.9989  ZZZ=              0.0000  XYY=             -0.6547
  XXY=              5.3126  XXZ=              0.0000  XZZ=             -0.4496  YZZ=              0.8286
  YYZ=              0.0000  XYZ=              0.0000
 Hexadecapole moment (field-independent basis, Debye-Ang**3):
 XXXX=           -146.3285 YYYY=           -124.5536 ZZZZ=            -28.4887 XXXY=              8.3498
 XXXZ=              0.0000 YYYX=              0.2102 YYYZ=              0.0000 ZZZX=              0.0000
 ZZZY=              0.0000 XXYY=            -55.9898 XXZZ=            -32.2837 YYZZ=            -30.7547
 XXYZ=              0.0000 YYXZ=              0.0000 ZZXY=              0.1936
 N-N= 1.657895878901D+02 E-N=-9.329532306716D+02  KE= 2.562035921468D+02
 Symmetry A'   KE= 2.473044768387D+02
 Symmetry A"   KE= 8.899115308103D+00
 1\1\GINC-P2207\SP\RMP2\GTMP2large\C1H2N4\RDJ3\08-Jul-2010\0\\#N Geom=A
 llCheck Guess=TCheck SCRF=Check MP2=FrzG3/GTMP2Large\\1htz 1H-Tetrazol
 e casno=288948 state=1 config=1 method=67 basis=0\\0,1\N,0,-0.72895745
 6,-0.9449126724,0.\N,0,-1.1305004786,0.3137498782,0.\N,0,-0.0014463554
 ,1.0479530025,0.\H,0,-0.0595549044,2.0604093867,0.\N,0,0.630729564,-1.
 0221205724,0.\C,0,1.0674362806,0.2289083802,0.\H,0,2.0963163497,0.5545
 275973,0.\\Version=AM64L-G09RevA.02\State=1-A'\HF=-256.831595\MP2=-257
 .7923852\RMSD=2.882e-09\PG=CS [SG(C1H2N4)]\\@


 WHEN IT COMES TO CASH FLOW, IT SEEMS LIKE THE TIDE IS ALWAYS GOING OUT.
 Diagonal vibrational polarizability:
        0.0000000       0.0000000       0.0000000

 Temperature=              298.150000 Pressure=                      1.000000
 E(ZPE)=                     0.046390 E(Thermal)=                    0.049876
 E(QCISD(T))=             -257.577807 E(Empiric)=                   -0.120627
 DE(MP2)=                   -0.256647
 G3MP2(0 K)=              -257.908692 G3MP2 Energy=               -257.905206
 G3MP2 Enthalpy=          -257.904262 G3MP2 Free Energy=          -257.934744
 1\1\GINC-P2207\Mixed\G3MP2\G3MP2\C1H2N4\RDJ3\08-Jul-2010\0\\#G3MP2\\1h
 tz 1H-Tetrazole casno=288948 state=1 config=1 method=67 basis=0\\0,1\N
 ,0,-0.728957456,-0.9449126724,0.\N,0,-1.1305004786,0.3137498782,0.\N,0
 ,-0.0014463554,1.0479530025,0.\H,0,-0.0595549044,2.0604093867,0.\N,0,0
 .630729564,-1.0221205724,0.\C,0,1.0674362806,0.2289083802,0.\H,0,2.096
 3163497,0.5545275973,0.\\Version=AM64L-G09RevA.02\State=1-A'\MP2/G3Bas
 1=-257.5357378\QCISD(T)/G3Bas1=-257.5778075\MP2/GTMP2Large=-257.792385
 2\G3MP2=-257.9086921\FreqCoord=-1.3536335057,-1.7044082499,0.,-2.07023
 27731,0.5507039896,0.,0.,1.9630002637,0.,-0.1161784729,3.8380224375,0.
 ,1.1756950033,-1.8698745599,0.,1.9895282391,0.4266604766,0.,3.91621174
 6,1.0260759367,0.\PG=CS [SG(C1H2N4)]\NImag=0\\0.55714168,0.03372260,0.
 82427685,0.,0.,0.15179732,-0.18224420,0.08836027,0.,0.66845820,0.14374
 077,-0.50103184,0.,-0.13832426,0.72887871,0.,0.,-0.11931688,0.,0.,0.14
 103352,-0.02993311,-0.09262898,0.,-0.28350030,-0.08633157,0.,0.7134375
 6,0.01056113,-0.18467354,0.,-0.03458163,-0.15350856,0.,-0.08351246,1.2
 0977228,0.,0.,0.03410881,0.,0.,-0.08301460,0.,0.,0.10893427,-0.0103566
 3,-0.01147623,0.,0.02071742,-0.03474130,0.,-0.09565232,0.04161424,0.,0
 .07501967,-0.00363611,0.00172864,0.,0.00553102,-0.01129452,0.,0.029663
 71,-0.53256247,0.,-0.02909897,0.54426495,0.,0.,0.00880903,0.,0.,-0.014
 15924,0.,0.,-0.00737540,0.,0.,0.01563854,-0.25694840,0.00797737,0.,-0.
 09246841,0.15796709,0.,0.02403929,-0.04929274,0.,-0.00686109,0.0014328
 7,0.,0.51900435,-0.02309573,-0.13465850,0.,0.01599624,-0.03848925,0.,0
 .10593619,-0.12937452,0.,0.00986367,0.00170645,0.,0.00388454,0.7677098
 2,0.,0.,-0.10849021,0.,0.,0.04366509,0.,0.,0.02572568,0.,0.,0.00901368
 ,0.,0.,0.13260799,-0.07902186,-0.02644226,0.,-0.13032322,-0.04484563,0
 .,-0.31331078,0.12584704,0.,0.01788720,-0.00443599,0.,-0.18752641,-0.1
 1072899,0.,1.07407262,-0.15641401,0.00062541,0.,0.05883833,-0.01807893
 ,0.,0.09747529,-0.22693538,0.,0.02434781,-0.00363836,0.,-0.08783573,-0
 .46793166,0.,0.15711286,0.81563708,0.,0.,0.02205706,0.,0.,0.02446771,0
 .,0.,-0.07795791,0.,0.,-0.01065976,0.,0.,-0.09864784,0.,0.,0.18466284,
 0.00136252,0.00048724,0.,-0.00063950,0.00253490,0.,-0.01508034,-0.0106
 3558,0.,-0.00075425,0.00054347,0.,0.00076066,-0.00185594,0.,-0.3817775
 5,-0.09352455,0.,0.39612847,-0.00487866,-0.00626702,0.,0.00418003,-0.0
 0647561,0.,0.02939782,0.01728219,0.,-0.00050923,-0.00020470,0.,-0.0341
 3340,0.00103765,0.,-0.09650704,-0.09967817,0.,0.10245046,0.09430566,0.
 ,0.,0.01103486,0.,0.,0.00732440,0.,0.,-0.00042086,0.,0.,-0.00126685,0.
 ,0.,-0.00387440,0.,0.,-0.04392211,0.,0.,0.03112496\\0.00005896,-0.0000
 7145,0.,-0.00011597,0.00003776,0.,0.00004349,-0.00011794,0.,0.00000005
 ,0.00002901,0.,-0.00011719,0.00002752,0.,0.00013131,0.00011641,0.,-0.0
 0000065,-0.00002131,0.\\\@
 Job cpu time:  0 days  0 hours  3 minutes 23.4 seconds.
 File lengths (MBytes):  RWF=     98 Int=      0 D2E=      0 Chk=      3 Scr=      1
 Normal termination of Gaussian 09 at Thu Jul  8 15:23:21 2010.
