 host = p195 (kernel = 2.6.9-K8)
 Running on 64-bit system
 Current disk usage on p195
/dev/hda1              35G  4.2G   29G  13% /
 Entering Gaussian System, Link 0=/usr/local/gaussian03-rev-C02-64/g03/g03
 Initial command:
 /usr/local/gaussian03-rev-C02-64/g03/l1.exe /scratch/Gau-2650.inp -scrdir=/scratch/
 Entering Link 1 = /usr/local/gaussian03-rev-C02-64/g03/l1.exe PID=      2651.
  
 Copyright (c) 1988,1990,1992,1993,1995,1998,2003,2004, Gaussian, Inc.
                  All Rights Reserved.
  
 This is the Gaussian(R) 03 program.  It is based on the
 the Gaussian(R) 98 system (copyright 1998, Gaussian, Inc.),
 the Gaussian(R) 94 system (copyright 1995, Gaussian, Inc.),
 the Gaussian 92(TM) system (copyright 1992, Gaussian, Inc.),
 the Gaussian 90(TM) system (copyright 1990, Gaussian, Inc.),
 the Gaussian 88(TM) system (copyright 1988, Gaussian, Inc.),
 the Gaussian 86(TM) system (copyright 1986, Carnegie Mellon
 University), and the Gaussian 82(TM) system (copyright 1983,
 Carnegie Mellon University). Gaussian is a federally registered
 trademark of Gaussian, Inc.
  
 This software contains proprietary and confidential information,
 including trade secrets, belonging to Gaussian, Inc.
  
 This software is provided under written license and may be
 used, copied, transmitted, or stored only in accord with that
 written license.
  
 The following legend is applicable only to US Government
 contracts under FAR:
  
                    RESTRICTED RIGHTS LEGEND
  
 Use, reproduction and disclosure by the US Government is
 subject to restrictions as set forth in subparagraphs (a)
 and (c) of the Commercial Computer Software - Restricted
 Rights clause in FAR 52.227-19.
  
 Gaussian, Inc.
 340 Quinnipiac St., Bldg. 40, Wallingford CT 06492
  
  
 ---------------------------------------------------------------
 Warning -- This program may not be used in any manner that
 competes with the business of Gaussian, Inc. or will provide
 assistance to any competitor of Gaussian, Inc.  The licensee
 of this program is prohibited from giving any competitor of
 Gaussian, Inc. access to this program.  By using this program,
 the user acknowledges that Gaussian, Inc. is engaged in the
 business of creating and licensing software in the field of
 computational chemistry and represents and warrants to the
 licensee that it is not a competitor of Gaussian, Inc. and that
 it will not use this program in any manner prohibited above.
 ---------------------------------------------------------------
  

 Cite this work as:
 Gaussian 03, Revision C.02,
 M. J. Frisch, G. W. Trucks, H. B. Schlegel, G. E. Scuseria, 
 M. A. Robb, J. R. Cheeseman, J. A. Montgomery, Jr., T. Vreven, 
 K. N. Kudin, J. C. Burant, J. M. Millam, S. S. Iyengar, J. Tomasi, 
 V. Barone, B. Mennucci, M. Cossi, G. Scalmani, N. Rega, 
 G. A. Petersson, H. Nakatsuji, M. Hada, M. Ehara, K. Toyota, 
 R. Fukuda, J. Hasegawa, M. Ishida, T. Nakajima, Y. Honda, O. Kitao, 
 H. Nakai, M. Klene, X. Li, J. E. Knox, H. P. Hratchian, J. B. Cross, 
 C. Adamo, J. Jaramillo, R. Gomperts, R. E. Stratmann, O. Yazyev, 
 A. J. Austin, R. Cammi, C. Pomelli, J. W. Ochterski, P. Y. Ayala, 
 K. Morokuma, G. A. Voth, P. Salvador, J. J. Dannenberg, 
 V. G. Zakrzewski, S. Dapprich, A. D. Daniels, M. C. Strain, 
 O. Farkas, D. K. Malick, A. D. Rabuck, K. Raghavachari, 
 J. B. Foresman, J. V. Ortiz, Q. Cui, A. G. Baboul, S. Clifford, 
 J. Cioslowski, B. B. Stefanov, G. Liu, A. Liashenko, P. Piskorz, 
 I. Komaromi, R. L. Martin, D. J. Fox, T. Keith, M. A. Al-Laham, 
 C. Y. Peng, A. Nanayakkara, M. Challacombe, P. M. W. Gill, 
 B. Johnson, W. Chen, M. W. Wong, C. Gonzalez, and J. A. Pople, 
 Gaussian, Inc., Wallingford CT, 2004.
 
 ******************************************
 Gaussian 03:  AM64L-G03RevC.02 12-Jun-2004
                17-Feb-2006 
 ******************************************
 %mem=56000000
 ------------------------------------------------
 #PBEPBE/6-31G* opt freq integral(grid=ultrafine)
 ------------------------------------------------
 1/14=-1,18=20,26=3,38=1/1,3;
 2/9=110,17=6,18=5,40=1/2;
 3/5=1,6=6,7=1,11=2,16=1,25=1,30=1,74=1009,75=5/1,2,3;
 4//1;
 5/5=2,38=5/2;
 6/7=2,8=2,9=2,10=2,28=1/1;
 7//1,2,3,16;
 1/14=-1,18=20/3(1);
 99//99;
 2/9=110/2;
 3/5=1,6=6,7=1,11=2,16=1,25=1,30=1,74=1009,75=5/1,2,3;
 4/5=5,16=3/1;
 5/5=2,38=5/2;
 7//1,2,3,16;
 1/14=-1,18=20/3(-5);
 2/9=110/2;
 6/7=2,8=2,9=2,10=2,19=2,28=1/1;
 99/9=1/99;
 Leave Link    1 at Fri Feb 17 07:13:54 2006, MaxMem=   56000000 cpu:       0.3
 (Enter /usr/local/gaussian03-rev-C02-64/g03/l101.exe)
 -----------------------------------
 1htz casno=288948 method=69 basis=1
 -----------------------------------
 Symbolic Z-matrix:
 Charge =  0 Multiplicity = 1
 N                    -0.71631  -0.90193   0. 
 N                    -1.09552   0.29142   0. 
 N                     0.        1.03878   0. 
 H                    -0.06148   2.03099   0. 
 N                     0.62215  -0.9895    0. 
 C                     1.05281   0.22578   0. 
 H                     2.07237   0.54298   0. 
 
                    Isotopes and Nuclear Properties:

  Atom         1           2           3           4           5           6           7
 IAtWgt=          14          14          14           1          14          12           1
 AtmWgt=  14.0030740  14.0030740  14.0030740   1.0078250  14.0030740  12.0000000   1.0078250
 IAtSpn=           2           2           2           1           2           0           1
 AtZEff=   0.0000000   0.0000000   0.0000000   0.0000000   0.0000000   0.0000000   0.0000000
 AtQMom=   1.5600000   1.5600000   1.5600000   0.0000000   1.5600000   0.0000000   0.0000000
 AtGFac=   0.4037610   0.4037610   0.4037610   2.7928460   0.4037610   0.0000000   2.7928460
 Leave Link  101 at Fri Feb 17 07:13:55 2006, MaxMem=   56000000 cpu:       0.2
 (Enter /usr/local/gaussian03-rev-C02-64/g03/l103.exe)

 GradGradGradGradGradGradGradGradGradGradGradGradGradGradGradGradGradGrad
 Berny optimization.
 Initialization pass.
                           ----------------------------
                           !    Initial Parameters    !
                           ! (Angstroms and Degrees)  !
 --------------------------                            --------------------------
 ! Name  Definition              Value          Derivative Info.                !
 --------------------------------------------------------------------------------
 ! R1    R(1,2)                  1.2522         estimate D2E/DX2                !
 ! R2    R(1,5)                  1.3413         estimate D2E/DX2                !
 ! R3    R(2,3)                  1.3262         estimate D2E/DX2                !
 ! R4    R(3,4)                  0.9941         estimate D2E/DX2                !
 ! R5    R(3,6)                  1.3302         estimate D2E/DX2                !
 ! R6    R(5,6)                  1.2893         estimate D2E/DX2                !
 ! R7    R(6,7)                  1.0678         estimate D2E/DX2                !
 ! A1    A(2,1,5)              111.3714         estimate D2E/DX2                !
 ! A2    A(1,2,3)              106.673          estimate D2E/DX2                !
 ! A3    A(2,3,4)              120.7559         estimate D2E/DX2                !
 ! A4    A(2,3,6)              108.0227         estimate D2E/DX2                !
 ! A5    A(4,3,6)              131.2214         estimate D2E/DX2                !
 ! A6    A(1,5,6)              105.7701         estimate D2E/DX2                !
 ! A7    A(3,6,5)              108.1628         estimate D2E/DX2                !
 ! A8    A(3,6,7)              125.0426         estimate D2E/DX2                !
 ! A9    A(5,6,7)              126.7946         estimate D2E/DX2                !
 ! D1    D(5,1,2,3)              0.0            estimate D2E/DX2                !
 ! D2    D(2,1,5,6)              0.0            estimate D2E/DX2                !
 ! D3    D(1,2,3,4)            180.0            estimate D2E/DX2                !
 ! D4    D(1,2,3,6)              0.0            estimate D2E/DX2                !
 ! D5    D(2,3,6,5)              0.0            estimate D2E/DX2                !
 ! D6    D(2,3,6,7)            180.0            estimate D2E/DX2                !
 ! D7    D(4,3,6,5)            180.0            estimate D2E/DX2                !
 ! D8    D(4,3,6,7)              0.0            estimate D2E/DX2                !
 ! D9    D(1,5,6,3)              0.0            estimate D2E/DX2                !
 ! D10   D(1,5,6,7)            180.0            estimate D2E/DX2                !
 --------------------------------------------------------------------------------
 Trust Radius=3.00D-01 FncErr=1.00D-07 GrdErr=1.00D-06
 Number of steps in this run=  36 maximum allowed number of steps= 100.
 GradGradGradGradGradGradGradGradGradGradGradGradGradGradGradGradGradGrad

 Leave Link  103 at Fri Feb 17 07:13:55 2006, MaxMem=   56000000 cpu:       0.0
 (Enter /usr/local/gaussian03-rev-C02-64/g03/l202.exe)
                          Input orientation:                          
 ---------------------------------------------------------------------
 Center     Atomic     Atomic              Coordinates (Angstroms)
 Number     Number      Type              X           Y           Z
 ---------------------------------------------------------------------
    1          7             0       -0.716312   -0.901934    0.000000
    2          7             0       -1.095520    0.291420    0.000000
    3          7             0        0.000000    1.038775    0.000000
    4          1             0       -0.061479    2.030994    0.000000
    5          7             0        0.622151   -0.989495    0.000000
    6          6             0        1.052813    0.225779    0.000000
    7          1             0        2.072370    0.542976    0.000000
 ---------------------------------------------------------------------
                    Distance matrix (angstroms):
                    1          2          3          4          5
     1  N    0.000000
     2  N    1.252155   0.000000
     3  N    2.068684   1.326161   0.000000
     4  H    3.005141   2.023699   0.994122   0.000000
     5  N    1.341324   2.142694   2.121544   3.096886   0.000000
     6  C    2.097985   2.149336   1.330180   2.121426   1.289326
     7  H    3.140782   3.177862   2.130853   2.601444   2.109882
                    6          7
     6  C    0.000000
     7  H    1.067760   0.000000
 Stoichiometry    CH2N4
 Framework group  CS[SG(CH2N4)]
 Deg. of freedom    11
 Full point group                 CS      NOp   2
 Largest Abelian subgroup         CS      NOp   2
 Largest concise Abelian subgroup C1      NOp   1
                         Standard orientation:                         
 ---------------------------------------------------------------------
 Center     Atomic     Atomic              Coordinates (Angstroms)
 Number     Number      Type              X           Y           Z
 ---------------------------------------------------------------------
    1          7             0       -0.716312   -0.901934    0.000000
    2          7             0       -1.095520    0.291420    0.000000
    3          7             0        0.000000    1.038775    0.000000
    4          1             0       -0.061479    2.030994    0.000000
    5          7             0        0.622151   -0.989495    0.000000
    6          6             0        1.052813    0.225779    0.000000
    7          1             0        2.072370    0.542976    0.000000
 ---------------------------------------------------------------------
 Rotational constants (GHZ):     10.9198649     10.7343934      5.4131674
 Leave Link  202 at Fri Feb 17 07:13:56 2006, MaxMem=   56000000 cpu:       0.1
 (Enter /usr/local/gaussian03-rev-C02-64/g03/l301.exe)
 Standard basis: 6-31G(d) (6D, 7F)
 There are    59 symmetry adapted basis functions of A'  symmetry.
 There are    20 symmetry adapted basis functions of A"  symmetry.
 Integral buffers will be    131072 words long.
 Raffenetti 2 integral format.
 Two-electron integral symmetry is turned on.
    79 basis functions,   148 primitive gaussians,    79 cartesian basis functions
    18 alpha electrons       18 beta electrons
       nuclear repulsion energy       169.8288229759 Hartrees.
 IExCor=1009 DFT=T Ex=PBE Corr=PBE ExCW=0 ScaHFX=  0.000000
 ScaDFX=  1.000000  1.000000  1.000000  1.000000
 IRadAn=      5 IRanWt=     -1 IRanGd=            0 ICorTp=0
 NAtoms=    7 NActive=    7 NUniq=    7 SFac= 1.00D+00 NAtFMM=   60 Big=F
 Leave Link  301 at Fri Feb 17 07:13:57 2006, MaxMem=   56000000 cpu:       0.0
 (Enter /usr/local/gaussian03-rev-C02-64/g03/l302.exe)
 NPDir=0 NMtPBC=     1 NCelOv=     1 NCel=       1 NClECP=     1 NCelD=      1
         NCelK=      1 NCelE2=     1 NClLst=     1 CellRange=     0.0.
 One-electron integrals computed using PRISM.
 NBasis=    79 RedAO= T  NBF=    59    20
 NBsUse=    79 1.00D-06 NBFU=    59    20
 Precomputing XC quadrature grid using
 IXCGrd= 2 IRadAn=           5 IRanWt=          -1 IRanGd=           0.
 NRdTot=     565 NPtTot=      151932 NUsed=      155916 NTot=      155948
 NSgBfM=    79    79    79    79.
 Leave Link  302 at Fri Feb 17 07:13:58 2006, MaxMem=   56000000 cpu:       0.4
 (Enter /usr/local/gaussian03-rev-C02-64/g03/l303.exe)
 DipDrv:  MaxL=1.
 Leave Link  303 at Fri Feb 17 07:13:59 2006, MaxMem=   56000000 cpu:       0.0
 (Enter /usr/local/gaussian03-rev-C02-64/g03/l401.exe)
 Harris functional with IExCor= 1009 diagonalized for initial guess.
 ExpMin= 1.61D-01 ExpMax= 4.17D+03 ExpMxC= 6.27D+02 IAcc=3 IRadAn=         5 AccDes= 0.00D+00
 HarFok:  IExCor=1009 AccDes= 0.00D+00 IRadAn=         5 IDoV=1
 ScaDFX=  1.000000  1.000000  1.000000  1.000000
 Harris En= -258.054235837453    
 Initial guess orbital symmetries:
       Occupied  (A') (A') (A') (A') (A') (A') (A') (A') (A') (A')
                 (A') (A') (A") (A') (A") (A') (A") (A')
       Virtual   (A") (A") (A') (A') (A') (A') (A') (A') (A') (A')
                 (A") (A') (A') (A') (A') (A') (A") (A") (A') (A")
                 (A') (A") (A') (A') (A') (A') (A') (A') (A') (A")
                 (A") (A") (A') (A') (A") (A") (A') (A') (A') (A')
                 (A') (A') (A") (A") (A') (A') (A") (A") (A') (A')
                 (A") (A') (A') (A') (A') (A') (A') (A') (A') (A')
                 (A')
 The electronic state of the initial guess is 1-A'.
 Leave Link  401 at Fri Feb 17 07:14:02 2006, MaxMem=   56000000 cpu:       2.6
 (Enter /usr/local/gaussian03-rev-C02-64/g03/l502.exe)
 Closed shell SCF:
 Requested convergence on RMS density matrix=1.00D-08 within 128 cycles.
 Requested convergence on MAX density matrix=1.00D-06.
 Requested convergence on             energy=1.00D-06.
 No special actions if energy rises.
 Using DIIS extrapolation, IDIIS=  1040.
 Integral symmetry usage will be decided dynamically.
       155915 words used for storage of precomputed grid.
 Keep R1 integrals in memory in canonical form, NReq=     6266191.
 IEnd=    195837 IEndB=    195837 NGot=  56000000 MDV=  50832730
 LenX=  50832730
 Symmetry not used in FoFDir.
 MinBra= 0 MaxBra= 2 Meth= 1.
 IRaf=       0 NMat=   1 IRICut=       1 DoRegI=T DoRafI=F ISym2E= 0 JSym2E=0.
 Integral accuracy reduced to 1.0D-05 until final iterations.

 Cycle   1  Pass 0  IDiag  1:
 E= -257.912537770336    
 DIIS: error= 1.98D-02 at cycle   1 NSaved=   1.
 NSaved= 1 IEnMin= 1 EnMin= -257.912537770336     IErMin= 1 ErrMin= 1.98D-02
 ErrMax= 1.98D-02 EMaxC= 1.00D-01 BMatC= 5.55D-02 BMatP= 5.55D-02
 IDIUse=3 WtCom= 8.02D-01 WtEn= 1.98D-01
 Coeff-Com:  0.100D+01
 Coeff-En:   0.100D+01
 Coeff:      0.100D+01
 Gap=     0.159 Goal=   None    Shift=    0.000
 GapD=    0.159 DampG=1.000 DampE=0.500 DampFc=0.5000 IDamp=-1.
 Damping current iteration by 5.00D-01
 RMSDP=1.01D-02 MaxDP=1.33D-01              OVMax= 2.11D-01

 Cycle   2  Pass 0  IDiag  1:
 E= -257.919754073010     Delta-E=       -0.007216302675 Rises=F Damp=T
 DIIS: error= 1.42D-02 at cycle   2 NSaved=   2.
 NSaved= 2 IEnMin= 2 EnMin= -257.919754073010     IErMin= 2 ErrMin= 1.42D-02
 ErrMax= 1.42D-02 EMaxC= 1.00D-01 BMatC= 1.80D-02 BMatP= 5.55D-02
 IDIUse=3 WtCom= 8.58D-01 WtEn= 1.42D-01
 Coeff-Com:  0.302D+00 0.698D+00
 Coeff-En:   0.442D+00 0.558D+00
 Coeff:      0.322D+00 0.678D+00
 Gap=     0.207 Goal=   None    Shift=    0.000
 RMSDP=3.37D-03 MaxDP=4.37D-02 DE=-7.22D-03 OVMax= 1.74D-01

 Cycle   3  Pass 0  IDiag  1:
 E= -257.952431090170     Delta-E=       -0.032677017160 Rises=F Damp=F
 DIIS: error= 1.77D-02 at cycle   3 NSaved=   3.
 NSaved= 3 IEnMin= 3 EnMin= -257.952431090170     IErMin= 2 ErrMin= 1.42D-02
 ErrMax= 1.77D-02 EMaxC= 1.00D-01 BMatC= 2.15D-02 BMatP= 1.80D-02
 IDIUse=2 WtCom= 0.00D+00 WtEn= 1.00D+00
 Coeff-En:   0.000D+00 0.158D+00 0.842D+00
 Coeff:      0.000D+00 0.158D+00 0.842D+00
 Gap=     0.168 Goal=   None    Shift=    0.000
 RMSDP=4.83D-03 MaxDP=7.49D-02 DE=-3.27D-02 OVMax= 1.54D-01

 Cycle   4  Pass 0  IDiag  1:
 E= -257.897531969518     Delta-E=        0.054899120652 Rises=F Damp=F
 DIIS: error= 3.52D-02 at cycle   4 NSaved=   4.
 NSaved= 4 IEnMin= 3 EnMin= -257.952431090170     IErMin= 2 ErrMin= 1.42D-02
 ErrMax= 3.52D-02 EMaxC= 1.00D-01 BMatC= 8.30D-02 BMatP= 1.80D-02
 IDIUse=2 WtCom= 0.00D+00 WtEn= 1.00D+00
 Coeff-En:   0.000D+00 0.000D+00 0.725D+00 0.275D+00
 Coeff:      0.000D+00 0.000D+00 0.725D+00 0.275D+00
 Gap=     0.181 Goal=   None    Shift=    0.000
 RMSDP=2.69D-03 MaxDP=3.98D-02 DE= 5.49D-02 OVMax= 8.42D-02

 Cycle   5  Pass 0  IDiag  1:
 E= -257.967880959830     Delta-E=       -0.070348990312 Rises=F Damp=F
 DIIS: error= 7.10D-03 at cycle   5 NSaved=   5.
 NSaved= 5 IEnMin= 5 EnMin= -257.967880959830     IErMin= 5 ErrMin= 7.10D-03
 ErrMax= 7.10D-03 EMaxC= 1.00D-01 BMatC= 4.12D-03 BMatP= 1.80D-02
 IDIUse=3 WtCom= 9.29D-01 WtEn= 7.10D-02
 Coeff-Com:  0.359D-01 0.333D-01 0.389D+00 0.924D-01 0.450D+00
 Coeff-En:   0.000D+00 0.000D+00 0.220D+00 0.000D+00 0.780D+00
 Coeff:      0.334D-01 0.309D-01 0.377D+00 0.859D-01 0.473D+00
 Gap=     0.191 Goal=   None    Shift=    0.000
 RMSDP=7.78D-04 MaxDP=1.17D-02 DE=-7.03D-02 OVMax= 2.18D-02

 Cycle   6  Pass 0  IDiag  1:
 E= -257.971493483373     Delta-E=       -0.003612523543 Rises=F Damp=F
 DIIS: error= 7.72D-04 at cycle   6 NSaved=   6.
 NSaved= 6 IEnMin= 6 EnMin= -257.971493483373     IErMin= 6 ErrMin= 7.72D-04
 ErrMax= 7.72D-04 EMaxC= 1.00D-01 BMatC= 6.34D-05 BMatP= 4.12D-03
 IDIUse=3 WtCom= 9.92D-01 WtEn= 7.72D-03
 Coeff-Com: -0.342D-02 0.169D-02 0.920D-01-0.176D-01 0.313D+00 0.614D+00
 Coeff-En:   0.000D+00 0.000D+00 0.000D+00 0.000D+00 0.000D+00 0.100D+01
 Coeff:     -0.339D-02 0.168D-02 0.913D-01-0.175D-01 0.311D+00 0.617D+00
 Gap=     0.190 Goal=   None    Shift=    0.000
 RMSDP=9.28D-05 MaxDP=1.51D-03 DE=-3.61D-03 OVMax= 2.87D-03

 Cycle   7  Pass 0  IDiag  1:
 E= -257.971545216562     Delta-E=       -0.000051733189 Rises=F Damp=F
 DIIS: error= 1.20D-04 at cycle   7 NSaved=   7.
 NSaved= 7 IEnMin= 7 EnMin= -257.971545216562     IErMin= 7 ErrMin= 1.20D-04
 ErrMax= 1.20D-04 EMaxC= 1.00D-01 BMatC= 1.46D-06 BMatP= 6.34D-05
 IDIUse=3 WtCom= 9.99D-01 WtEn= 1.20D-03
 Coeff-Com: -0.246D-02 0.178D-02 0.528D-01-0.127D-01 0.190D+00 0.389D+00
 Coeff-Com:  0.382D+00
 Coeff-En:   0.000D+00 0.000D+00 0.000D+00 0.000D+00 0.000D+00 0.000D+00
 Coeff-En:   0.100D+01
 Coeff:     -0.246D-02 0.178D-02 0.527D-01-0.127D-01 0.190D+00 0.388D+00
 Coeff:      0.383D+00
 Gap=     0.190 Goal=   None    Shift=    0.000
 RMSDP=1.89D-05 MaxDP=3.59D-04 DE=-5.17D-05 OVMax= 7.11D-04

 Cycle   8  Pass 0  IDiag  1:
 E= -257.971546420562     Delta-E=       -0.000001204000 Rises=F Damp=F
 DIIS: error= 4.61D-05 at cycle   8 NSaved=   8.
 NSaved= 8 IEnMin= 8 EnMin= -257.971546420562     IErMin= 8 ErrMin= 4.61D-05
 ErrMax= 4.61D-05 EMaxC= 1.00D-01 BMatC= 1.64D-07 BMatP= 1.46D-06
 IDIUse=1 WtCom= 1.00D+00 WtEn= 0.00D+00
 Coeff-Com: -0.757D-03 0.131D-02 0.990D-02-0.401D-02 0.408D-01 0.884D-01
 Coeff-Com:  0.255D+00 0.610D+00
 Coeff:     -0.757D-03 0.131D-02 0.990D-02-0.401D-02 0.408D-01 0.884D-01
 Coeff:      0.255D+00 0.610D+00
 Gap=     0.190 Goal=   None    Shift=    0.000
 RMSDP=5.66D-06 MaxDP=7.70D-05 DE=-1.20D-06 OVMax= 1.73D-04

 Initial convergence to 1.0D-05 achieved.  Increase integral accuracy.
 Cycle   9  Pass 1  IDiag  1:
 E= -257.971545822180     Delta-E=        0.000000598382 Rises=F Damp=F
 DIIS: error= 3.86D-06 at cycle   1 NSaved=   1.
 NSaved= 1 IEnMin= 1 EnMin= -257.971545822180     IErMin= 1 ErrMin= 3.86D-06
 ErrMax= 3.86D-06 EMaxC= 1.00D-01 BMatC= 1.78D-09 BMatP= 1.78D-09
 IDIUse=1 WtCom= 1.00D+00 WtEn= 0.00D+00
 Coeff-Com:  0.100D+01
 Coeff:      0.100D+01
 Gap=     0.190 Goal=   None    Shift=    0.000
 RMSDP=5.66D-06 MaxDP=7.70D-05 DE= 5.98D-07 OVMax= 2.22D-05

 Cycle  10  Pass 1  IDiag  1:
 E= -257.971545821638     Delta-E=        0.000000000541 Rises=F Damp=F
 DIIS: error= 5.57D-06 at cycle   2 NSaved=   2.
 NSaved= 2 IEnMin= 1 EnMin= -257.971545822180     IErMin= 1 ErrMin= 3.86D-06
 ErrMax= 5.57D-06 EMaxC= 1.00D-01 BMatC= 2.99D-09 BMatP= 1.78D-09
 IDIUse=1 WtCom= 1.00D+00 WtEn= 0.00D+00
 Coeff-Com:  0.575D+00 0.425D+00
 Coeff:      0.575D+00 0.425D+00
 Gap=     0.190 Goal=   None    Shift=    0.000
 RMSDP=7.10D-07 MaxDP=1.52D-05 DE= 5.41D-10 OVMax= 2.05D-05

 Cycle  11  Pass 1  IDiag  1:
 E= -257.971545823678     Delta-E=       -0.000000002040 Rises=F Damp=F
 DIIS: error= 2.43D-06 at cycle   3 NSaved=   3.
 NSaved= 3 IEnMin= 3 EnMin= -257.971545823678     IErMin= 3 ErrMin= 2.43D-06
 ErrMax= 2.43D-06 EMaxC= 1.00D-01 BMatC= 4.53D-10 BMatP= 1.78D-09
 IDIUse=1 WtCom= 1.00D+00 WtEn= 0.00D+00
 Coeff-Com:  0.186D+00 0.280D+00 0.534D+00
 Coeff:      0.186D+00 0.280D+00 0.534D+00
 Gap=     0.190 Goal=   None    Shift=    0.000
 RMSDP=2.46D-07 MaxDP=6.05D-06 DE=-2.04D-09 OVMax= 9.44D-06

 Cycle  12  Pass 1  IDiag  1:
 E= -257.971545824020     Delta-E=       -0.000000000342 Rises=F Damp=F
 DIIS: error= 5.73D-07 at cycle   4 NSaved=   4.
 NSaved= 4 IEnMin= 4 EnMin= -257.971545824020     IErMin= 4 ErrMin= 5.73D-07
 ErrMax= 5.73D-07 EMaxC= 1.00D-01 BMatC= 2.70D-11 BMatP= 4.53D-10
 IDIUse=1 WtCom= 1.00D+00 WtEn= 0.00D+00
 Coeff-Com:  0.418D-01 0.100D+00 0.274D+00 0.584D+00
 Coeff:      0.418D-01 0.100D+00 0.274D+00 0.584D+00
 Gap=     0.190 Goal=   None    Shift=    0.000
 RMSDP=1.02D-07 MaxDP=1.74D-06 DE=-3.42D-10 OVMax= 3.81D-06

 Cycle  13  Pass 1  IDiag  1:
 E= -257.971545824030     Delta-E=       -0.000000000010 Rises=F Damp=F
 DIIS: error= 4.45D-07 at cycle   5 NSaved=   5.
 NSaved= 5 IEnMin= 5 EnMin= -257.971545824030     IErMin= 5 ErrMin= 4.45D-07
 ErrMax= 4.45D-07 EMaxC= 1.00D-01 BMatC= 1.54D-11 BMatP= 2.70D-11
 IDIUse=1 WtCom= 1.00D+00 WtEn= 0.00D+00
 Coeff-Com:  0.258D-03 0.299D-01 0.121D+00 0.453D+00 0.395D+00
 Coeff:      0.258D-03 0.299D-01 0.121D+00 0.453D+00 0.395D+00
 Gap=     0.190 Goal=   None    Shift=    0.000
 RMSDP=5.43D-08 MaxDP=7.71D-07 DE=-9.83D-12 OVMax= 1.50D-06

 Cycle  14  Pass 1  IDiag  1:
 E= -257.971545824044     Delta-E=       -0.000000000015 Rises=F Damp=F
 DIIS: error= 9.61D-08 at cycle   6 NSaved=   6.
 NSaved= 6 IEnMin= 6 EnMin= -257.971545824044     IErMin= 6 ErrMin= 9.61D-08
 ErrMax= 9.61D-08 EMaxC= 1.00D-01 BMatC= 7.69D-13 BMatP= 1.54D-11
 IDIUse=1 WtCom= 1.00D+00 WtEn= 0.00D+00
 Coeff-Com: -0.132D-02 0.177D-01 0.762D-01 0.300D+00 0.279D+00 0.328D+00
 Coeff:     -0.132D-02 0.177D-01 0.762D-01 0.300D+00 0.279D+00 0.328D+00
 Gap=     0.190 Goal=   None    Shift=    0.000
 RMSDP=1.09D-08 MaxDP=2.14D-07 DE=-1.47D-11 OVMax= 4.11D-07

 Cycle  15  Pass 1  IDiag  1:
 E= -257.971545824046     Delta-E=       -0.000000000002 Rises=F Damp=F
 DIIS: error= 1.56D-08 at cycle   7 NSaved=   7.
 NSaved= 7 IEnMin= 7 EnMin= -257.971545824046     IErMin= 7 ErrMin= 1.56D-08
 ErrMax= 1.56D-08 EMaxC= 1.00D-01 BMatC= 2.16D-14 BMatP= 7.69D-13
 IDIUse=1 WtCom= 1.00D+00 WtEn= 0.00D+00
 Coeff-Com: -0.571D-03 0.598D-02 0.259D-01 0.105D+00 0.102D+00 0.187D+00
 Coeff-Com:  0.575D+00
 Coeff:     -0.571D-03 0.598D-02 0.259D-01 0.105D+00 0.102D+00 0.187D+00
 Coeff:      0.575D+00
 Gap=     0.190 Goal=   None    Shift=    0.000
 RMSDP=2.99D-09 MaxDP=4.90D-08 DE=-2.10D-12 OVMax= 8.32D-08

 SCF Done:  E(RPBE-PBE) =  -257.971545824     A.U. after   15 cycles
             Convg  =    0.2987D-08             -V/T =  2.0070
             S**2   =   0.0000
 KE= 2.561837842134D+02 PE=-9.415859429698D+02 EE= 2.576017899566D+02
 Leave Link  502 at Fri Feb 17 07:14:35 2006, MaxMem=   56000000 cpu:      32.1
 (Enter /usr/local/gaussian03-rev-C02-64/g03/l601.exe)
 Copying SCF densities to generalized density rwf, ISCF=0 IROHF=0.

 **********************************************************************

            Population analysis using the SCF density.

 **********************************************************************

 Orbital symmetries:
       Occupied  (A') (A') (A') (A') (A') (A') (A') (A') (A') (A')
                 (A') (A") (A') (A') (A") (A") (A') (A')
       Virtual   (A") (A") (A') (A') (A') (A') (A') (A') (A') (A')
                 (A") (A') (A') (A') (A") (A') (A') (A") (A') (A")
                 (A') (A") (A') (A') (A') (A') (A') (A') (A') (A")
                 (A") (A") (A') (A') (A") (A") (A') (A') (A') (A')
                 (A') (A') (A") (A") (A') (A') (A") (A") (A') (A')
                 (A") (A') (A') (A') (A') (A') (A') (A') (A') (A')
                 (A')
 The electronic state is 1-A'.
 Alpha  occ. eigenvalues --  -14.11290 -14.06961 -14.05152 -14.02462  -9.97981
 Alpha  occ. eigenvalues --   -1.07913  -0.87802  -0.82849  -0.62660  -0.61384
 Alpha  occ. eigenvalues --   -0.55021  -0.45922  -0.45455  -0.32890  -0.29864
 Alpha  occ. eigenvalues --   -0.28156  -0.24942  -0.23280
 Alpha virt. eigenvalues --   -0.04259  -0.00826   0.03588   0.08800   0.15611
 Alpha virt. eigenvalues --    0.17905   0.26625   0.29797   0.38560   0.47872
 Alpha virt. eigenvalues --    0.47965   0.55740   0.56365   0.61257   0.62322
 Alpha virt. eigenvalues --    0.62663   0.64970   0.66308   0.69373   0.74628
 Alpha virt. eigenvalues --    0.77246   0.78870   0.80650   0.82135   0.89002
 Alpha virt. eigenvalues --    0.96005   1.00230   1.04256   1.18252   1.20968
 Alpha virt. eigenvalues --    1.27479   1.30740   1.35032   1.41515   1.48803
 Alpha virt. eigenvalues --    1.50647   1.59719   1.80665   1.87957   1.96894
 Alpha virt. eigenvalues --    2.00131   2.10626   2.12366   2.17928   2.26163
 Alpha virt. eigenvalues --    2.29835   2.31300   2.38198   2.47817   2.48656
 Alpha virt. eigenvalues --    2.57441   2.59893   2.64680   2.88806   2.92527
 Alpha virt. eigenvalues --    2.96419   3.42871   3.54713   3.88916   3.96813
 Alpha virt. eigenvalues --    4.07753
          Condensed to atoms (all electrons):
              1          2          3          4          5          6
     1  N    6.737833   0.252674  -0.080965   0.008075   0.261231  -0.100218
     2  N    0.252674   6.820118   0.177463  -0.025306  -0.074212  -0.120238
     3  N   -0.080965   0.177463   6.818772   0.298371  -0.072007   0.299831
     4  H    0.008075  -0.025306   0.298371   0.381389   0.007218  -0.027460
     5  N    0.261231  -0.074212  -0.072007   0.007218   6.801169   0.403986
     6  C   -0.100218  -0.120238   0.299831  -0.027460   0.403986   4.917954
     7  H    0.005474   0.003392  -0.046485   0.001526  -0.032186   0.374576
              7
     1  N    0.005474
     2  N    0.003392
     3  N   -0.046485
     4  H    0.001526
     5  N   -0.032186
     6  C    0.374576
     7  H    0.493282
 Mulliken atomic charges:
              1
     1  N   -0.084104
     2  N   -0.033890
     3  N   -0.394980
     4  H    0.356186
     5  N   -0.295199
     6  C    0.251567
     7  H    0.200420
 Sum of Mulliken charges=   0.00000
 Atomic charges with hydrogens summed into heavy atoms:
              1
     1  N   -0.084104
     2  N   -0.033890
     3  N   -0.038794
     4  H    0.000000
     5  N   -0.295199
     6  C    0.451988
     7  H    0.000000
 Sum of Mulliken charges=   0.00000
 Electronic spatial extent (au):  <R**2>=   243.6002
 Charge=     0.0000 electrons
 Dipole moment (field-independent basis, Debye):
    X=     2.3535    Y=     4.6094    Z=     0.0000  Tot=     5.1755
 Quadrupole moment (field-independent basis, Debye-Ang):
   XX=   -28.5731   YY=   -25.9726   ZZ=   -27.7912
   XY=     1.6424   XZ=     0.0000   YZ=     0.0000
 Traceless Quadrupole moment (field-independent basis, Debye-Ang):
   XX=    -1.1274   YY=     1.4730   ZZ=    -0.3456
   XY=     1.6424   XZ=     0.0000   YZ=     0.0000
 Octapole moment (field-independent basis, Debye-Ang**2):
  XXX=    10.6838  YYY=    20.9537  ZZZ=     0.0000  XYY=    -0.6222
  XXY=     4.1348  XXZ=     0.0000  XZZ=    -0.6637  YZZ=     0.4694
  YYZ=     0.0000  XYZ=     0.0000
 Hexadecapole moment (field-independent basis, Debye-Ang**3):
 XXXX=  -137.5871 YYYY=  -115.8096 ZZZZ=   -23.8644 XXXY=     5.7039
 XXXZ=     0.0000 YYYX=    -0.6149 YYYZ=     0.0000 ZZZX=     0.0000
 ZZZY=     0.0000 XXYY=   -51.1984 XXZZ=   -28.9690 YYZZ=   -27.2761
 XXYZ=     0.0000 YYXZ=     0.0000 ZZXY=    -0.1764
 N-N= 1.698288229759D+02 E-N=-9.415859436556D+02  KE= 2.561837842134D+02
 Symmetry A'   KE= 2.466281144058D+02
 Symmetry A"   KE= 9.555669807513D+00
 No NMR shielding tensors so no spin-rotation constants.
 Leave Link  601 at Fri Feb 17 07:14:36 2006, MaxMem=   56000000 cpu:       0.2
 (Enter /usr/local/gaussian03-rev-C02-64/g03/l701.exe)
 Compute integral first derivatives.
 ... and contract with generalized density number  0.
 Leave Link  701 at Fri Feb 17 07:14:37 2006, MaxMem=   56000000 cpu:       0.2
 (Enter /usr/local/gaussian03-rev-C02-64/g03/l702.exe)
 L702 exits ... SP integral derivatives will be done elsewhere.
 Leave Link  702 at Fri Feb 17 07:14:38 2006, MaxMem=   56000000 cpu:       0.0
 (Enter /usr/local/gaussian03-rev-C02-64/g03/l703.exe)
 Compute integral first derivatives, UseDBF=F.
 Integral derivatives from FoFDir, PRISM(SPDF).
 Calling FoFCou, ICntrl=  2527 FMM=F ISym2X=1 I1Cent= 0 ISCF1= 0.
 FoFCou: FMM=F IPFlag=           0 FMFlag=           0 FMFlg1=           0
 NFxFlg=           0 DoJE=F BraDBF=F KetDBF=F FulRan=T.
 Petite list used in FoFCou.
 Leave Link  703 at Fri Feb 17 07:14:49 2006, MaxMem=   56000000 cpu:      10.3
 (Enter /usr/local/gaussian03-rev-C02-64/g03/l716.exe)
 Dipole        = 9.25922930D-01 1.81348357D+00 0.00000000D+00
 ***** Axes restored to original set *****
 -------------------------------------------------------------------
 Center     Atomic                   Forces (Hartrees/Bohr)
 Number     Number              X              Y              Z
 -------------------------------------------------------------------
    1          7          -0.011566101   -0.057201553    0.000000000
    2          7          -0.050288908    0.042289490    0.000000000
    3          7           0.006462502    0.014404296    0.000000000
    4          1          -0.001750078    0.022592969    0.000000000
    5          7           0.018238625   -0.045098529    0.000000000
    6          6           0.024615886    0.018317726    0.000000000
    7          1           0.014288073    0.004695602    0.000000000
 -------------------------------------------------------------------
 Cartesian Forces:  Max     0.057201553 RMS     0.023924607
 Leave Link  716 at Fri Feb 17 07:14:50 2006, MaxMem=   56000000 cpu:       0.0
 (Enter /usr/local/gaussian03-rev-C02-64/g03/l103.exe)

 GradGradGradGradGradGradGradGradGradGradGradGradGradGradGradGradGradGrad
 Berny optimization.
 Internal  Forces:  Max     0.061901573 RMS     0.019569522
 Search for a local minimum.
 Step number   1 out of a maximum of  36
 All quantities printed in internal units (Hartrees-Bohrs-Radians)
 Second derivative matrix not updated -- first step.
     Eigenvalues ---    0.02505   0.02639   0.02674   0.02834   0.16000
     Eigenvalues ---    0.16000   0.22605   0.24688   0.37515   0.48737
     Eigenvalues ---    0.50885   0.56605   0.58506   0.66912   0.78894
     Eigenvalues --- 1000.000001000.000001000.000001000.000001000.00000
     Eigenvalues --- 1000.000001000.000001000.000001000.000001000.00000
     Eigenvalues --- 1000.00000
 RFO step:  Lambda=-1.45627323D-02.
 Linear search not attempted -- first point.
 Iteration  1 RMS(Cart)=  0.03145678 RMS(Int)=  0.00006870
 Iteration  2 RMS(Cart)=  0.00006311 RMS(Int)=  0.00002698
 Iteration  3 RMS(Cart)=  0.00000000 RMS(Int)=  0.00002698
 Variable       Old X    -DE/DX   Delta X   Delta X   Delta X     New X
                                 (Linear)    (Quad)   (Total)
    R1        2.36623   0.06190   0.00000   0.07573   0.07577   2.44200
    R2        2.53474   0.03121   0.00000   0.05531   0.05533   2.59006
    R3        2.50608   0.03460   0.00000   0.05589   0.05590   2.56198
    R4        1.87862   0.02266   0.00000   0.04514   0.04514   1.92376
    R5        2.51368   0.03312   0.00000   0.05169   0.05165   2.56532
    R6        2.43647   0.04540   0.00000   0.06192   0.06190   2.49837
    R7        2.01777   0.01504   0.00000   0.03859   0.03859   2.05636
    A1        1.94380  -0.00199   0.00000   0.00338   0.00344   1.94724
    A2        1.86179  -0.00413   0.00000  -0.00927  -0.00922   1.85257
    A3        2.10759  -0.00195   0.00000  -0.00506  -0.00504   2.10255
    A4        1.88535   0.00324   0.00000   0.00637   0.00633   1.89168
    A5        2.29024  -0.00129   0.00000  -0.00131  -0.00129   2.28895
    A6        1.84604  -0.00067   0.00000  -0.00448  -0.00450   1.84154
    A7        1.88780   0.00355   0.00000   0.00401   0.00395   1.89174
    A8        2.18241  -0.00201   0.00000  -0.00338  -0.00335   2.17906
    A9        2.21298  -0.00153   0.00000  -0.00063  -0.00060   2.21238
    D1        0.00000   0.00000   0.00000   0.00000   0.00000   0.00000
    D2        0.00000   0.00000   0.00000   0.00000   0.00000   0.00000
    D3        3.14159   0.00000   0.00000   0.00000   0.00000   3.14159
    D4        0.00000   0.00000   0.00000   0.00000   0.00000   0.00000
    D5        0.00000   0.00000   0.00000   0.00000   0.00000   0.00000
    D6        3.14159   0.00000   0.00000   0.00000   0.00000   3.14159
    D7        3.14159   0.00000   0.00000   0.00000   0.00000   3.14159
    D8        0.00000   0.00000   0.00000   0.00000   0.00000   0.00000
    D9        0.00000   0.00000   0.00000   0.00000   0.00000   0.00000
   D10        3.14159   0.00000   0.00000   0.00000   0.00000   3.14159
         Item               Value     Threshold  Converged?
 Maximum Force            0.061902     0.000450     NO 
 RMS     Force            0.019570     0.000300     NO 
 Maximum Displacement     0.073856     0.001800     NO 
 RMS     Displacement     0.031441     0.001200     NO 
 Predicted change in Energy=-7.441952D-03
 GradGradGradGradGradGradGradGradGradGradGradGradGradGradGradGradGradGrad

 Leave Link  103 at Fri Feb 17 07:14:50 2006, MaxMem=   56000000 cpu:       0.2
 (Enter /usr/local/gaussian03-rev-C02-64/g03/l202.exe)
                          Input orientation:                          
 ---------------------------------------------------------------------
 Center     Atomic     Atomic              Coordinates (Angstroms)
 Number     Number      Type              X           Y           Z
 ---------------------------------------------------------------------
    1          7             0       -0.735122   -0.933224    0.000000
    2          7             0       -1.129680    0.297318    0.000000
    3          7             0       -0.004695    1.053918    0.000000
    4          1             0       -0.066051    2.070077    0.000000
    5          7             0        0.632481   -1.023843    0.000000
    6          6             0        1.069515    0.223912    0.000000
    7          1             0        2.107574    0.550358    0.000000
 ---------------------------------------------------------------------
                    Distance matrix (angstroms):
                    1          2          3          4          5
     1  N    0.000000
     2  N    1.292250   0.000000
     3  N    2.117134   1.355741   0.000000
     4  H    3.076926   2.067360   1.018010   0.000000
     5  N    1.370601   2.202425   2.173266   3.171796   0.000000
     6  C    2.143754   2.200420   1.357511   2.167449   1.322079
     7  H    3.206546   3.247128   2.171464   2.652205   2.157316
                    6          7
     6  C    0.000000
     7  H    1.088179   0.000000
 Stoichiometry    CH2N4
 Framework group  CS[SG(CH2N4)]
 Deg. of freedom    11
 Full point group                 CS      NOp   2
 Largest Abelian subgroup         CS      NOp   2
 Largest concise Abelian subgroup C1      NOp   1
                         Standard orientation:                         
 ---------------------------------------------------------------------
 Center     Atomic     Atomic              Coordinates (Angstroms)
 Number     Number      Type              X           Y           Z
 ---------------------------------------------------------------------
    1          7             0       -0.728790   -0.926133    0.000000
    2          7             0       -1.124361    0.304084    0.000000
    3          7             0        0.000000    1.061610    0.000000
    4          1             0       -0.062193    2.077718    0.000000
    5          7             0        0.638886   -1.015626    0.000000
    6          6             0        1.074894    0.232490    0.000000
    7          1             0        2.112684    0.559790    0.000000
 ---------------------------------------------------------------------
 Rotational constants (GHZ):     10.4263573     10.2219201      5.1615633
 Leave Link  202 at Fri Feb 17 07:14:51 2006, MaxMem=   56000000 cpu:       0.1
 (Enter /usr/local/gaussian03-rev-C02-64/g03/l301.exe)
 Standard basis: 6-31G(d) (6D, 7F)
 There are    59 symmetry adapted basis functions of A'  symmetry.
 There are    20 symmetry adapted basis functions of A"  symmetry.
 Integral buffers will be    131072 words long.
 Raffenetti 2 integral format.
 Two-electron integral symmetry is turned on.
    79 basis functions,   148 primitive gaussians,    79 cartesian basis functions
    18 alpha electrons       18 beta electrons
       nuclear repulsion energy       165.8164227134 Hartrees.
 IExCor=1009 DFT=T Ex=PBE Corr=PBE ExCW=0 ScaHFX=  0.000000
 ScaDFX=  1.000000  1.000000  1.000000  1.000000
 IRadAn=      5 IRanWt=     -1 IRanGd=            0 ICorTp=0
 NAtoms=    7 NActive=    7 NUniq=    7 SFac= 1.00D+00 NAtFMM=   60 Big=F
 Leave Link  301 at Fri Feb 17 07:14:52 2006, MaxMem=   56000000 cpu:       0.0
 (Enter /usr/local/gaussian03-rev-C02-64/g03/l302.exe)
 NPDir=0 NMtPBC=     1 NCelOv=     1 NCel=       1 NClECP=     1 NCelD=      1
         NCelK=      1 NCelE2=     1 NClLst=     1 CellRange=     0.0.
 One-electron integrals computed using PRISM.
 NBasis=    79 RedAO= T  NBF=    59    20
 NBsUse=    79 1.00D-06 NBFU=    59    20
 Precomputing XC quadrature grid using
 IXCGrd= 2 IRadAn=           5 IRanWt=          -1 IRanGd=           0.
 NRdTot=     565 NPtTot=      151932 NUsed=      155916 NTot=      155948
 NSgBfM=    79    79    79    79.
 Leave Link  302 at Fri Feb 17 07:14:53 2006, MaxMem=   56000000 cpu:       0.4
 (Enter /usr/local/gaussian03-rev-C02-64/g03/l303.exe)
 DipDrv:  MaxL=1.
 Leave Link  303 at Fri Feb 17 07:14:54 2006, MaxMem=   56000000 cpu:       0.0
 (Enter /usr/local/gaussian03-rev-C02-64/g03/l401.exe)
 Initial guess read from the read-write file:
 Guess basis will be translated and rotated to current coordinates.
 Initial guess orbital symmetries:
       Occupied  (A') (A') (A') (A') (A') (A') (A') (A') (A') (A')
                 (A') (A") (A') (A') (A") (A") (A') (A')
       Virtual   (A") (A") (A') (A') (A') (A') (A') (A') (A') (A')
                 (A") (A') (A') (A') (A") (A') (A') (A") (A') (A")
                 (A') (A") (A') (A') (A') (A') (A') (A') (A') (A")
                 (A") (A") (A') (A') (A") (A") (A') (A') (A') (A')
                 (A') (A') (A") (A") (A') (A') (A") (A") (A') (A')
                 (A") (A') (A') (A') (A') (A') (A') (A') (A') (A')
                 (A')
 The electronic state of the initial guess is 1-A'.
 Generating alternative initial guess.
 Harris functional with IExCor= 1009 diagonalized for initial guess.
 ExpMin= 1.61D-01 ExpMax= 4.17D+03 ExpMxC= 6.27D+02 IAcc=3 IRadAn=         5 AccDes= 0.00D+00
 HarFok:  IExCor=1009 AccDes= 0.00D+00 IRadAn=         5 IDoV=1
 ScaDFX=  1.000000  1.000000  1.000000  1.000000
 Harris En= -258.052510611714    
 Leave Link  401 at Fri Feb 17 07:14:57 2006, MaxMem=   56000000 cpu:       2.5
 (Enter /usr/local/gaussian03-rev-C02-64/g03/l502.exe)
 Closed shell SCF:
 Requested convergence on RMS density matrix=1.00D-08 within 128 cycles.
 Requested convergence on MAX density matrix=1.00D-06.
 Requested convergence on             energy=1.00D-06.
 No special actions if energy rises.
 Using DIIS extrapolation, IDIIS=  1040.
 Integral symmetry usage will be decided dynamically.
       155915 words used for storage of precomputed grid.
 Keep R1 integrals in memory in canonical form, NReq=     6266191.
 IEnd=    195837 IEndB=    195837 NGot=  56000000 MDV=  50832730
 LenX=  50832730
 Symmetry not used in FoFDir.
 MinBra= 0 MaxBra= 2 Meth= 1.
 IRaf=       0 NMat=   1 IRICut=       1 DoRegI=T DoRafI=F ISym2E= 0 JSym2E=0.
 Integral accuracy reduced to 1.0D-05 until final iterations.

 Cycle   1  Pass 0  IDiag  1:
 E= -257.977086722360    
 DIIS: error= 3.36D-03 at cycle   1 NSaved=   1.
 NSaved= 1 IEnMin= 1 EnMin= -257.977086722360     IErMin= 1 ErrMin= 3.36D-03
 ErrMax= 3.36D-03 EMaxC= 1.00D-01 BMatC= 1.64D-03 BMatP= 1.64D-03
 IDIUse=3 WtCom= 9.66D-01 WtEn= 3.36D-02
 Coeff-Com:  0.100D+01
 Coeff-En:   0.100D+01
 Coeff:      0.100D+01
 Gap=     0.190 Goal=   None    Shift=    0.000
 GapD=    0.190 DampG=1.000 DampE=1.000 DampFc=1.0000 IDamp=-1.
 RMSDP=1.20D-03 MaxDP=1.77D-02              OVMax= 1.85D-02

 Cycle   2  Pass 0  IDiag  1:
 E= -257.978940308946     Delta-E=       -0.001853586587 Rises=F Damp=F
 DIIS: error= 1.82D-03 at cycle   2 NSaved=   2.
 NSaved= 2 IEnMin= 2 EnMin= -257.978940308946     IErMin= 2 ErrMin= 1.82D-03
 ErrMax= 1.82D-03 EMaxC= 1.00D-01 BMatC= 4.61D-04 BMatP= 1.64D-03
 IDIUse=3 WtCom= 9.82D-01 WtEn= 1.82D-02
 Coeff-Com:  0.301D+00 0.699D+00
 Coeff-En:   0.000D+00 0.100D+01
 Coeff:      0.296D+00 0.704D+00
 Gap=     0.185 Goal=   None    Shift=    0.000
 RMSDP=4.69D-04 MaxDP=8.81D-03 DE=-1.85D-03 OVMax= 1.10D-02

 Cycle   3  Pass 0  IDiag  1:
 E= -257.979009279070     Delta-E=       -0.000068970124 Rises=F Damp=F
 DIIS: error= 2.07D-03 at cycle   3 NSaved=   3.
 NSaved= 3 IEnMin= 3 EnMin= -257.979009279070     IErMin= 2 ErrMin= 1.82D-03
 ErrMax= 2.07D-03 EMaxC= 1.00D-01 BMatC= 3.95D-04 BMatP= 4.61D-04
 IDIUse=3 WtCom= 9.79D-01 WtEn= 2.07D-02
 Coeff-Com:  0.852D-01 0.473D+00 0.441D+00
 Coeff-En:   0.000D+00 0.461D+00 0.539D+00
 Coeff:      0.834D-01 0.473D+00 0.443D+00
 Gap=     0.188 Goal=   None    Shift=    0.000
 RMSDP=3.27D-04 MaxDP=6.03D-03 DE=-6.90D-05 OVMax= 1.05D-02

 Cycle   4  Pass 0  IDiag  1:
 E= -257.979263607561     Delta-E=       -0.000254328491 Rises=F Damp=F
 DIIS: error= 1.16D-03 at cycle   4 NSaved=   4.
 NSaved= 4 IEnMin= 4 EnMin= -257.979263607561     IErMin= 4 ErrMin= 1.16D-03
 ErrMax= 1.16D-03 EMaxC= 1.00D-01 BMatC= 1.05D-04 BMatP= 3.95D-04
 IDIUse=3 WtCom= 9.88D-01 WtEn= 1.16D-02
 Coeff-Com:  0.137D-01 0.251D+00 0.348D+00 0.387D+00
 Coeff-En:   0.000D+00 0.000D+00 0.253D+00 0.747D+00
 Coeff:      0.136D-01 0.248D+00 0.347D+00 0.391D+00
 Gap=     0.187 Goal=   None    Shift=    0.000
 RMSDP=1.44D-04 MaxDP=2.25D-03 DE=-2.54D-04 OVMax= 4.41D-03

 Cycle   5  Pass 0  IDiag  1:
 E= -257.979359686108     Delta-E=       -0.000096078547 Rises=F Damp=F
 DIIS: error= 3.48D-04 at cycle   5 NSaved=   5.
 NSaved= 5 IEnMin= 5 EnMin= -257.979359686108     IErMin= 5 ErrMin= 3.48D-04
 ErrMax= 3.48D-04 EMaxC= 1.00D-01 BMatC= 4.57D-06 BMatP= 1.05D-04
 IDIUse=3 WtCom= 9.97D-01 WtEn= 3.48D-03
 Coeff-Com:  0.522D-02 0.144D+00 0.208D+00 0.264D+00 0.379D+00
 Coeff-En:   0.000D+00 0.000D+00 0.000D+00 0.000D+00 0.100D+01
 Coeff:      0.521D-02 0.143D+00 0.207D+00 0.263D+00 0.381D+00
 Gap=     0.187 Goal=   None    Shift=    0.000
 RMSDP=2.99D-05 MaxDP=7.59D-04 DE=-9.61D-05 OVMax= 1.23D-03

 Cycle   6  Pass 0  IDiag  1:
 E= -257.979363040575     Delta-E=       -0.000003354467 Rises=F Damp=F
 DIIS: error= 1.36D-04 at cycle   6 NSaved=   6.
 NSaved= 6 IEnMin= 6 EnMin= -257.979363040575     IErMin= 6 ErrMin= 1.36D-04
 ErrMax= 1.36D-04 EMaxC= 1.00D-01 BMatC= 7.97D-07 BMatP= 4.57D-06
 IDIUse=3 WtCom= 9.99D-01 WtEn= 1.36D-03
 Coeff-Com:  0.691D-03 0.428D-01 0.657D-01 0.101D+00 0.298D+00 0.491D+00
 Coeff-En:   0.000D+00 0.000D+00 0.000D+00 0.000D+00 0.194D+00 0.806D+00
 Coeff:      0.690D-03 0.427D-01 0.656D-01 0.101D+00 0.298D+00 0.492D+00
 Gap=     0.187 Goal=   None    Shift=    0.000
 RMSDP=1.15D-05 MaxDP=2.62D-04 DE=-3.35D-06 OVMax= 4.67D-04

 Cycle   7  Pass 0  IDiag  1:
 E= -257.979363741333     Delta-E=       -0.000000700758 Rises=F Damp=F
 DIIS: error= 1.73D-05 at cycle   7 NSaved=   7.
 NSaved= 7 IEnMin= 7 EnMin= -257.979363741333     IErMin= 7 ErrMin= 1.73D-05
 ErrMax= 1.73D-05 EMaxC= 1.00D-01 BMatC= 2.92D-08 BMatP= 7.97D-07
 IDIUse=1 WtCom= 1.00D+00 WtEn= 0.00D+00
 Coeff-Com:  0.189D-03 0.194D-01 0.308D-01 0.483D-01 0.160D+00 0.291D+00
 Coeff-Com:  0.451D+00
 Coeff:      0.189D-03 0.194D-01 0.308D-01 0.483D-01 0.160D+00 0.291D+00
 Coeff:      0.451D+00
 Gap=     0.187 Goal=   None    Shift=    0.000
 RMSDP=2.86D-06 MaxDP=5.12D-05 DE=-7.01D-07 OVMax= 8.40D-05

 Initial convergence to 1.0D-05 achieved.  Increase integral accuracy.
 Cycle   8  Pass 1  IDiag  1:
 E= -257.979363407328     Delta-E=        0.000000334006 Rises=F Damp=F
 DIIS: error= 1.04D-05 at cycle   1 NSaved=   1.
 NSaved= 1 IEnMin= 1 EnMin= -257.979363407328     IErMin= 1 ErrMin= 1.04D-05
 ErrMax= 1.04D-05 EMaxC= 1.00D-01 BMatC= 5.76D-09 BMatP= 5.76D-09
 IDIUse=1 WtCom= 1.00D+00 WtEn= 0.00D+00
 Coeff-Com:  0.100D+01
 Coeff:      0.100D+01
 Gap=     0.187 Goal=   None    Shift=    0.000
 RMSDP=2.86D-06 MaxDP=5.12D-05 DE= 3.34D-07 OVMax= 9.49D-05

 Cycle   9  Pass 1  IDiag  1:
 E= -257.979363386356     Delta-E=        0.000000020972 Rises=F Damp=F
 DIIS: error= 2.39D-05 at cycle   2 NSaved=   2.
 NSaved= 2 IEnMin= 1 EnMin= -257.979363407328     IErMin= 1 ErrMin= 1.04D-05
 ErrMax= 2.39D-05 EMaxC= 1.00D-01 BMatC= 2.90D-08 BMatP= 5.76D-09
 IDIUse=1 WtCom= 1.00D+00 WtEn= 0.00D+00
 Coeff-Com:  0.698D+00 0.302D+00
 Coeff:      0.698D+00 0.302D+00
 Gap=     0.187 Goal=   None    Shift=    0.000
 RMSDP=2.06D-06 MaxDP=3.43D-05 DE= 2.10D-08 OVMax= 6.91D-05

 Cycle  10  Pass 1  IDiag  1:
 E= -257.979363412387     Delta-E=       -0.000000026031 Rises=F Damp=F
 DIIS: error= 3.61D-06 at cycle   3 NSaved=   3.
 NSaved= 3 IEnMin= 3 EnMin= -257.979363412387     IErMin= 3 ErrMin= 3.61D-06
 ErrMax= 3.61D-06 EMaxC= 1.00D-01 BMatC= 6.40D-10 BMatP= 5.76D-09
 IDIUse=1 WtCom= 1.00D+00 WtEn= 0.00D+00
 Coeff-Com:  0.379D+00 0.182D+00 0.439D+00
 Coeff:      0.379D+00 0.182D+00 0.439D+00
 Gap=     0.187 Goal=   None    Shift=    0.000
 RMSDP=4.23D-07 MaxDP=8.51D-06 DE=-2.60D-08 OVMax= 1.71D-05

 Cycle  11  Pass 1  IDiag  1:
 E= -257.979363412718     Delta-E=       -0.000000000331 Rises=F Damp=F
 DIIS: error= 2.52D-06 at cycle   4 NSaved=   4.
 NSaved= 4 IEnMin= 4 EnMin= -257.979363412718     IErMin= 4 ErrMin= 2.52D-06
 ErrMax= 2.52D-06 EMaxC= 1.00D-01 BMatC= 2.76D-10 BMatP= 6.40D-10
 IDIUse=1 WtCom= 1.00D+00 WtEn= 0.00D+00
 Coeff-Com:  0.682D-01 0.426D-01 0.382D+00 0.507D+00
 Coeff:      0.682D-01 0.426D-01 0.382D+00 0.507D+00
 Gap=     0.187 Goal=   None    Shift=    0.000
 RMSDP=2.05D-07 MaxDP=3.90D-06 DE=-3.31D-10 OVMax= 7.02D-06

 Cycle  12  Pass 1  IDiag  1:
 E= -257.979363412943     Delta-E=       -0.000000000225 Rises=F Damp=F
 DIIS: error= 6.39D-07 at cycle   5 NSaved=   5.
 NSaved= 5 IEnMin= 5 EnMin= -257.979363412943     IErMin= 5 ErrMin= 6.39D-07
 ErrMax= 6.39D-07 EMaxC= 1.00D-01 BMatC= 2.26D-11 BMatP= 2.76D-10
 IDIUse=1 WtCom= 1.00D+00 WtEn= 0.00D+00
 Coeff-Com:  0.183D-01 0.150D-01 0.223D+00 0.339D+00 0.405D+00
 Coeff:      0.183D-01 0.150D-01 0.223D+00 0.339D+00 0.405D+00
 Gap=     0.187 Goal=   None    Shift=    0.000
 RMSDP=6.58D-08 MaxDP=1.41D-06 DE=-2.25D-10 OVMax= 2.57D-06

 Cycle  13  Pass 1  IDiag  1:
 E= -257.979363412957     Delta-E=       -0.000000000015 Rises=F Damp=F
 DIIS: error= 2.40D-07 at cycle   6 NSaved=   6.
 NSaved= 6 IEnMin= 6 EnMin= -257.979363412957     IErMin= 6 ErrMin= 2.40D-07
 ErrMax= 2.40D-07 EMaxC= 1.00D-01 BMatC= 3.19D-12 BMatP= 2.26D-11
 IDIUse=1 WtCom= 1.00D+00 WtEn= 0.00D+00
 Coeff-Com: -0.312D-03 0.245D-02 0.905D-01 0.151D+00 0.286D+00 0.470D+00
 Coeff:     -0.312D-03 0.245D-02 0.905D-01 0.151D+00 0.286D+00 0.470D+00
 Gap=     0.187 Goal=   None    Shift=    0.000
 RMSDP=2.08D-08 MaxDP=3.65D-07 DE=-1.46D-11 OVMax= 6.61D-07

 Cycle  14  Pass 1  IDiag  1:
 E= -257.979363412961     Delta-E=       -0.000000000004 Rises=F Damp=F
 DIIS: error= 2.32D-08 at cycle   7 NSaved=   7.
 NSaved= 7 IEnMin= 7 EnMin= -257.979363412961     IErMin= 7 ErrMin= 2.32D-08
 ErrMax= 2.32D-08 EMaxC= 1.00D-01 BMatC= 8.70D-14 BMatP= 3.19D-12
 IDIUse=1 WtCom= 1.00D+00 WtEn= 0.00D+00
 Coeff-Com: -0.704D-03 0.881D-03 0.424D-01 0.706D-01 0.145D+00 0.269D+00
 Coeff-Com:  0.473D+00
 Coeff:     -0.704D-03 0.881D-03 0.424D-01 0.706D-01 0.145D+00 0.269D+00
 Coeff:      0.473D+00
 Gap=     0.187 Goal=   None    Shift=    0.000
 RMSDP=4.84D-09 MaxDP=8.36D-08 DE=-3.87D-12 OVMax= 1.62D-07

 SCF Done:  E(RPBE-PBE) =  -257.979363413     A.U. after   14 cycles
             Convg  =    0.4840D-08             -V/T =  2.0090
             S**2   =   0.0000
 KE= 2.556898396216D+02 PE=-9.332904911817D+02 EE= 2.538048654338D+02
 Leave Link  502 at Fri Feb 17 07:15:26 2006, MaxMem=   56000000 cpu:      28.3
 (Enter /usr/local/gaussian03-rev-C02-64/g03/l701.exe)
 Compute integral first derivatives.
 ... and contract with generalized density number  0.
 Leave Link  701 at Fri Feb 17 07:15:27 2006, MaxMem=   56000000 cpu:       0.2
 (Enter /usr/local/gaussian03-rev-C02-64/g03/l702.exe)
 L702 exits ... SP integral derivatives will be done elsewhere.
 Leave Link  702 at Fri Feb 17 07:15:27 2006, MaxMem=   56000000 cpu:       0.0
 (Enter /usr/local/gaussian03-rev-C02-64/g03/l703.exe)
 Compute integral first derivatives, UseDBF=F.
 Integral derivatives from FoFDir, PRISM(SPDF).
 Calling FoFCou, ICntrl=  2527 FMM=F ISym2X=1 I1Cent= 0 ISCF1= 0.
 FoFCou: FMM=F IPFlag=           0 FMFlag=           0 FMFlg1=           0
 NFxFlg=           0 DoJE=F BraDBF=F KetDBF=F FulRan=T.
 Petite list used in FoFCou.
 Leave Link  703 at Fri Feb 17 07:15:38 2006, MaxMem=   56000000 cpu:       9.7
 (Enter /usr/local/gaussian03-rev-C02-64/g03/l716.exe)
 Dipole        = 9.44076152D-01 1.82273499D+00 0.00000000D+00
 ***** Axes restored to original set *****
 -------------------------------------------------------------------
 Center     Atomic                   Forces (Hartrees/Bohr)
 Number     Number              X              Y              Z
 -------------------------------------------------------------------
    1          7           0.000402038   -0.010246808    0.000000000
    2          7          -0.009229345    0.009603409    0.000000000
    3          7           0.005519347   -0.001122581    0.000000000
    4          1          -0.000150216    0.000735762    0.000000000
    5          7           0.003008264   -0.003381933    0.000000000
    6          6           0.000749065    0.004316344    0.000000000
    7          1          -0.000299151    0.000095806    0.000000000
 -------------------------------------------------------------------
 Cartesian Forces:  Max     0.010246808 RMS     0.004109397
 Leave Link  716 at Fri Feb 17 07:15:38 2006, MaxMem=   56000000 cpu:       0.0
 (Enter /usr/local/gaussian03-rev-C02-64/g03/l103.exe)

 GradGradGradGradGradGradGradGradGradGradGradGradGradGradGradGradGradGrad
 Berny optimization.
 Internal  Forces:  Max     0.010803560 RMS     0.002661019
 Search for a local minimum.
 Step number   2 out of a maximum of  36
 All quantities printed in internal units (Hartrees-Bohrs-Radians)
 Update second derivatives using D2CorX and points  1  2
 Trust test= 1.05D+00 RLast= 1.49D-01 DXMaxT set to 4.24D-01
     Eigenvalues ---    0.02506   0.02639   0.02675   0.02834   0.15998
     Eigenvalues ---    0.16000   0.22564   0.24603   0.37798   0.48775
     Eigenvalues ---    0.50744   0.55552   0.59278   0.66900   0.73368
     Eigenvalues --- 1000.000001000.000001000.000001000.000001000.00000
     Eigenvalues --- 1000.000001000.000001000.000001000.000001000.00000
     Eigenvalues --- 1000.00000
 RFO step:  Lambda=-1.42207890D-04.
 Quartic linear search produced a step of  0.13399.
 Iteration  1 RMS(Cart)=  0.00460418 RMS(Int)=  0.00001838
 Iteration  2 RMS(Cart)=  0.00001658 RMS(Int)=  0.00000982
 Iteration  3 RMS(Cart)=  0.00000000 RMS(Int)=  0.00000982
 Variable       Old X    -DE/DX   Delta X   Delta X   Delta X     New X
                                 (Linear)    (Quad)   (Total)
    R1        2.44200   0.01080   0.01015   0.00717   0.01734   2.45934
    R2        2.59006   0.00362   0.00741   0.00199   0.00940   2.59946
    R3        2.56198   0.00455   0.00749   0.00233   0.00983   2.57181
    R4        1.92376   0.00074   0.00605  -0.00318   0.00287   1.92663
    R5        2.56532  -0.00066   0.00692  -0.00840  -0.00149   2.56384
    R6        2.49837   0.00359   0.00829  -0.00200   0.00628   2.50464
    R7        2.05636  -0.00026   0.00517  -0.00480   0.00037   2.05673
    A1        1.94724  -0.00093   0.00046   0.00126   0.00173   1.94897
    A2        1.85257  -0.00285  -0.00124  -0.00837  -0.00958   1.84300
    A3        2.10255  -0.00127  -0.00068  -0.00434  -0.00501   2.09754
    A4        1.89168   0.00235   0.00085   0.00755   0.00839   1.90008
    A5        2.28895  -0.00107  -0.00017  -0.00321  -0.00338   2.28557
    A6        1.84154   0.00020  -0.00060  -0.00012  -0.00075   1.84079
    A7        1.89174   0.00123   0.00053  -0.00031   0.00020   1.89194
    A8        2.17906  -0.00080  -0.00045  -0.00105  -0.00149   2.17757
    A9        2.21238  -0.00043  -0.00008   0.00136   0.00129   2.21367
    D1        0.00000   0.00000   0.00000   0.00000   0.00000   0.00000
    D2        0.00000   0.00000   0.00000   0.00000   0.00000   0.00000
    D3        3.14159   0.00000   0.00000   0.00000   0.00000   3.14159
    D4        0.00000   0.00000   0.00000   0.00000   0.00000   0.00000
    D5        0.00000   0.00000   0.00000   0.00000   0.00000   0.00000
    D6        3.14159   0.00000   0.00000   0.00000   0.00000   3.14159
    D7        3.14159   0.00000   0.00000   0.00000   0.00000   3.14159
    D8        0.00000   0.00000   0.00000   0.00000   0.00000   0.00000
    D9        0.00000   0.00000   0.00000   0.00000   0.00000   0.00000
   D10        3.14159   0.00000   0.00000   0.00000   0.00000   3.14159
         Item               Value     Threshold  Converged?
 Maximum Force            0.010804     0.000450     NO 
 RMS     Force            0.002661     0.000300     NO 
 Maximum Displacement     0.015572     0.001800     NO 
 RMS     Displacement     0.004601     0.001200     NO 
 Predicted change in Energy=-1.596653D-04
 GradGradGradGradGradGradGradGradGradGradGradGradGradGradGradGradGradGrad

 Leave Link  103 at Fri Feb 17 07:15:39 2006, MaxMem=   56000000 cpu:       0.0
 (Enter /usr/local/gaussian03-rev-C02-64/g03/l202.exe)
                          Input orientation:                          
 ---------------------------------------------------------------------
 Center     Atomic     Atomic              Coordinates (Angstroms)
 Number     Number      Type              X           Y           Z
 ---------------------------------------------------------------------
    1          7             0       -0.737297   -0.937270    0.000000
    2          7             0       -1.137920    0.300958    0.000000
    3          7             0       -0.003373    1.052600    0.000000
    4          1             0       -0.062855    2.070390    0.000000
    5          7             0        0.635350   -1.026980    0.000000
    6          6             0        1.071417    0.224632    0.000000
    7          1             0        2.108700    0.554184    0.000000
 ---------------------------------------------------------------------
                    Distance matrix (angstroms):
                    1          2          3          4          5
     1  N    0.000000
     2  N    1.301424   0.000000
     3  N    2.120902   1.360942   0.000000
     4  H    3.082351   2.070424   1.019527   0.000000
     5  N    1.375575   2.215379   2.175458   3.175089   0.000000
     6  C    2.149758   2.210655   1.356725   2.166424   1.325400
     7  H    3.213119   3.256480   2.170085   2.648496   2.161212
                    6          7
     6  C    0.000000
     7  H    1.088375   0.000000
 Stoichiometry    CH2N4
 Framework group  CS[SG(CH2N4)]
 Deg. of freedom    11
 Full point group                 CS      NOp   2
 Largest Abelian subgroup         CS      NOp   2
 Largest concise Abelian subgroup C1      NOp   1
                         Standard orientation:                         
 ---------------------------------------------------------------------
 Center     Atomic     Atomic              Coordinates (Angstroms)
 Number     Number      Type              X           Y           Z
 ---------------------------------------------------------------------
    1          7             0       -0.728352   -0.930910    0.000000
    2          7             0       -1.132439    0.306191    0.000000
    3          7             0        0.000000    1.061006    0.000000
    4          1             0       -0.062331    2.078626    0.000000
    5          7             0        0.644541   -1.016778    0.000000
    6          6             0        1.077103    0.236050    0.000000
    7          1             0        2.113459    0.568504    0.000000
 ---------------------------------------------------------------------
 Rotational constants (GHZ):     10.3821681     10.1414974      5.1302108
 Leave Link  202 at Fri Feb 17 07:15:40 2006, MaxMem=   56000000 cpu:       0.1
 (Enter /usr/local/gaussian03-rev-C02-64/g03/l301.exe)
 Standard basis: 6-31G(d) (6D, 7F)
 There are    59 symmetry adapted basis functions of A'  symmetry.
 There are    20 symmetry adapted basis functions of A"  symmetry.
 Integral buffers will be    131072 words long.
 Raffenetti 2 integral format.
 Two-electron integral symmetry is turned on.
    79 basis functions,   148 primitive gaussians,    79 cartesian basis functions
    18 alpha electrons       18 beta electrons
       nuclear repulsion energy       165.3038766483 Hartrees.
 IExCor=1009 DFT=T Ex=PBE Corr=PBE ExCW=0 ScaHFX=  0.000000
 ScaDFX=  1.000000  1.000000  1.000000  1.000000
 IRadAn=      5 IRanWt=     -1 IRanGd=            0 ICorTp=0
 NAtoms=    7 NActive=    7 NUniq=    7 SFac= 1.00D+00 NAtFMM=   60 Big=F
 Leave Link  301 at Fri Feb 17 07:15:41 2006, MaxMem=   56000000 cpu:       0.0
 (Enter /usr/local/gaussian03-rev-C02-64/g03/l302.exe)
 NPDir=0 NMtPBC=     1 NCelOv=     1 NCel=       1 NClECP=     1 NCelD=      1
         NCelK=      1 NCelE2=     1 NClLst=     1 CellRange=     0.0.
 One-electron integrals computed using PRISM.
 NBasis=    79 RedAO= T  NBF=    59    20
 NBsUse=    79 1.00D-06 NBFU=    59    20
 Precomputing XC quadrature grid using
 IXCGrd= 2 IRadAn=           5 IRanWt=          -1 IRanGd=           0.
 NRdTot=     565 NPtTot=      151932 NUsed=      155916 NTot=      155948
 NSgBfM=    79    79    79    79.
 Leave Link  302 at Fri Feb 17 07:15:42 2006, MaxMem=   56000000 cpu:       0.4
 (Enter /usr/local/gaussian03-rev-C02-64/g03/l303.exe)
 DipDrv:  MaxL=1.
 Leave Link  303 at Fri Feb 17 07:15:42 2006, MaxMem=   56000000 cpu:       0.0
 (Enter /usr/local/gaussian03-rev-C02-64/g03/l401.exe)
 Initial guess read from the read-write file:
 Guess basis will be translated and rotated to current coordinates.
 Initial guess orbital symmetries:
       Occupied  (A') (A') (A') (A') (A') (A') (A') (A') (A') (A')
                 (A') (A') (A") (A') (A") (A") (A') (A')
       Virtual   (A") (A") (A') (A') (A') (A') (A') (A') (A') (A')
                 (A") (A') (A') (A') (A') (A") (A') (A") (A') (A")
                 (A') (A") (A') (A') (A') (A') (A') (A') (A') (A")
                 (A") (A") (A') (A') (A") (A") (A') (A') (A') (A')
                 (A') (A') (A") (A") (A') (A') (A") (A") (A') (A')
                 (A") (A') (A') (A') (A') (A') (A') (A') (A') (A')
                 (A')
 The electronic state of the initial guess is 1-A'.
 Leave Link  401 at Fri Feb 17 07:15:43 2006, MaxMem=   56000000 cpu:       0.1
 (Enter /usr/local/gaussian03-rev-C02-64/g03/l502.exe)
 Closed shell SCF:
 Requested convergence on RMS density matrix=1.00D-08 within 128 cycles.
 Requested convergence on MAX density matrix=1.00D-06.
 Requested convergence on             energy=1.00D-06.
 No special actions if energy rises.
 Using DIIS extrapolation, IDIIS=  1040.
 Integral symmetry usage will be decided dynamically.
       155915 words used for storage of precomputed grid.
 Keep R1 integrals in memory in canonical form, NReq=     6266191.
 IEnd=    195837 IEndB=    195837 NGot=  56000000 MDV=  50832730
 LenX=  50832730
 Symmetry not used in FoFDir.
 MinBra= 0 MaxBra= 2 Meth= 1.
 IRaf=       0 NMat=   1 IRICut=       1 DoRegI=T DoRafI=F ISym2E= 0 JSym2E=0.

 Cycle   1  Pass 1  IDiag  1:
 E= -257.979449422747    
 DIIS: error= 6.40D-04 at cycle   1 NSaved=   1.
 NSaved= 1 IEnMin= 1 EnMin= -257.979449422747     IErMin= 1 ErrMin= 6.40D-04
 ErrMax= 6.40D-04 EMaxC= 1.00D-01 BMatC= 6.33D-05 BMatP= 6.33D-05
 IDIUse=3 WtCom= 9.94D-01 WtEn= 6.40D-03
 Coeff-Com:  0.100D+01
 Coeff-En:   0.100D+01
 Coeff:      0.100D+01
 Gap=     0.186 Goal=   None    Shift=    0.000
 RMSDP=2.28D-04 MaxDP=4.50D-03              OVMax= 3.62D-03

 Cycle   2  Pass 1  IDiag  1:
 E= -257.979540504954     Delta-E=       -0.000091082207 Rises=F Damp=F
 DIIS: error= 2.48D-04 at cycle   2 NSaved=   2.
 NSaved= 2 IEnMin= 2 EnMin= -257.979540504954     IErMin= 2 ErrMin= 2.48D-04
 ErrMax= 2.48D-04 EMaxC= 1.00D-01 BMatC= 1.10D-05 BMatP= 6.33D-05
 IDIUse=3 WtCom= 9.98D-01 WtEn= 2.48D-03
 Coeff-Com:  0.218D+00 0.782D+00
 Coeff-En:   0.000D+00 0.100D+01
 Coeff:      0.218D+00 0.782D+00
 Gap=     0.186 Goal=   None    Shift=    0.000
 RMSDP=9.53D-05 MaxDP=1.70D-03 DE=-9.11D-05 OVMax= 2.50D-03

 Cycle   3  Pass 1  IDiag  1:
 E= -257.979530408406     Delta-E=        0.000010096549 Rises=F Damp=F
 DIIS: error= 5.17D-04 at cycle   3 NSaved=   3.
 NSaved= 3 IEnMin= 2 EnMin= -257.979540504954     IErMin= 2 ErrMin= 2.48D-04
 ErrMax= 5.17D-04 EMaxC= 1.00D-01 BMatC= 2.04D-05 BMatP= 1.10D-05
 IDIUse=3 WtCom= 3.06D-01 WtEn= 6.94D-01
 Coeff-Com:  0.427D-01 0.570D+00 0.388D+00
 Coeff-En:   0.000D+00 0.637D+00 0.363D+00
 Coeff:      0.130D-01 0.616D+00 0.371D+00
 Gap=     0.186 Goal=   None    Shift=    0.000
 RMSDP=6.40D-05 MaxDP=1.09D-03 DE= 1.01D-05 OVMax= 2.02D-03

 Cycle   4  Pass 1  IDiag  1:
 E= -257.979549051403     Delta-E=       -0.000018642997 Rises=F Damp=F
 DIIS: error= 1.10D-04 at cycle   4 NSaved=   4.
 NSaved= 4 IEnMin= 4 EnMin= -257.979549051403     IErMin= 4 ErrMin= 1.10D-04
 ErrMax= 1.10D-04 EMaxC= 1.00D-01 BMatC= 1.37D-06 BMatP= 1.10D-05
 IDIUse=3 WtCom= 9.99D-01 WtEn= 1.10D-03
 Coeff-Com:  0.562D-02 0.322D+00 0.240D+00 0.432D+00
 Coeff-En:   0.000D+00 0.000D+00 0.000D+00 0.100D+01
 Coeff:      0.562D-02 0.322D+00 0.240D+00 0.433D+00
 Gap=     0.186 Goal=   None    Shift=    0.000
 RMSDP=1.67D-05 MaxDP=3.14D-04 DE=-1.86D-05 OVMax= 4.23D-04

 Cycle   5  Pass 1  IDiag  1:
 E= -257.979550177800     Delta-E=       -0.000001126397 Rises=F Damp=F
 DIIS: error= 4.46D-05 at cycle   5 NSaved=   5.
 NSaved= 5 IEnMin= 5 EnMin= -257.979550177800     IErMin= 5 ErrMin= 4.46D-05
 ErrMax= 4.46D-05 EMaxC= 1.00D-01 BMatC= 1.25D-07 BMatP= 1.37D-06
 IDIUse=1 WtCom= 1.00D+00 WtEn= 0.00D+00
 Coeff-Com:  0.200D-02 0.187D+00 0.148D+00 0.289D+00 0.373D+00
 Coeff:      0.200D-02 0.187D+00 0.148D+00 0.289D+00 0.373D+00
 Gap=     0.186 Goal=   None    Shift=    0.000
 RMSDP=5.49D-06 MaxDP=8.57D-05 DE=-1.13D-06 OVMax= 1.77D-04

 Cycle   6  Pass 1  IDiag  1:
 E= -257.979550278405     Delta-E=       -0.000000100604 Rises=F Damp=F
 DIIS: error= 1.97D-05 at cycle   6 NSaved=   6.
 NSaved= 6 IEnMin= 6 EnMin= -257.979550278405     IErMin= 6 ErrMin= 1.97D-05
 ErrMax= 1.97D-05 EMaxC= 1.00D-01 BMatC= 2.14D-08 BMatP= 1.25D-07
 IDIUse=1 WtCom= 1.00D+00 WtEn= 0.00D+00
 Coeff-Com:  0.345D-03 0.734D-01 0.647D-01 0.124D+00 0.282D+00 0.456D+00
 Coeff:      0.345D-03 0.734D-01 0.647D-01 0.124D+00 0.282D+00 0.456D+00
 Gap=     0.186 Goal=   None    Shift=    0.000
 RMSDP=2.07D-06 MaxDP=3.44D-05 DE=-1.01D-07 OVMax= 7.00D-05

 Cycle   7  Pass 1  IDiag  1:
 E= -257.979550296827     Delta-E=       -0.000000018422 Rises=F Damp=F
 DIIS: error= 7.00D-06 at cycle   7 NSaved=   7.
 NSaved= 7 IEnMin= 7 EnMin= -257.979550296827     IErMin= 7 ErrMin= 7.00D-06
 ErrMax= 7.00D-06 EMaxC= 1.00D-01 BMatC= 2.71D-09 BMatP= 2.14D-08
 IDIUse=1 WtCom= 1.00D+00 WtEn= 0.00D+00
 Coeff-Com:  0.144D-03 0.319D-01 0.302D-01 0.569D-01 0.162D+00 0.327D+00
 Coeff-Com:  0.392D+00
 Coeff:      0.144D-03 0.319D-01 0.302D-01 0.569D-01 0.162D+00 0.327D+00
 Coeff:      0.392D+00
 Gap=     0.186 Goal=   None    Shift=    0.000
 RMSDP=5.45D-07 MaxDP=1.32D-05 DE=-1.84D-08 OVMax= 1.94D-05

 Cycle   8  Pass 1  IDiag  1:
 E= -257.979550299037     Delta-E=       -0.000000002210 Rises=F Damp=F
 DIIS: error= 8.23D-07 at cycle   8 NSaved=   8.
 NSaved= 8 IEnMin= 8 EnMin= -257.979550299037     IErMin= 8 ErrMin= 8.23D-07
 ErrMax= 8.23D-07 EMaxC= 1.00D-01 BMatC= 7.31D-11 BMatP= 2.71D-09
 IDIUse=1 WtCom= 1.00D+00 WtEn= 0.00D+00
 Coeff-Com: -0.787D-05 0.610D-02 0.618D-02 0.120D-01 0.401D-01 0.977D-01
 Coeff-Com:  0.190D+00 0.648D+00
 Coeff:     -0.787D-05 0.610D-02 0.618D-02 0.120D-01 0.401D-01 0.977D-01
 Coeff:      0.190D+00 0.648D+00
 Gap=     0.186 Goal=   None    Shift=    0.000
 RMSDP=1.30D-07 MaxDP=2.03D-06 DE=-2.21D-09 OVMax= 2.86D-06

 Cycle   9  Pass 1  IDiag  1:
 E= -257.979550299094     Delta-E=       -0.000000000057 Rises=F Damp=F
 DIIS: error= 3.44D-07 at cycle   9 NSaved=   9.
 NSaved= 9 IEnMin= 9 EnMin= -257.979550299094     IErMin= 9 ErrMin= 3.44D-07
 ErrMax= 3.44D-07 EMaxC= 1.00D-01 BMatC= 1.14D-11 BMatP= 7.31D-11
 IDIUse=1 WtCom= 1.00D+00 WtEn= 0.00D+00
 Coeff-Com: -0.391D-05 0.296D-02 0.307D-02 0.612D-02 0.219D-01 0.553D-01
 Coeff-Com:  0.115D+00 0.426D+00 0.369D+00
 Coeff:     -0.391D-05 0.296D-02 0.307D-02 0.612D-02 0.219D-01 0.553D-01
 Coeff:      0.115D+00 0.426D+00 0.369D+00
 Gap=     0.186 Goal=   None    Shift=    0.000
 RMSDP=3.88D-08 MaxDP=8.78D-07 DE=-5.73D-11 OVMax= 1.52D-06

 Cycle  10  Pass 1  IDiag  1:
 E= -257.979550299102     Delta-E=       -0.000000000008 Rises=F Damp=F
 DIIS: error= 1.22D-07 at cycle  10 NSaved=  10.
 NSaved=10 IEnMin=10 EnMin= -257.979550299102     IErMin=10 ErrMin= 1.22D-07
 ErrMax= 1.22D-07 EMaxC= 1.00D-01 BMatC= 8.19D-13 BMatP= 1.14D-11
 IDIUse=1 WtCom= 1.00D+00 WtEn= 0.00D+00
 Coeff-Com: -0.853D-06 0.759D-03 0.774D-03 0.165D-02 0.622D-02 0.158D-01
 Coeff-Com:  0.369D-01 0.140D+00 0.231D+00 0.566D+00
 Coeff:     -0.853D-06 0.759D-03 0.774D-03 0.165D-02 0.622D-02 0.158D-01
 Coeff:      0.369D-01 0.140D+00 0.231D+00 0.566D+00
 Gap=     0.186 Goal=   None    Shift=    0.000
 RMSDP=1.28D-08 MaxDP=2.28D-07 DE=-8.30D-12 OVMax= 4.75D-07

 Cycle  11  Pass 1  IDiag  1:
 E= -257.979550299103     Delta-E=       -0.000000000001 Rises=F Damp=F
 DIIS: error= 6.84D-09 at cycle  11 NSaved=  11.
 NSaved=11 IEnMin=11 EnMin= -257.979550299103     IErMin=11 ErrMin= 6.84D-09
 ErrMax= 6.84D-09 EMaxC= 1.00D-01 BMatC= 3.78D-15 BMatP= 8.19D-13
 IDIUse=1 WtCom= 1.00D+00 WtEn= 0.00D+00
 Coeff-Com: -0.337D-06 0.110D-03 0.111D-03 0.250D-03 0.102D-02 0.247D-02
 Coeff-Com:  0.645D-02 0.234D-01 0.480D-01 0.147D+00 0.771D+00
 Coeff:     -0.337D-06 0.110D-03 0.111D-03 0.250D-03 0.102D-02 0.247D-02
 Coeff:      0.645D-02 0.234D-01 0.480D-01 0.147D+00 0.771D+00
 Gap=     0.186 Goal=   None    Shift=    0.000
 RMSDP=1.11D-09 MaxDP=1.57D-08 DE=-9.09D-13 OVMax= 2.42D-08

 SCF Done:  E(RPBE-PBE) =  -257.979550299     A.U. after   11 cycles
             Convg  =    0.1111D-08             -V/T =  2.0092
             S**2   =   0.0000
 KE= 2.556354880586D+02 PE=-9.322348576107D+02 EE= 2.533159426047D+02
 Leave Link  502 at Fri Feb 17 07:16:16 2006, MaxMem=   56000000 cpu:      32.3
 (Enter /usr/local/gaussian03-rev-C02-64/g03/l701.exe)
 Compute integral first derivatives.
 ... and contract with generalized density number  0.
 Leave Link  701 at Fri Feb 17 07:16:17 2006, MaxMem=   56000000 cpu:       0.1
 (Enter /usr/local/gaussian03-rev-C02-64/g03/l702.exe)
 L702 exits ... SP integral derivatives will be done elsewhere.
 Leave Link  702 at Fri Feb 17 07:16:17 2006, MaxMem=   56000000 cpu:       0.0
 (Enter /usr/local/gaussian03-rev-C02-64/g03/l703.exe)
 Compute integral first derivatives, UseDBF=F.
 Integral derivatives from FoFDir, PRISM(SPDF).
 Calling FoFCou, ICntrl=  2527 FMM=F ISym2X=1 I1Cent= 0 ISCF1= 0.
 FoFCou: FMM=F IPFlag=           0 FMFlag=           0 FMFlg1=           0
 NFxFlg=           0 DoJE=F BraDBF=F KetDBF=F FulRan=T.
 Petite list used in FoFCou.
 Leave Link  703 at Fri Feb 17 07:16:28 2006, MaxMem=   56000000 cpu:      10.2
 (Enter /usr/local/gaussian03-rev-C02-64/g03/l716.exe)
 Dipole        = 9.46069325D-01 1.82482009D+00 0.00000000D+00
 ***** Axes restored to original set *****
 -------------------------------------------------------------------
 Center     Atomic                   Forces (Hartrees/Bohr)
 Number     Number              X              Y              Z
 -------------------------------------------------------------------
    1          7           0.001148383   -0.003522035    0.000000000
    2          7           0.000194413    0.002304254    0.000000000
    3          7           0.001854752    0.000160619    0.000000000
    4          1           0.000098789   -0.000352716    0.000000000
    5          7          -0.000944133   -0.000056084    0.000000000
    6          6          -0.001966651    0.001532117    0.000000000
    7          1          -0.000385553   -0.000066156    0.000000000
 -------------------------------------------------------------------
 Cartesian Forces:  Max     0.003522035 RMS     0.001193906
 Leave Link  716 at Fri Feb 17 07:16:29 2006, MaxMem=   56000000 cpu:       0.0
 (Enter /usr/local/gaussian03-rev-C02-64/g03/l103.exe)

 GradGradGradGradGradGradGradGradGradGradGradGradGradGradGradGradGradGrad
 Berny optimization.
 Internal  Forces:  Max     0.002651787 RMS     0.000828963
 Search for a local minimum.
 Step number   3 out of a maximum of  36
 All quantities printed in internal units (Hartrees-Bohrs-Radians)
 Update second derivatives using D2CorX and points  1  2  3
 Trust test= 1.17D+00 RLast= 2.72D-02 DXMaxT set to 4.24D-01
     Eigenvalues ---    0.02506   0.02638   0.02674   0.02834   0.15977
     Eigenvalues ---    0.16007   0.23275   0.26697   0.37764   0.41120
     Eigenvalues ---    0.49398   0.52690   0.63830   0.65168   0.68879
     Eigenvalues --- 1000.000001000.000001000.000001000.000001000.00000
     Eigenvalues --- 1000.000001000.000001000.000001000.000001000.00000
     Eigenvalues --- 1000.00000
 RFO step:  Lambda=-3.83647355D-05.
 Quartic linear search produced a step of  0.09158.
 Iteration  1 RMS(Cart)=  0.00223336 RMS(Int)=  0.00000228
 Iteration  2 RMS(Cart)=  0.00000184 RMS(Int)=  0.00000104
 Iteration  3 RMS(Cart)=  0.00000000 RMS(Int)=  0.00000104
 Variable       Old X    -DE/DX   Delta X   Delta X   Delta X     New X
                                 (Linear)    (Quad)   (Total)
    R1        2.45934   0.00265   0.00159   0.00429   0.00588   2.46522
    R2        2.59946  -0.00114   0.00086  -0.00158  -0.00072   2.59874
    R3        2.57181   0.00005   0.00090   0.00051   0.00141   2.57322
    R4        1.92663  -0.00036   0.00026  -0.00052  -0.00026   1.92637
    R5        2.56384  -0.00215  -0.00014  -0.00403  -0.00417   2.55967
    R6        2.50464   0.00071   0.00057   0.00122   0.00180   2.50644
    R7        2.05673  -0.00039   0.00003  -0.00088  -0.00085   2.05588
    A1        1.94897  -0.00140   0.00016  -0.00438  -0.00422   1.94476
    A2        1.84300   0.00056  -0.00088   0.00359   0.00271   1.84571
    A3        2.09754   0.00031  -0.00046   0.00206   0.00160   2.09914
    A4        1.90008  -0.00047   0.00077  -0.00314  -0.00237   1.89770
    A5        2.28557   0.00016  -0.00031   0.00108   0.00077   2.28634
    A6        1.84079   0.00036  -0.00007   0.00097   0.00091   1.84169
    A7        1.89194   0.00095   0.00002   0.00296   0.00297   1.89492
    A8        2.17757  -0.00053  -0.00014  -0.00187  -0.00201   2.17556
    A9        2.21367  -0.00042   0.00012  -0.00108  -0.00097   2.21270
    D1        0.00000   0.00000   0.00000   0.00000   0.00000   0.00000
    D2        0.00000   0.00000   0.00000   0.00000   0.00000   0.00000
    D3        3.14159   0.00000   0.00000   0.00000   0.00000   3.14159
    D4        0.00000   0.00000   0.00000   0.00000   0.00000   0.00000
    D5        0.00000   0.00000   0.00000   0.00000   0.00000   0.00000
    D6        3.14159   0.00000   0.00000   0.00000   0.00000   3.14159
    D7        3.14159   0.00000   0.00000   0.00000   0.00000   3.14159
    D8        0.00000   0.00000   0.00000   0.00000   0.00000   0.00000
    D9        0.00000   0.00000   0.00000   0.00000   0.00000   0.00000
   D10        3.14159   0.00000   0.00000   0.00000   0.00000   3.14159
         Item               Value     Threshold  Converged?
 Maximum Force            0.002652     0.000450     NO 
 RMS     Force            0.000829     0.000300     NO 
 Maximum Displacement     0.007047     0.001800     NO 
 RMS     Displacement     0.002234     0.001200     NO 
 Predicted change in Energy=-2.045695D-05
 GradGradGradGradGradGradGradGradGradGradGradGradGradGradGradGradGradGrad

 Leave Link  103 at Fri Feb 17 07:16:29 2006, MaxMem=   56000000 cpu:       0.0
 (Enter /usr/local/gaussian03-rev-C02-64/g03/l202.exe)
                          Input orientation:                          
 ---------------------------------------------------------------------
 Center     Atomic     Atomic              Coordinates (Angstroms)
 Number     Number      Type              X           Y           Z
 ---------------------------------------------------------------------
    1          7             0       -0.737553   -0.940999    0.000000
    2          7             0       -1.136668    0.300984    0.000000
    3          7             0       -0.002045    1.053860    0.000000
    4          1             0       -0.060623    2.071565    0.000000
    5          7             0        0.634912   -1.027619    0.000000
    6          6             0        1.069632    0.225468    0.000000
    7          1             0        2.106368    0.555256    0.000000
 ---------------------------------------------------------------------
                    Distance matrix (angstroms):
                    1          2          3          4          5
     1  N    0.000000
     2  N    1.304537   0.000000
     3  N    2.126131   1.361687   0.000000
     4  H    3.087682   2.071915   1.019390   0.000000
     5  N    1.375195   2.214426   2.176756   3.176274   0.000000
     6  C    2.150944   2.207592   1.354520   2.164614   1.326352
     7  H    3.213512   3.252989   2.166566   2.644815   2.161175
                    6          7
     6  C    0.000000
     7  H    1.087925   0.000000
 Stoichiometry    CH2N4
 Framework group  CS[SG(CH2N4)]
 Deg. of freedom    11
 Full point group                 CS      NOp   2
 Largest Abelian subgroup         CS      NOp   2
 Largest concise Abelian subgroup C1      NOp   1
                         Standard orientation:                         
 ---------------------------------------------------------------------
 Center     Atomic     Atomic              Coordinates (Angstroms)
 Number     Number      Type              X           Y           Z
 ---------------------------------------------------------------------
    1          7             0       -0.727559   -0.935104    0.000000
    2          7             0       -1.131617    0.305281    0.000000
    3          7             0        0.000000    1.062668    0.000000
    4          1             0       -0.062630    2.080132    0.000000
    5          7             0        0.645240   -1.016258    0.000000
    6          6             0        1.074967    0.238550    0.000000
    7          1             0        2.110381    0.572463    0.000000
 ---------------------------------------------------------------------
 Rotational constants (GHZ):     10.3476636     10.1616524      5.1269072
 Leave Link  202 at Fri Feb 17 07:16:30 2006, MaxMem=   56000000 cpu:       0.1
 (Enter /usr/local/gaussian03-rev-C02-64/g03/l301.exe)
 Standard basis: 6-31G(d) (6D, 7F)
 There are    59 symmetry adapted basis functions of A'  symmetry.
 There are    20 symmetry adapted basis functions of A"  symmetry.
 Integral buffers will be    131072 words long.
 Raffenetti 2 integral format.
 Two-electron integral symmetry is turned on.
    79 basis functions,   148 primitive gaussians,    79 cartesian basis functions
    18 alpha electrons       18 beta electrons
       nuclear repulsion energy       165.2451607257 Hartrees.
 IExCor=1009 DFT=T Ex=PBE Corr=PBE ExCW=0 ScaHFX=  0.000000
 ScaDFX=  1.000000  1.000000  1.000000  1.000000
 IRadAn=      5 IRanWt=     -1 IRanGd=            0 ICorTp=0
 NAtoms=    7 NActive=    7 NUniq=    7 SFac= 1.00D+00 NAtFMM=   60 Big=F
 Leave Link  301 at Fri Feb 17 07:16:31 2006, MaxMem=   56000000 cpu:       0.0
 (Enter /usr/local/gaussian03-rev-C02-64/g03/l302.exe)
 NPDir=0 NMtPBC=     1 NCelOv=     1 NCel=       1 NClECP=     1 NCelD=      1
         NCelK=      1 NCelE2=     1 NClLst=     1 CellRange=     0.0.
 One-electron integrals computed using PRISM.
 NBasis=    79 RedAO= T  NBF=    59    20
 NBsUse=    79 1.00D-06 NBFU=    59    20
 Precomputing XC quadrature grid using
 IXCGrd= 2 IRadAn=           5 IRanWt=          -1 IRanGd=           0.
 NRdTot=     565 NPtTot=      151932 NUsed=      155916 NTot=      155948
 NSgBfM=    79    79    79    79.
 Leave Link  302 at Fri Feb 17 07:16:32 2006, MaxMem=   56000000 cpu:       0.4
 (Enter /usr/local/gaussian03-rev-C02-64/g03/l303.exe)
 DipDrv:  MaxL=1.
 Leave Link  303 at Fri Feb 17 07:16:33 2006, MaxMem=   56000000 cpu:       0.0
 (Enter /usr/local/gaussian03-rev-C02-64/g03/l401.exe)
 Initial guess read from the read-write file:
 Guess basis will be translated and rotated to current coordinates.
 Initial guess orbital symmetries:
       Occupied  (A') (A') (A') (A') (A') (A') (A') (A') (A') (A')
                 (A') (A') (A") (A') (A") (A") (A') (A')
       Virtual   (A") (A") (A') (A') (A') (A') (A') (A') (A') (A')
                 (A") (A') (A') (A') (A') (A") (A') (A") (A') (A")
                 (A') (A") (A') (A') (A') (A') (A') (A') (A') (A")
                 (A") (A") (A') (A') (A") (A") (A') (A') (A') (A')
                 (A') (A') (A") (A") (A') (A') (A") (A") (A') (A')
                 (A") (A') (A') (A') (A') (A') (A') (A') (A') (A')
                 (A')
 The electronic state of the initial guess is 1-A'.
 Leave Link  401 at Fri Feb 17 07:16:33 2006, MaxMem=   56000000 cpu:       0.1
 (Enter /usr/local/gaussian03-rev-C02-64/g03/l502.exe)
 Closed shell SCF:
 Requested convergence on RMS density matrix=1.00D-08 within 128 cycles.
 Requested convergence on MAX density matrix=1.00D-06.
 Requested convergence on             energy=1.00D-06.
 No special actions if energy rises.
 Using DIIS extrapolation, IDIIS=  1040.
 Integral symmetry usage will be decided dynamically.
       155915 words used for storage of precomputed grid.
[...]
 Cartesian Forces:  Max     0.000396831 RMS     0.000156222
 Force constants in Cartesian coordinates: 
                1             2             3             4             5
      1  0.395403D+00
      2  0.564163D-01  0.540384D+00
      3  0.000000D+00  0.000000D+00  0.116931D+00
      4 -0.118797D+00  0.319820D-01  0.000000D+00  0.493689D+00
      5  0.918501D-01 -0.285495D+00  0.000000D+00 -0.859406D-01  0.446461D+00
      6  0.000000D+00  0.000000D+00 -0.906605D-01  0.000000D+00  0.000000D+00
      7 -0.225517D-01 -0.747511D-01  0.000000D+00 -0.199219D+00 -0.446943D-01
      8 -0.355915D-02 -0.142641D+00  0.000000D+00 -0.161705D-01 -0.102728D+00
      9  0.000000D+00  0.000000D+00  0.243783D-01  0.000000D+00  0.000000D+00
     10 -0.922590D-02 -0.104848D-01  0.000000D+00  0.149459D-01 -0.268694D-01
     11  0.480755D-03 -0.181364D-02  0.000000D+00  0.573348D-02 -0.898601D-02
     12  0.000000D+00  0.000000D+00  0.767541D-02  0.000000D+00  0.000000D+00
     13 -0.169888D+00  0.107717D-01  0.000000D+00 -0.823294D-01  0.109462D+00
     14 -0.308277D-01 -0.887848D-01  0.000000D+00  0.118271D-01 -0.426717D-01
     15  0.000000D+00  0.000000D+00 -0.847350D-01  0.000000D+00  0.000000D+00
     16 -0.749678D-01 -0.160445D-01  0.000000D+00 -0.107511D+00 -0.436569D-01
     17 -0.109587D+00 -0.164609D-01  0.000000D+00  0.485236D-01 -0.497089D-03
     18  0.000000D+00  0.000000D+00  0.179395D-01  0.000000D+00  0.000000D+00
     19  0.275474D-04  0.211026D-02  0.000000D+00 -0.779380D-03 -0.151119D-03
     20 -0.477376D-02 -0.518755D-02  0.000000D+00  0.404498D-02 -0.608274D-02
     21  0.000000D+00  0.000000D+00  0.847108D-02  0.000000D+00  0.000000D+00
                6             7             8             9            10
      6  0.107061D+00
      7  0.000000D+00  0.527206D+00
      8  0.000000D+00 -0.930835D-01  0.945483D+00
      9 -0.631585D-01  0.000000D+00  0.000000D+00  0.831630D-01
     10  0.000000D+00 -0.676013D-01  0.319659D-01  0.000000D+00  0.555020D-01
     11  0.000000D+00  0.263215D-01 -0.433356D+00  0.000000D+00 -0.235222D-01
     12 -0.117599D-01  0.000000D+00  0.000000D+00 -0.555462D-02  0.000000D+00
     13  0.000000D+00  0.190091D-01 -0.264873D-01  0.000000D+00 -0.656791D-02
     14  0.000000D+00  0.779900D-01 -0.964796D-01  0.000000D+00  0.904286D-02
     15  0.334559D-01  0.000000D+00  0.000000D+00  0.192034D-01  0.000000D+00
     16  0.000000D+00 -0.244802D+00  0.116499D+00  0.000000D+00  0.135657D-01
     17  0.000000D+00  0.842268D-01 -0.182249D+00  0.000000D+00  0.200714D-01
     18  0.192088D-01  0.000000D+00  0.000000D+00 -0.541595D-01  0.000000D+00
     19  0.000000D+00 -0.120417D-01 -0.916415D-02  0.000000D+00 -0.618516D-03
     20  0.000000D+00  0.239906D-01  0.119712D-01  0.000000D+00 -0.203745D-03
     21  0.585339D-02  0.000000D+00  0.000000D+00 -0.387191D-02  0.000000D+00
               11            12            13            14            15
     11  0.447566D+00
     12  0.000000D+00  0.127361D-01
     13 -0.279842D-02  0.000000D+00  0.363340D+00
     14 -0.109388D-02  0.000000D+00  0.563510D-02  0.571450D+00
     15  0.000000D+00  0.710476D-02  0.000000D+00  0.000000D+00  0.102470D+00
     16 -0.667930D-02  0.000000D+00 -0.123264D+00 -0.721856D-01  0.000000D+00
     17 -0.208856D-02  0.000000D+00 -0.695669D-01 -0.342499D+00  0.000000D+00
     18  0.000000D+00 -0.965793D-02  0.000000D+00  0.000000D+00 -0.719361D-01
     19  0.464276D-03  0.000000D+00 -0.299365D-03 -0.148179D-02  0.000000D+00
     20 -0.227907D-03  0.000000D+00 -0.270165D-01  0.788301D-04  0.000000D+00
     21  0.000000D+00 -0.543853D-03  0.000000D+00  0.000000D+00 -0.556260D-02
               16            17            18            19            20
     16  0.861993D+00
     17  0.108913D+00  0.620409D+00
     18  0.000000D+00  0.000000D+00  0.123240D+00
     19 -0.325014D+00 -0.825817D-01  0.000000D+00  0.338725D+00
     20 -0.868458D-01 -0.766149D-01  0.000000D+00  0.908042D-01  0.760631D-01
     21  0.000000D+00  0.000000D+00 -0.246344D-01  0.000000D+00  0.000000D+00
               21
     21  0.202883D-01
 Force constants in internal coordinates: 
                1             2             3             4             5
      1  0.377347D+00
      2  0.401178D-01  0.253684D+00
      3  0.460651D-01  0.580583D-01  0.296939D+00
      4 -0.990710D-03 -0.465092D-02  0.308841D-02  0.448970D+00
      5  0.677376D-01  0.356777D-01  0.209432D-01 -0.187970D-04  0.389207D+00
      6  0.612860D-01  0.338264D-01  0.404235D-01  0.184174D-02  0.330198D-01
      7 -0.346934D-02 -0.855168D-03  0.824719D-03  0.410334D-03  0.285472D-02
      8 -0.466400D-01 -0.355329D-01 -0.398737D-01 -0.224213D-02  0.121871D+00
      9 -0.241988D-01 -0.119139D-01 -0.226730D-01  0.624993D-02 -0.319974D-01
     10  0.466780D-02 -0.360680D-01  0.145170D-01  0.335186D-02  0.101768D-01
     11 -0.128254D-01  0.706071D-01 -0.824217D-02 -0.840405D-02 -0.337388D-01
     12  0.815756D-02 -0.345391D-01 -0.627485D-02  0.505220D-02  0.235620D-01
     13 -0.205510D-02 -0.551143D-02  0.105873D+00 -0.163775D-03 -0.284919D-01
     14  0.857192D-01 -0.176489D-01 -0.350841D-01  0.456002D-02 -0.276427D-01
     15 -0.416371D-01  0.111240D-01  0.117249D-01 -0.191349D-02  0.288957D-01
     16 -0.440821D-01  0.652489D-02  0.233592D-01 -0.264653D-02 -0.125297D-02
     17  0.000000D+00  0.000000D+00  0.000000D+00  0.000000D+00  0.000000D+00
     18  0.000000D+00  0.000000D+00  0.000000D+00  0.000000D+00  0.000000D+00
     19  0.000000D+00  0.000000D+00  0.000000D+00  0.000000D+00  0.000000D+00
     20  0.000000D+00  0.000000D+00  0.000000D+00  0.000000D+00  0.000000D+00
     21  0.000000D+00  0.000000D+00  0.000000D+00  0.000000D+00  0.000000D+00
     22  0.000000D+00  0.000000D+00  0.000000D+00  0.000000D+00  0.000000D+00
     23  0.000000D+00  0.000000D+00  0.000000D+00  0.000000D+00  0.000000D+00
     24  0.000000D+00  0.000000D+00  0.000000D+00  0.000000D+00  0.000000D+00
     25  0.000000D+00  0.000000D+00  0.000000D+00  0.000000D+00  0.000000D+00
     26  0.000000D+00  0.000000D+00  0.000000D+00  0.000000D+00  0.000000D+00
                6             7             8             9            10
      6  0.437263D+00
      7  0.623622D-02  0.367053D+00
      8 -0.268600D-01 -0.152553D-02  0.226010D+00
      9  0.132381D+00  0.119206D-02 -0.148551D+00  0.195494D+00
     10  0.199983D-01 -0.227310D-02 -0.329897D-01  0.611456D-01  0.862285D-01
     11 -0.349938D-01  0.333479D-02  0.405194D-01 -0.103724D+00 -0.671926D-01
     12  0.149955D-01 -0.106170D-02 -0.752966D-02  0.425782D-01 -0.190359D-01
     13 -0.475790D-01  0.488547D-02 -0.141157D+00  0.528062D-01  0.104203D-01
     14 -0.229484D-01 -0.788680D-02  0.231786D-01  0.397407D-02  0.286164D-01
     15 -0.601919D-03  0.550419D-02 -0.286494D-02 -0.961936D-02 -0.154319D-01
     16  0.235503D-01  0.238262D-02 -0.203137D-01  0.564529D-02 -0.131845D-01
     17  0.000000D+00  0.000000D+00  0.000000D+00  0.000000D+00  0.000000D+00
     18  0.000000D+00  0.000000D+00  0.000000D+00  0.000000D+00  0.000000D+00
     19  0.000000D+00  0.000000D+00  0.000000D+00  0.000000D+00  0.000000D+00
     20  0.000000D+00  0.000000D+00  0.000000D+00  0.000000D+00  0.000000D+00
     21  0.000000D+00  0.000000D+00  0.000000D+00  0.000000D+00  0.000000D+00
     22  0.000000D+00  0.000000D+00  0.000000D+00  0.000000D+00  0.000000D+00
     23  0.000000D+00  0.000000D+00  0.000000D+00  0.000000D+00  0.000000D+00
     24  0.000000D+00  0.000000D+00  0.000000D+00  0.000000D+00  0.000000D+00
     25  0.000000D+00  0.000000D+00  0.000000D+00  0.000000D+00  0.000000D+00
     26  0.000000D+00  0.000000D+00  0.000000D+00  0.000000D+00  0.000000D+00
               11            12            13            14            15
     11  0.124594D+00
     12 -0.574013D-01  0.764371D-01
     13  0.775107D-03 -0.111954D-01  0.172054D+00
     14 -0.621646D-01  0.335482D-01 -0.844790D-01  0.119491D+00
     15  0.333836D-01 -0.179517D-01  0.387121D-01 -0.596114D-01  0.801751D-01
     16  0.287810D-01 -0.155965D-01  0.457669D-01 -0.598795D-01 -0.205636D-01
     17  0.000000D+00  0.000000D+00  0.000000D+00  0.000000D+00  0.000000D+00
     18  0.000000D+00  0.000000D+00  0.000000D+00  0.000000D+00  0.000000D+00
     19  0.000000D+00  0.000000D+00  0.000000D+00  0.000000D+00  0.000000D+00
     20  0.000000D+00  0.000000D+00  0.000000D+00  0.000000D+00  0.000000D+00
     21  0.000000D+00  0.000000D+00  0.000000D+00  0.000000D+00  0.000000D+00
     22  0.000000D+00  0.000000D+00  0.000000D+00  0.000000D+00  0.000000D+00
     23  0.000000D+00  0.000000D+00  0.000000D+00  0.000000D+00  0.000000D+00
     24  0.000000D+00  0.000000D+00  0.000000D+00  0.000000D+00  0.000000D+00
     25  0.000000D+00  0.000000D+00  0.000000D+00  0.000000D+00  0.000000D+00
     26  0.000000D+00  0.000000D+00  0.000000D+00  0.000000D+00  0.000000D+00
               16            17            18            19            20
     16  0.804431D-01
     17  0.000000D+00  0.256938D-01
     18  0.000000D+00 -0.221026D-01  0.271695D-01
     19  0.000000D+00 -0.112325D-01  0.762276D-02  0.919202D-02
     20  0.000000D+00 -0.196140D-01  0.873537D-02  0.106096D-01  0.230911D-01
     21  0.000000D+00  0.642663D-02  0.796767D-02 -0.618479D-02 -0.183707D-01
     22  0.000000D+00  0.830154D-02 -0.361130D-02 -0.864101D-03 -0.985894D-02
     23  0.000000D+00 -0.316497D-02  0.924092D-02 -0.456249D-02 -0.408712D-02
     24  0.000000D+00 -0.129007D-02 -0.233804D-02  0.758204D-03  0.442461D-02
     25  0.000000D+00  0.879607D-02 -0.204980D-01 -0.611323D-03  0.618661D-02
     26  0.000000D+00  0.687336D-02 -0.862377D-02 -0.606768D-02 -0.254215D-02
               21            22            23            24            25
     21  0.239396D-01
     22  0.791749D-02  0.125232D-01
     23  0.999432D-02 -0.237605D-02  0.105383D-01
     24 -0.602782D-02  0.222968D-02 -0.183205D-02  0.642545D-02
     25 -0.191976D-01 -0.275468D-02 -0.114181D-01  0.502476D-02  0.235135D-01
     26 -0.276689D-02 -0.747786D-02  0.126768D-02 -0.344329D-02  0.665140D-02
               26
     26  0.114825D-01
 Leave Link  716 at Fri Feb 17 07:23:15 2006, MaxMem=   56000000 cpu:       0.0
 (Enter /usr/local/gaussian03-rev-C02-64/g03/l103.exe)

 GradGradGradGradGradGradGradGradGradGradGradGradGradGradGradGradGradGrad
 Berny optimization.
 Internal  Forces:  Max     0.000346838 RMS     0.000102430
 Search for a local minimum.
 Step number   1 out of a maximum of   2
 All quantities printed in internal units (Hartrees-Bohrs-Radians)
 Second derivative matrix not updated -- analytic derivatives used.
     Eigenvalues ---    0.00744   0.02299   0.06819   0.07495   0.09575
     Eigenvalues ---    0.09949   0.17979   0.22677   0.32708   0.36383
     Eigenvalues ---    0.40033   0.44140   0.45618   0.54348   0.59731
     Eigenvalues --- 1000.000001000.000001000.000001000.000001000.00000
     Eigenvalues --- 1000.000001000.000001000.000001000.000001000.00000
     Eigenvalues --- 1000.00000
 Angle between quadratic step and forces=  25.11 degrees.
 Linear search not attempted -- first point.
 Iteration  1 RMS(Cart)=  0.00027854 RMS(Int)=  0.00000004
 Iteration  2 RMS(Cart)=  0.00000003 RMS(Int)=  0.00000001
 Variable       Old X    -DE/DX   Delta X   Delta X   Delta X     New X
                                 (Linear)    (Quad)   (Total)
    R1        2.46645   0.00006   0.00000   0.00034   0.00034   2.46679
    R2        2.59551  -0.00035   0.00000  -0.00138  -0.00138   2.59413
    R3        2.57209  -0.00017   0.00000  -0.00054  -0.00054   2.57154
    R4        1.92561   0.00007   0.00000   0.00015   0.00015   1.92576
    R5        2.55771   0.00019   0.00000   0.00044   0.00044   2.55815
    R6        2.50590   0.00020   0.00000   0.00052   0.00052   2.50643
    R7        2.05576   0.00001   0.00000   0.00000   0.00000   2.05576
    A1        1.94658   0.00009   0.00000   0.00019   0.00019   1.94677
    A2        1.84243   0.00008   0.00000   0.00006   0.00006   1.84249
    A3        2.09752   0.00006   0.00000   0.00009   0.00009   2.09761
    A4        1.90033  -0.00012   0.00000  -0.00011  -0.00011   1.90023
    A5        2.28534   0.00006   0.00000   0.00001   0.00001   2.28535
    A6        1.84176  -0.00004   0.00000   0.00018   0.00018   1.84194
    A7        1.89368  -0.00001   0.00000  -0.00032  -0.00032   1.89335
    A8        2.17727   0.00002   0.00000   0.00034   0.00034   2.17761
    A9        2.21224  -0.00001   0.00000  -0.00002  -0.00002   2.21222
    D1        0.00000   0.00000   0.00000   0.00000   0.00000   0.00000
    D2        0.00000   0.00000   0.00000   0.00000   0.00000   0.00000
    D3        3.14159   0.00000   0.00000   0.00000   0.00000   3.14159
    D4        0.00000   0.00000   0.00000   0.00000   0.00000   0.00000
    D5        0.00000   0.00000   0.00000   0.00000   0.00000   0.00000
    D6        3.14159   0.00000   0.00000   0.00000   0.00000   3.14159
    D7        3.14159   0.00000   0.00000   0.00000   0.00000   3.14159
    D8        0.00000   0.00000   0.00000   0.00000   0.00000   0.00000
    D9        0.00000   0.00000   0.00000   0.00000   0.00000   0.00000
   D10        3.14159   0.00000   0.00000   0.00000   0.00000   3.14159
         Item               Value     Threshold  Converged?
 Maximum Force            0.000347     0.000450     YES
 RMS     Force            0.000102     0.000300     YES
 Maximum Displacement     0.000736     0.001800     YES
 RMS     Displacement     0.000279     0.001200     YES
 Predicted change in Energy=-4.177333D-07
 Optimization completed.
    -- Stationary point found.
                           ----------------------------
                           !   Optimized Parameters   !
                           ! (Angstroms and Degrees)  !
 --------------------------                            --------------------------
 ! Name  Definition              Value          Derivative Info.                !
 --------------------------------------------------------------------------------
 ! R1    R(1,2)                  1.3052         -DE/DX =    0.0001              !
 ! R2    R(1,5)                  1.3735         -DE/DX =   -0.0003              !
 ! R3    R(2,3)                  1.3611         -DE/DX =   -0.0002              !
 ! R4    R(3,4)                  1.019          -DE/DX =    0.0001              !
 ! R5    R(3,6)                  1.3535         -DE/DX =    0.0002              !
 ! R6    R(5,6)                  1.3261         -DE/DX =    0.0002              !
 ! R7    R(6,7)                  1.0879         -DE/DX =    0.0                 !
 ! A1    A(2,1,5)              111.5308         -DE/DX =    0.0001              !
 ! A2    A(1,2,3)              105.5634         -DE/DX =    0.0001              !
 ! A3    A(2,3,4)              120.1788         -DE/DX =    0.0001              !
 ! A4    A(2,3,6)              108.8811         -DE/DX =   -0.0001              !
 ! A5    A(4,3,6)              130.9402         -DE/DX =    0.0001              !
 ! A6    A(1,5,6)              105.5251         -DE/DX =    0.0                 !
 ! A7    A(3,6,5)              108.4996         -DE/DX =    0.0                 !
 ! A8    A(3,6,7)              124.7484         -DE/DX =    0.0                 !
 ! A9    A(5,6,7)              126.752          -DE/DX =    0.0                 !
 ! D1    D(5,1,2,3)              0.0            -DE/DX =    0.0                 !
 ! D2    D(2,1,5,6)              0.0            -DE/DX =    0.0                 !
 ! D3    D(1,2,3,4)            180.0            -DE/DX =    0.0                 !
 ! D4    D(1,2,3,6)              0.0            -DE/DX =    0.0                 !
 ! D5    D(2,3,6,5)              0.0            -DE/DX =    0.0                 !
 ! D6    D(2,3,6,7)            180.0            -DE/DX =    0.0                 !
 ! D7    D(4,3,6,5)            180.0            -DE/DX =    0.0                 !
 ! D8    D(4,3,6,7)              0.0            -DE/DX =    0.0                 !
 ! D9    D(1,5,6,3)              0.0            -DE/DX =    0.0                 !
 ! D10   D(1,5,6,7)            180.0            -DE/DX =    0.0                 !
 --------------------------------------------------------------------------------
 GradGradGradGradGradGradGradGradGradGradGradGradGradGradGradGradGradGrad

 Leave Link  103 at Fri Feb 17 07:23:16 2006, MaxMem=   56000000 cpu:       0.0
 (Enter /usr/local/gaussian03-rev-C02-64/g03/l9999.exe)
 1\1\GINC-P195\Freq\RPBEPBE\6-31G(d)\C1H2N4\RDJ3\17-Feb-2006\0\\#P GEOM
 =ALLCHECK GUESS=READ SCRF=CHECK GENCHK RPBEPBE/6-31G(D) FREQ\\1htz cas
 no=288948 method=69 basis=1\\0,1\N,-0.7298956705,-0.9315293574,0.\N,-1
 .1312349375,0.3104254106,0.\N,0.0041289764,1.0611004319,0.\H,-0.054402
 7089,2.0784086917,0.\N,0.6408442819,-1.0183094639,0.\C,1.0757987899,0.
 2343953192,0.\H,2.1127114172,0.5634102452,0.\\Version=AM64L-G03RevC.02
 \State=1-A'\HF=-257.9795724\RMSD=3.984e-09\RMSF=1.562e-04\Dipole=0.952
 8397,1.8242181,0.\DipoleDeriv=0.1549408,-0.0721498,0.,-0.1435016,-0.13
 85357,0.,0.,0.,-0.1508067,-0.1939845,0.3484829,0.,0.3102622,0.1371596,
 0.,0.,0.,-0.0942231,-0.0442687,-0.1545339,0.,-0.0785445,-0.4273235,0.,
 0.,0.,-0.1467083,0.1926685,-0.007773,0.,-0.0194538,0.2186335,0.,0.,0.,
 0.3403553,-0.377289,0.0765007,0.,-0.0160213,-0.2537254,0.,0.,0.,-0.188
 8816,0.2100581,-0.1586666,0.,-0.0162302,0.3694611,0.,0.,0.,0.0770448,0
 .0578749,-0.0318603,0.,-0.0365109,0.0943304,0.,0.,0.,0.1632195\Polar=3
 9.0088409,1.0583352,38.5492292,0.,0.,15.787005\PG=CS [SG(C1H2N4)]\NIma
 g=0\\0.39540274,0.05641634,0.54038367,0.,0.,0.11693126,-0.11879679,0.0
 3198204,0.,0.49368911,0.09185005,-0.28549531,0.,-0.08594064,0.44646077
 ,0.,0.,-0.09066048,0.,0.,0.10706077,-0.02255171,-0.07475106,0.,-0.1992
 1857,-0.04469429,0.,0.52720611,-0.00355915,-0.14264143,0.,-0.01617052,
 -0.10272787,0.,-0.09308354,0.94548254,0.,0.,0.02437827,0.,0.,-0.063158
 54,0.,0.,0.08316295,-0.00922590,-0.01048476,0.,0.01494587,-0.02686941,
 0.,-0.06760131,0.03196586,0.,0.05550202,0.00048075,-0.00181364,0.,0.00
 573348,-0.00898601,0.,0.02632146,-0.43335620,0.,-0.02352225,0.44756619
 ,0.,0.,0.00767541,0.,0.,-0.01175989,0.,0.,-0.00555462,0.,0.,0.01273612
 ,-0.16988812,0.01077169,0.,-0.08232936,0.10946235,0.,0.01900910,-0.026
 48726,0.,-0.00656791,-0.00279842,0.,0.36333970,-0.03082767,-0.08878485
 ,0.,0.01182706,-0.04267174,0.,0.07799000,-0.09647962,0.,0.00904286,-0.
 00109388,0.,0.00563510,0.57145010,0.,0.,-0.08473504,0.,0.,0.03345590,0
 .,0.,0.01920336,0.,0.,0.00710476,0.,0.,0.10246972,-0.07496776,-0.01604
 451,0.,-0.10751088,-0.04365694,0.,-0.24480191,0.11649877,0.,0.01356574
 ,-0.00667930,0.,-0.12326404,-0.07218557,0.,0.86199276,-0.10958657,-0.0
 1646090,0.,0.04852360,-0.00049709,0.,0.08422682,-0.18224861,0.,0.02007
 144,-0.00208856,0.,-0.06956690,-0.34249884,0.,0.10891334,0.62040893,0.
 ,0.,0.01793950,0.,0.,0.01920884,0.,0.,-0.05415951,0.,0.,-0.00965793,0.
 ,0.,-0.07193609,0.,0.,0.12323955,0.00002755,0.00211026,0.,-0.00077938,
 -0.00015112,0.,-0.01204171,-0.00916415,0.,-0.00061852,0.00046428,0.,-0
 .00029936,-0.00148179,0.,-0.32501392,-0.08258172,0.,0.33872534,-0.0047
 7376,-0.00518755,0.,0.00404498,-0.00608274,0.,0.02399061,0.01197119,0.
 ,-0.00020375,-0.00022791,0.,-0.02701655,0.00007883,0.,-0.08684578,-0.0
 7661493,0.,0.09080424,0.07606310,0.,0.,0.00847108,0.,0.,0.00585339,0.,
 0.,-0.00387191,0.,0.,-0.00054385,0.,0.,-0.00556260,0.,0.,-0.02463436,0
 .,0.,0.02028825\\-0.00037103,0.00002660,0.,-0.00017550,-0.00006244,0.,
 0.00030762,-0.00008189,0.,0.00000611,-0.00007068,0.,0.00039683,0.00022
 479,0.,-0.00014884,-0.00004994,0.,-0.00001519,0.00001355,0.\\\@


 IF AT FIRST YOU DON'T SUCCEED, TRY, TRY AGAIN.
 THEN GIVE UP;
 THERE'S NO USE BEING A DAMN FOOL ABOUT IT.

                                 -- W. C. FIELDS
 Job cpu time:  0 days  0 hours  4 minutes 28.5 seconds.
 File lengths (MBytes):  RWF=     17 Int=      0 D2E=      0 Chk=      6 Scr=      1
 Normal termination of Gaussian 03 at Fri Feb 17 07:23:16 2006.
