 Entering Gaussian System, Link 0=g09
 Initial command:
 /usr/local/gaussian/g09.b01.em64t.linda/g09/l1.exe /tmp/rdj3/g09-4531/Gau-16499.inp -scrdir=/tmp/rdj3/g09-4531/
 Entering Link 1 = /usr/local/gaussian/g09.b01.em64t.linda/g09/l1.exe PID=     16500.
  
 Copyright (c) 1988,1990,1992,1993,1995,1998,2003,2009,2010,
            Gaussian, Inc.  All Rights Reserved.
  
 This is part of the Gaussian(R) 09 program.  It is based on
 the Gaussian(R) 03 system (copyright 2003, Gaussian, Inc.),
 the Gaussian(R) 98 system (copyright 1998, Gaussian, Inc.),
 the Gaussian(R) 94 system (copyright 1995, Gaussian, Inc.),
 the Gaussian 92(TM) system (copyright 1992, Gaussian, Inc.),
 the Gaussian 90(TM) system (copyright 1990, Gaussian, Inc.),
 the Gaussian 88(TM) system (copyright 1988, Gaussian, Inc.),
 the Gaussian 86(TM) system (copyright 1986, Carnegie Mellon
 University), and the Gaussian 82(TM) system (copyright 1983,
 Carnegie Mellon University). Gaussian is a federally registered
 trademark of Gaussian, Inc.
  
 This software contains proprietary and confidential information,
 including trade secrets, belonging to Gaussian, Inc.
  
 This software is provided under written license and may be
 used, copied, transmitted, or stored only in accord with that
 written license.
  
 The following legend is applicable only to US Government
 contracts under FAR:
  
                    RESTRICTED RIGHTS LEGEND
  
 Use, reproduction and disclosure by the US Government is
 subject to restrictions as set forth in subparagraphs (a)
 and (c) of the Commercial Computer Software - Restricted
 Rights clause in FAR 52.227-19.
  
 Gaussian, Inc.
 340 Quinnipiac St., Bldg. 40, Wallingford CT 06492
  
  
 ---------------------------------------------------------------
 Warning -- This program may not be used in any manner that
 competes with the business of Gaussian, Inc. or will provide
 assistance to any competitor of Gaussian, Inc.  The licensee
 of this program is prohibited from giving any competitor of
 Gaussian, Inc. access to this program.  By using this program,
 the user acknowledges that Gaussian, Inc. is engaged in the
 business of creating and licensing software in the field of
 computational chemistry and represents and warrants to the
 licensee that it is not a competitor of Gaussian, Inc. and that
 it will not use this program in any manner prohibited above.
 ---------------------------------------------------------------
  

 Cite this work as:
 Gaussian 09, Revision B.01,
 M. J. Frisch, G. W. Trucks, H. B. Schlegel, G. E. Scuseria, 
 M. A. Robb, J. R. Cheeseman, G. Scalmani, V. Barone, B. Mennucci, 
 G. A. Petersson, H. Nakatsuji, M. Caricato, X. Li, H. P. Hratchian, 
 A. F. Izmaylov, J. Bloino, G. Zheng, J. L. Sonnenberg, M. Hada, 
 M. Ehara, K. Toyota, R. Fukuda, J. Hasegawa, M. Ishida, T. Nakajima, 
 Y. Honda, O. Kitao, H. Nakai, T. Vreven, J. A. Montgomery, Jr., 
 J. E. Peralta, F. Ogliaro, M. Bearpark, J. J. Heyd, E. Brothers, 
 K. N. Kudin, V. N. Staroverov, T. Keith, R. Kobayashi, J. Normand, 
 K. Raghavachari, A. Rendell, J. C. Burant, S. S. Iyengar, J. Tomasi, 
 M. Cossi, N. Rega, J. M. Millam, M. Klene, J. E. Knox, J. B. Cross, 
 V. Bakken, C. Adamo, J. Jaramillo, R. Gomperts, R. E. Stratmann, 
 O. Yazyev, A. J. Austin, R. Cammi, C. Pomelli, J. W. Ochterski, 
 R. L. Martin, K. Morokuma, V. G. Zakrzewski, G. A. Voth, 
 P. Salvador, J. J. Dannenberg, S. Dapprich, A. D. Daniels, 
 O. Farkas, J. B. Foresman, J. V. Ortiz, J. Cioslowski, 
 and D. J. Fox, Gaussian, Inc., Wallingford CT, 2010.
 
 ******************************************
 Gaussian 09:  EM64L-G09RevB.01 12-Aug-2010
                 1-Feb-2013 
 ******************************************
 %NProc=8
 Will use up to    8 processors via shared memory.
 %mem=424000000
 ------------------------------
 #MP3=FULL/6-31+G(d,p) opt freq
 ------------------------------
 1/18=20,19=15,38=1/1,3;
 2/9=110,12=2,17=6,18=5,40=1/2;
 3/5=1,6=6,7=111,11=9,16=1,25=1,30=1,71=1/1,2,3;
 4//1;
 5/5=2,38=5/2;
 8/6=4,9=120000,10=90/1,4;
 9/5=2,15=1/13;
 11/28=-10,29=200,42=3/11;
 10/5=8/2;
 6/7=2,8=2,9=2,10=2/1;
 7/12=3/1,2,3,16;
 1/18=20,19=15/3(2);
 2/9=110/2;
 99//99;
 2/9=110/2;
 3/5=1,6=6,7=111,11=9,16=1,25=1,30=1,71=1/1,2,3;
 4/5=5,16=3/1;
 5/5=2,38=5/2;
 8/6=4,9=120000,10=90/1,4;
 9/5=2,15=1/13;
 11/28=-10,29=200,42=3/11;
 10/5=8/2;
 7/12=3/1,2,3,16;
 1/18=20,19=15/3(-9);
 2/9=110/2;
 6/7=2,8=2,9=2,10=2/1;
 99//99;
 -----------------------------------------------------------------
 1htz 1H-Tetrazole casno=288948 state=1 config=1 method=71 basis=4
 -----------------------------------------------------------------
 Symbolic Z-matrix:
 Charge =  0 Multiplicity = 1
 N                    -0.71635  -0.90188   0. 
 N                    -1.09543   0.29146   0. 
 N                     0.        1.03885   0. 
 H                    -0.06141   2.03104   0. 
 N                     0.62221  -0.98959   0. 
 C                     1.0527    0.22569   0. 
 H                     2.07226   0.54297   0. 
 

 GradGradGradGradGradGradGradGradGradGradGradGradGradGradGradGradGradGrad
 Berny optimization.
 Initialization pass.
                           ----------------------------
                           !    Initial Parameters    !
                           ! (Angstroms and Degrees)  !
 --------------------------                            --------------------------
 ! Name  Definition              Value          Derivative Info.                !
 --------------------------------------------------------------------------------
 ! R1    R(1,2)                  1.2521         estimate D2E/DX2                !
 ! R2    R(1,5)                  1.3414         estimate D2E/DX2                !
 ! R3    R(2,3)                  1.3261         estimate D2E/DX2                !
 ! R4    R(3,4)                  0.9941         estimate D2E/DX2                !
 ! R5    R(3,6)                  1.3302         estimate D2E/DX2                !
 ! R6    R(5,6)                  1.2893         estimate D2E/DX2                !
 ! R7    R(6,7)                  1.0678         estimate D2E/DX2                !
 ! A1    A(2,1,5)              111.3725         estimate D2E/DX2                !
 ! A2    A(1,2,3)              106.6819         estimate D2E/DX2                !
 ! A3    A(2,3,4)              120.7632         estimate D2E/DX2                !
 ! A4    A(2,3,6)              108.0104         estimate D2E/DX2                !
 ! A5    A(4,3,6)              131.2264         estimate D2E/DX2                !
 ! A6    A(1,5,6)              105.7566         estimate D2E/DX2                !
 ! A7    A(3,6,5)              108.1786         estimate D2E/DX2                !
 ! A8    A(3,6,7)              125.0296         estimate D2E/DX2                !
 ! A9    A(5,6,7)              126.7918         estimate D2E/DX2                !
 ! D1    D(5,1,2,3)              0.0            estimate D2E/DX2                !
 ! D2    D(2,1,5,6)              0.0            estimate D2E/DX2                !
 ! D3    D(1,2,3,4)            180.0            estimate D2E/DX2                !
 ! D4    D(1,2,3,6)              0.0            estimate D2E/DX2                !
 ! D5    D(2,3,6,5)              0.0            estimate D2E/DX2                !
 ! D6    D(2,3,6,7)            180.0            estimate D2E/DX2                !
 ! D7    D(4,3,6,5)            180.0            estimate D2E/DX2                !
 ! D8    D(4,3,6,7)              0.0            estimate D2E/DX2                !
 ! D9    D(1,5,6,3)              0.0            estimate D2E/DX2                !
 ! D10   D(1,5,6,7)            180.0            estimate D2E/DX2                !
 --------------------------------------------------------------------------------
 Trust Radius=3.00D-01 FncErr=1.00D-07 GrdErr=1.00D-07
 Number of steps in this run=     36 maximum allowed number of steps=    100.
 GradGradGradGradGradGradGradGradGradGradGradGradGradGradGradGradGradGrad

                          Input orientation:                          
 ---------------------------------------------------------------------
 Center     Atomic      Atomic             Coordinates (Angstroms)
 Number     Number       Type             X           Y           Z
 ---------------------------------------------------------------------
      1          7           0       -0.716354   -0.901876    0.000000
      2          7           0       -1.095432    0.291457    0.000000
      3          7           0        0.000000    1.038852    0.000000
      4          1           0       -0.061413    2.031044    0.000000
      5          7           0        0.622207   -0.989594    0.000000
      6          6           0        1.052702    0.225686    0.000000
      7          1           0        2.072257    0.542966    0.000000
 ---------------------------------------------------------------------
                    Distance matrix (angstroms):
                    1          2          3          4          5
     1  N    0.000000
     2  N    1.252096   0.000000
     3  N    2.068717   1.326111   0.000000
     4  H    3.005157   2.023699   0.994091   0.000000
     5  N    1.341432   2.142749   2.121729   3.097029   0.000000
     6  C    2.097845   2.149141   1.330196   2.121455   1.289276
     7  H    3.140688   3.177658   2.130763   2.601331   2.109831
                    6          7
     6  C    0.000000
     7  H    1.067782   0.000000
 Stoichiometry    CH2N4
 Framework group  CS[SG(CH2N4)]
 Deg. of freedom    11
 Full point group                 CS      NOp   2
 Largest Abelian subgroup         CS      NOp   2
 Largest concise Abelian subgroup C1      NOp   1
                         Standard orientation:                         
 ---------------------------------------------------------------------
 Center     Atomic      Atomic             Coordinates (Angstroms)
 Number     Number       Type             X           Y           Z
 ---------------------------------------------------------------------
      1          7           0       -0.716354   -0.901876    0.000000
      2          7           0       -1.095432    0.291457    0.000000
      3          7           0        0.000000    1.038852    0.000000
      4          1           0       -0.061413    2.031044    0.000000
      5          7           0        0.622207   -0.989594    0.000000
      6          6           0        1.052702    0.225686    0.000000
      7          1           0        2.072257    0.542966    0.000000
 ---------------------------------------------------------------------
 Rotational constants (GHZ):     10.9197587     10.7346457      5.4132055
 Standard basis: 6-31+G(d,p) (6D, 7F)
 There are    78 symmetry adapted basis functions of A'  symmetry.
 There are    27 symmetry adapted basis functions of A"  symmetry.
 Integral buffers will be    131072 words long.
 Raffenetti 1 integral format.
 Two-electron integral symmetry is turned on.
   105 basis functions,   174 primitive gaussians,   105 cartesian basis functions
    18 alpha electrons       18 beta electrons
       nuclear repulsion energy       169.8297291688 Hartrees.
 NAtoms=    7 NActive=    7 NUniq=    7 SFac= 1.00D+00 NAtFMM=   50 NAOKFM=F Big=F
 One-electron integrals computed using PRISM.
 NBasis=   105 RedAO= T  NBF=    78    27
 NBsUse=   105 1.00D-06 NBFU=    78    27
 Harris functional with IExCor=  205 diagonalized for initial guess.
 ExpMin= 4.38D-02 ExpMax= 4.17D+03 ExpMxC= 6.27D+02 IAcc=2 IRadAn=         0 AccDes= 0.00D+00
 HarFok:  IExCor=  205 AccDes= 0.00D+00 IRadAn=         0 IDoV= 1
 ScaDFX=  1.000000  1.000000  1.000000  1.000000
 FoFCou: FMM=F IPFlag=           0 FMFlag=      100000 FMFlg1=           0
         NFxFlg=           0 DoJE=T BraDBF=F KetDBF=T FulRan=T
         Omega=  0.000000  0.000000  1.000000  0.000000  0.000000 ICntrl=     500 IOpCl=  0
         NMat0=    1 NMatS0=    1 NMatT0=    0 NMatD0=    1 NMtDS0=    0 NMtDT0=    0
         I1Cent=           4 NGrid=           0.
 Petite list used in FoFCou.
 Initial guess orbital symmetries:
       Occupied  (A') (A') (A') (A') (A') (A') (A') (A') (A') (A')
                 (A') (A') (A") (A') (A") (A') (A") (A')
       Virtual   (A") (A") (A') (A') (A') (A") (A') (A') (A') (A')
                 (A") (A") (A') (A') (A') (A') (A') (A") (A') (A")
                 (A') (A') (A') (A') (A') (A') (A') (A') (A') (A")
                 (A') (A') (A') (A') (A') (A") (A') (A") (A') (A")
                 (A") (A') (A') (A') (A') (A') (A") (A') (A') (A')
                 (A") (A") (A') (A") (A") (A') (A') (A') (A') (A')
                 (A") (A') (A') (A") (A") (A') (A") (A') (A') (A")
                 (A') (A') (A") (A') (A") (A') (A') (A') (A') (A')
                 (A') (A') (A') (A') (A') (A') (A')
 The electronic state of the initial guess is 1-A'.
 Requested convergence on RMS density matrix=1.00D-08 within 128 cycles.
 Requested convergence on MAX density matrix=1.00D-06.
 Requested convergence on             energy=1.00D-06.
 No special actions if energy rises.
 Keep R1 ints in memory in canonical form, NReq=16360281.
 SCF Done:  E(RHF) =  -256.767607493     A.U. after   15 cycles
             Convg  =    0.7249D-08             -V/T =  2.0018
 Range of M.O.s used for correlation:     1   105
 NBasis=   105 NAE=    18 NBE=    18 NFC=     0 NFV=     0
 NROrb=    105 NOA=    18 NOB=    18 NVA=    87 NVB=    87

 **** Warning!!: The largest alpha MO coefficient is  0.58430432D+02

 Semi-Direct transformation.
 ModeAB=           2 MOrb=            18 LenV=     423625982
 LASXX=      4882905 LTotXX=     4882905 LenRXX=     4882905
 LTotAB=     5051754 MaxLAS=    10517850 LenRXY=    10517850
 NonZer=    10827810 LenScr=    17008640 LnRSAI=           0
 LnScr1=           0 LExtra=           0 Total=     32409395
 MaxDsk=          -1 SrtSym=           F ITran=            4
 JobTyp=0 Pass  1:  I=   1 to  18.
 (rs|ai) integrals will be sorted in core.
 Spin components of T(2) and E(2):
     alpha-alpha T2 =       0.3752283056D-01 E2=     -0.1125861249D+00
     alpha-beta  T2 =       0.1882336830D+00 E2=     -0.5887187938D+00
     beta-beta   T2 =       0.3752283056D-01 E2=     -0.1125861249D+00
 ANorm=    0.1123957003D+01
 E2 =    -0.8138910436D+00 EUMP2 =    -0.25758149853709D+03
 R2 and R3 integrals will be kept in memory, NReq=    31794790.
 DD1Dir will call FoFMem   1 times, MxPair=       342
 NAB=   171 NAA=     0 NBB=     0.
 E3=        0.17949500D-02        EUMP3=      -0.25757970359D+03
 Largest amplitude= 5.48D-02
 Discarding MO integrals.
          IDoAtm=1111111
          Differentiating once with respect to electric field.
                with respect to dipole field.
          Differentiating once with respect to nuclear coordinates.
          Keep R1 ints in memory in canonical form, NReq=16308475.
          There are     1 degrees of freedom in the 1st order CPHF.  IDoFFX=0.
 LinEq1:  Iter=  0 NonCon=     1 RMS=3.75D-03 Max=3.60D-02
 AX will form     1 AO Fock derivatives at one time.
 LinEq1:  Iter=  1 NonCon=     1 RMS=9.59D-04 Max=1.16D-02
 LinEq1:  Iter=  2 NonCon=     1 RMS=3.56D-04 Max=6.57D-03
 LinEq1:  Iter=  3 NonCon=     1 RMS=1.09D-04 Max=1.50D-03
 LinEq1:  Iter=  4 NonCon=     1 RMS=4.54D-05 Max=7.46D-04
 LinEq1:  Iter=  5 NonCon=     1 RMS=1.39D-05 Max=1.10D-04
 LinEq1:  Iter=  6 NonCon=     1 RMS=5.05D-06 Max=5.16D-05
 LinEq1:  Iter=  7 NonCon=     1 RMS=2.44D-06 Max=5.26D-05
 LinEq1:  Iter=  8 NonCon=     1 RMS=6.83D-07 Max=6.20D-06
 LinEq1:  Iter=  9 NonCon=     1 RMS=3.47D-07 Max=4.35D-06
 LinEq1:  Iter= 10 NonCon=     1 RMS=7.61D-08 Max=7.62D-07
 LinEq1:  Iter= 11 NonCon=     1 RMS=2.68D-08 Max=2.95D-07
 LinEq1:  Iter= 12 NonCon=     1 RMS=1.02D-08 Max=1.03D-07
 LinEq1:  Iter= 13 NonCon=     1 RMS=2.11D-09 Max=1.87D-08
 LinEq1:  Iter= 14 NonCon=     1 RMS=3.66D-10 Max=3.61D-09
 LinEq1:  Iter= 15 NonCon=     0 RMS=6.68D-11 Max=7.35D-10
 Linear equations converged to 1.000D-10 1.000D-09 after    15 iterations.
 End of Minotr Frequency-dependent properties file   721 does not exist.
 End of Minotr Frequency-dependent properties file   722 does not exist.

 **********************************************************************

            Population analysis using the SCF density.

 **********************************************************************

 Orbital symmetries:
       Occupied  (A') (A') (A') (A') (A') (A') (A') (A') (A') (A')
                 (A') (A") (A') (A') (A') (A') (A") (A")
       Virtual   (A') (A') (A") (A') (A") (A') (A') (A") (A') (A")
                 (A") (A') (A') (A') (A") (A') (A") (A') (A') (A')
                 (A') (A') (A') (A') (A') (A') (A') (A') (A') (A")
                 (A') (A') (A') (A') (A') (A") (A') (A") (A') (A')
                 (A") (A') (A") (A') (A') (A') (A') (A") (A') (A')
                 (A") (A") (A') (A") (A') (A") (A') (A') (A') (A')
                 (A") (A') (A') (A") (A") (A') (A") (A') (A') (A")
                 (A') (A') (A') (A") (A") (A') (A') (A') (A') (A')
                 (A') (A') (A') (A') (A') (A') (A')
 The electronic state is 1-A'.
 Alpha  occ. eigenvalues --  -15.69154 -15.66998 -15.65055 -15.60923 -11.34029
 Alpha  occ. eigenvalues --   -1.52974  -1.27403  -1.21777  -0.92090  -0.90355
 Alpha  occ. eigenvalues --   -0.81588  -0.69535  -0.68991  -0.57839  -0.48129
 Alpha  occ. eigenvalues --   -0.46944  -0.46425  -0.43059
 Alpha virt. eigenvalues --    0.05156   0.08249   0.08842   0.10055   0.14045
 Alpha virt. eigenvalues --    0.14768   0.16339   0.18351   0.18971   0.20643
 Alpha virt. eigenvalues --    0.22251   0.23660   0.24718   0.27482   0.29058
 Alpha virt. eigenvalues --    0.30656   0.31142   0.31622   0.31974   0.33039
 Alpha virt. eigenvalues --    0.34793   0.35508   0.40302   0.42156   0.45334
 Alpha virt. eigenvalues --    0.48869   0.60607   0.67433   0.70980   0.86019
 Alpha virt. eigenvalues --    0.98645   1.00468   1.03359   1.06753   1.07571
 Alpha virt. eigenvalues --    1.10879   1.12993   1.13315   1.17040   1.18916
 Alpha virt. eigenvalues --    1.19643   1.22797   1.23072   1.27496   1.30246
 Alpha virt. eigenvalues --    1.32578   1.45472   1.48679   1.49467   1.55769
 Alpha virt. eigenvalues --    1.59433   1.61530   1.70462   1.80737   1.81404
 Alpha virt. eigenvalues --    1.81732   1.95111   2.19486   2.22760   2.27517
 Alpha virt. eigenvalues --    2.36996   2.41179   2.51589   2.54222   2.58156
 Alpha virt. eigenvalues --    2.65328   2.68438   2.72514   2.77845   2.85413
 Alpha virt. eigenvalues --    2.90312   2.95722   3.00007   3.00124   3.07202
 Alpha virt. eigenvalues --    3.16347   3.22189   3.31250   3.45544   3.53148
 Alpha virt. eigenvalues --    3.69714   4.08876   4.33165   4.40332   4.64623
 Alpha virt. eigenvalues --    4.69955   4.93935
          Condensed to atoms (all electrons):
              1          2          3          4          5          6
     1  N    6.386717   0.409575  -0.011672  -0.002399   0.192942   0.002234
     2  N    0.409575   6.463150   0.145915   0.007366   0.072967  -0.116659
     3  N   -0.011672   0.145915   6.875767   0.314188  -0.133401   0.272016
     4  H   -0.002399   0.007366   0.314188   0.306093   0.003050  -0.003307
     5  N    0.192942   0.072967  -0.133401   0.003050   6.817859   0.416203
     6  C    0.002234  -0.116659   0.272016  -0.003307   0.416203   4.865478
     7  H    0.002902   0.001304  -0.054308   0.002152  -0.027537   0.430250
              7
     1  N    0.002902
     2  N    0.001304
     3  N   -0.054308
     4  H    0.002152
     5  N   -0.027537
     6  C    0.430250
     7  H    0.437365
 Mulliken atomic charges:
              1
     1  N    0.019700
     2  N    0.016380
     3  N   -0.408506
     4  H    0.372857
     5  N   -0.342084
     6  C    0.133784
     7  H    0.207870
 Sum of Mulliken atomic charges =   0.00000
 Mulliken charges with hydrogens summed into heavy atoms:
              1
     1  N    0.019700
     2  N    0.016380
     3  N   -0.035650
     5  N   -0.342084
     6  C    0.341654
 Sum of Mulliken charges with hydrogens summed into heavy atoms =   0.00000
 Electronic spatial extent (au):  <R**2>=            245.7822
 Charge=              0.0000 electrons
 Dipole moment (field-independent basis, Debye):
    X=              2.7418    Y=              5.0659    Z=              0.0000  Tot=              5.7603
 Quadrupole moment (field-independent basis, Debye-Ang):
   XX=            -29.2260   YY=            -27.0535   ZZ=            -28.9946
   XY=              2.0991   XZ=              0.0000   YZ=              0.0000
 Traceless Quadrupole moment (field-independent basis, Debye-Ang):
   XX=             -0.8013   YY=              1.3712   ZZ=             -0.5699
   XY=              2.0991   XZ=              0.0000   YZ=              0.0000
 Octapole moment (field-independent basis, Debye-Ang**2):
  XXX=             13.3038  YYY=             23.8798  ZZZ=              0.0000  XYY=             -0.6574
  XXY=              5.3255  XXZ=              0.0000  XZZ=             -0.5116  YZZ=              0.7883
  YYZ=              0.0000  XYZ=              0.0000
 Hexadecapole moment (field-independent basis, Debye-Ang**3):
 XXXX=           -142.1361 YYYY=           -120.2020 ZZZZ=            -27.6847 XXXY=              7.4860
 XXXZ=              0.0000 YYYX=              0.2509 YYYZ=              0.0000 ZZZX=              0.0000
 ZZZY=              0.0000 XXYY=            -54.1369 XXZZ=            -31.0766 YYZZ=            -29.6574
 XXYZ=              0.0000 YYXZ=              0.0000 ZZXY=              0.1953
 N-N= 1.698297291688D+02 E-N=-9.406349277250D+02  KE= 2.563056398951D+02
 Symmetry A'   KE= 2.473021654246D+02
 Symmetry A"   KE= 9.003474470515D+00
 Calling FoFJK, ICntrl=      2127 FMM=F ISym2X=1 I1Cent= 0 IOpClX= 0 NMat=1 NMatS=1 NMatT=0.
 ***** Axes restored to original set *****
 -------------------------------------------------------------------
 Center     Atomic                   Forces (Hartrees/Bohr)
 Number     Number              X              Y              Z
 -------------------------------------------------------------------
      1        7          -0.009496577   -0.047870980    0.000000000
      2        7          -0.034169994    0.036393400    0.000000000
      3        7           0.003266281    0.016188478    0.000000000
      4        1          -0.000417350    0.008586486    0.000000000
      5        7           0.014066110   -0.030945742    0.000000000
      6        6           0.023408754    0.016562663    0.000000000
      7        1           0.003342777    0.001085695    0.000000000
 -------------------------------------------------------------------
 Cartesian Forces:  Max     0.047870980 RMS     0.018530104

 GradGradGradGradGradGradGradGradGradGradGradGradGradGradGradGradGradGrad
 Berny optimization.
 Internal  Forces:  Max     0.049362260 RMS     0.014155109
 Search for a local minimum.
 Step number   1 out of a maximum of   36
 All quantities printed in internal units (Hartrees-Bohrs-Radians)
 Mixed Optimization -- RFO/linear search
 Second derivative matrix not updated -- first step.
 ITU=  0
     Eigenvalues ---    0.02505   0.02639   0.02674   0.02834   0.16000
     Eigenvalues ---    0.16000   0.22605   0.24688   0.37512   0.48743
     Eigenvalues ---    0.50874   0.56606   0.58501   0.66925   0.78913
 RFO step:  Lambda=-7.34126353D-03 EMin= 2.50535213D-02
 Linear search not attempted -- first point.
 Iteration  1 RMS(Cart)=  0.02037690 RMS(Int)=  0.00003301
 Iteration  2 RMS(Cart)=  0.00001426 RMS(Int)=  0.00002718
 Iteration  3 RMS(Cart)=  0.00000000 RMS(Int)=  0.00002718
 ClnCor:  largest displacement from symmetrization is 5.39D-12 for atom     6.
 Variable       Old X    -DE/DX   Delta X   Delta X   Delta X     New X
                                 (Linear)    (Quad)   (Total)
    R1        2.36612   0.04936   0.00000   0.06123   0.06126   2.42738
    R2        2.53494   0.02328   0.00000   0.04236   0.04240   2.57734
    R3        2.50599   0.02297   0.00000   0.03736   0.03735   2.54334
    R4        1.87856   0.00860   0.00000   0.01737   0.01737   1.89593
    R5        2.51371   0.02224   0.00000   0.03422   0.03418   2.54789
    R6        2.43638   0.03273   0.00000   0.04483   0.04481   2.48119
    R7        2.01782   0.00351   0.00000   0.00919   0.00919   2.02701
    A1        1.94382  -0.00457   0.00000  -0.00649  -0.00641   1.93740
    A2        1.86195  -0.00189   0.00000  -0.00154  -0.00152   1.86043
    A3        2.10772  -0.00127   0.00000  -0.00142  -0.00139   2.10632
    A4        1.88514   0.00275   0.00000   0.00411   0.00406   1.88920
    A5        2.29033  -0.00148   0.00000  -0.00270  -0.00267   2.28766
    A6        1.84580   0.00052   0.00000   0.00092   0.00094   1.84674
    A7        1.88807   0.00319   0.00000   0.00299   0.00294   1.89101
    A8        2.18218  -0.00164   0.00000  -0.00176  -0.00173   2.18045
    A9        2.21293  -0.00155   0.00000  -0.00123  -0.00121   2.21173
    D1        0.00000   0.00000   0.00000   0.00000   0.00000   0.00000
    D2        0.00000   0.00000   0.00000   0.00000   0.00000   0.00000
    D3        3.14159   0.00000   0.00000   0.00000   0.00000   3.14159
    D4        0.00000   0.00000   0.00000   0.00000   0.00000   0.00000
    D5        0.00000   0.00000   0.00000   0.00000   0.00000   0.00000
    D6        3.14159   0.00000   0.00000   0.00000   0.00000   3.14159
    D7        3.14159   0.00000   0.00000   0.00000   0.00000   3.14159
    D8        0.00000   0.00000   0.00000   0.00000   0.00000   0.00000
    D9        0.00000   0.00000   0.00000   0.00000   0.00000   0.00000
   D10        3.14159   0.00000   0.00000   0.00000   0.00000   3.14159
         Item               Value     Threshold  Converged?
 Maximum Force            0.049362     0.000450     NO 
 RMS     Force            0.014155     0.000300     NO 
 Maximum Displacement     0.048706     0.001800     NO 
 RMS     Displacement     0.020374     0.001200     NO 
 Predicted change in Energy=-3.708738D-03
 GradGradGradGradGradGradGradGradGradGradGradGradGradGradGradGradGradGrad

                          Input orientation:                          
 ---------------------------------------------------------------------
 Center     Atomic      Atomic             Coordinates (Angstroms)
 Number     Number       Type             X           Y           Z
 ---------------------------------------------------------------------
      1          7           0       -0.730818   -0.927650    0.000000
      2          7           0       -1.116653    0.297548    0.000000
      3          7           0       -0.001854    1.051609    0.000000
      4          1           0       -0.061203    2.053136    0.000000
      5          7           0        0.630470   -1.011504    0.000000
      6          6           0        1.065196    0.227429    0.000000
      7          1           0        2.088828    0.547968    0.000000
 ---------------------------------------------------------------------
                    Distance matrix (angstroms):
                    1          2          3          4          5
     1  N    0.000000
     2  N    1.284515   0.000000
     3  N    2.109231   1.345876   0.000000
     4  H    3.055073   2.048429   1.003285   0.000000
     5  N    1.363868   2.183130   2.157839   3.141725   0.000000
     6  C    2.135387   2.182975   1.348283   2.145223   1.312990
     7  H    3.182429   3.215247   2.150490   2.624532   2.135126
                    6          7
     6  C    0.000000
     7  H    1.072645   0.000000
 Stoichiometry    CH2N4
 Framework group  CS[SG(CH2N4)]
 Deg. of freedom    11
 Full point group                 CS      NOp   2
 Largest Abelian subgroup         CS      NOp   2
 Largest concise Abelian subgroup C1      NOp   1
                         Standard orientation:                         
 ---------------------------------------------------------------------
 Center     Atomic      Atomic             Coordinates (Angstroms)
 Number     Number       Type             X           Y           Z
 ---------------------------------------------------------------------
      1          7           0       -0.726546   -0.923974    0.000000
      2          7           0       -1.113877    0.300752    0.000000
      3          7           0        0.000000    1.056173    0.000000
      4          1           0       -0.060572    2.057628    0.000000
      5          7           0        0.634843   -1.006166    0.000000
      6          6           0        1.068056    0.233298    0.000000
      7          1           0        2.091296    0.555086    0.000000
 ---------------------------------------------------------------------
 Rotational constants (GHZ):     10.5312178     10.3954208      5.2314394
 Standard basis: 6-31+G(d,p) (6D, 7F)
 There are    78 symmetry adapted basis functions of A'  symmetry.
 There are    27 symmetry adapted basis functions of A"  symmetry.
 Integral buffers will be    131072 words long.
 Raffenetti 1 integral format.
 Two-electron integral symmetry is turned on.
   105 basis functions,   174 primitive gaussians,   105 cartesian basis functions
    18 alpha electrons       18 beta electrons
       nuclear repulsion energy       166.9596747475 Hartrees.
 NAtoms=    7 NActive=    7 NUniq=    7 SFac= 1.00D+00 NAtFMM=   50 NAOKFM=F Big=F
 One-electron integrals computed using PRISM.
 NBasis=   105 RedAO= T  NBF=    78    27
 NBsUse=   105 1.00D-06 NBFU=    78    27
 Initial guess read from the read-write file.
 B after Tr=     0.000000    0.000000    0.000000
         Rot=    1.000000    0.000000    0.000000    0.000000 Ang=   0.00 deg.
 Initial guess orbital symmetries:
       Occupied  (A') (A') (A') (A') (A') (A') (A') (A') (A') (A')
                 (A') (A") (A') (A') (A') (A') (A") (A")
       Virtual   (A') (A') (A") (A') (A") (A') (A') (A") (A') (A")
                 (A") (A') (A') (A') (A") (A') (A") (A') (A') (A')
                 (A') (A') (A') (A') (A') (A') (A') (A') (A') (A")
                 (A') (A') (A') (A') (A') (A") (A') (A") (A') (A')
                 (A") (A') (A") (A') (A') (A') (A') (A") (A') (A')
                 (A") (A") (A') (A") (A') (A") (A') (A') (A') (A')
                 (A") (A') (A') (A") (A") (A') (A") (A') (A') (A")
                 (A') (A') (A') (A") (A") (A') (A') (A') (A') (A')
                 (A') (A') (A') (A') (A') (A') (A')
 Harris functional with IExCor=  205 diagonalized for initial guess.
 ExpMin= 4.38D-02 ExpMax= 4.17D+03 ExpMxC= 6.27D+02 IAcc=2 IRadAn=         0 AccDes= 0.00D+00
 HarFok:  IExCor=  205 AccDes= 0.00D+00 IRadAn=         0 IDoV= 1
 ScaDFX=  1.000000  1.000000  1.000000  1.000000
 FoFCou: FMM=F IPFlag=           0 FMFlag=      100000 FMFlg1=           0
         NFxFlg=           0 DoJE=T BraDBF=F KetDBF=T FulRan=T
         Omega=  0.000000  0.000000  1.000000  0.000000  0.000000 ICntrl=     500 IOpCl=  0
         NMat0=    1 NMatS0=    1 NMatT0=    0 NMatD0=    1 NMtDS0=    0 NMtDT0=    0
         I1Cent=           4 NGrid=           0.
 Petite list used in FoFCou.
 Requested convergence on RMS density matrix=1.00D-08 within 128 cycles.
 Requested convergence on MAX density matrix=1.00D-06.
 Requested convergence on             energy=1.00D-06.
 No special actions if energy rises.
 Keep R1 ints in memory in canonical form, NReq=16360281.
 SCF Done:  E(RHF) =  -256.763997959     A.U. after   13 cycles
             Convg  =    0.3701D-08             -V/T =  2.0033
 Range of M.O.s used for correlation:     1   105
 NBasis=   105 NAE=    18 NBE=    18 NFC=     0 NFV=     0
 NROrb=    105 NOA=    18 NOB=    18 NVA=    87 NVB=    87

 **** Warning!!: The largest alpha MO coefficient is  0.54435640D+02

 Semi-Direct transformation.
 ModeAB=           2 MOrb=            18 LenV=     423626159
 LASXX=      4882905 LTotXX=     4882905 LenRXX=     4882905
 LTotAB=     5051754 MaxLAS=    10517850 LenRXY=    10517850
 NonZer=    10820250 LenScr=    16997376 LnRSAI=           0
 LnScr1=           0 LExtra=           0 Total=     32398131
 MaxDsk=          -1 SrtSym=           F ITran=            4
 JobTyp=0 Pass  1:  I=   1 to  18.
 (rs|ai) integrals will be sorted in core.
 Spin components of T(2) and E(2):
     alpha-alpha T2 =       0.3887584287D-01 E2=     -0.1137877195D+00
     alpha-beta  T2 =       0.1954257946D+00 E2=     -0.5962188127D+00
     beta-beta   T2 =       0.3887584287D-01 E2=     -0.1137877195D+00
 ANorm=    0.1128351665D+01
 E2 =    -0.8237942517D+00 EUMP2 =    -0.25758779221080D+03
 R2 and R3 integrals will be kept in memory, NReq=    31794790.
 DD1Dir will call FoFMem   1 times, MxPair=       342
 NAB=   171 NAA=     0 NBB=     0.
 E3=        0.43519292D-02        EUMP3=      -0.25758344028D+03
 Largest amplitude= 5.73D-02
 Discarding MO integrals.
          IDoAtm=1111111
          Differentiating once with respect to electric field.
                with respect to dipole field.
          Differentiating once with respect to nuclear coordinates.
          Keep R1 ints in memory in canonical form, NReq=16308475.
          There are     1 degrees of freedom in the 1st order CPHF.  IDoFFX=0.
 LinEq1:  Iter=  0 NonCon=     1 RMS=3.86D-03 Max=3.70D-02
 AX will form     1 AO Fock derivatives at one time.
 LinEq1:  Iter=  1 NonCon=     1 RMS=1.02D-03 Max=1.19D-02
 LinEq1:  Iter=  2 NonCon=     1 RMS=3.86D-04 Max=7.29D-03
 LinEq1:  Iter=  3 NonCon=     1 RMS=1.21D-04 Max=1.41D-03
 LinEq1:  Iter=  4 NonCon=     1 RMS=5.13D-05 Max=7.15D-04
 LinEq1:  Iter=  5 NonCon=     1 RMS=1.41D-05 Max=8.10D-05
 LinEq1:  Iter=  6 NonCon=     1 RMS=4.64D-06 Max=6.84D-05
 LinEq1:  Iter=  7 NonCon=     1 RMS=2.36D-06 Max=5.16D-05
 LinEq1:  Iter=  8 NonCon=     1 RMS=7.87D-07 Max=7.57D-06
 LinEq1:  Iter=  9 NonCon=     1 RMS=4.32D-07 Max=5.32D-06
 LinEq1:  Iter= 10 NonCon=     1 RMS=8.61D-08 Max=7.90D-07
 LinEq1:  Iter= 11 NonCon=     1 RMS=1.85D-08 Max=2.16D-07
 LinEq1:  Iter= 12 NonCon=     1 RMS=8.27D-09 Max=8.92D-08
 LinEq1:  Iter= 13 NonCon=     1 RMS=2.68D-09 Max=2.61D-08
 LinEq1:  Iter= 14 NonCon=     1 RMS=5.07D-10 Max=4.21D-09
 LinEq1:  Iter= 15 NonCon=     0 RMS=9.41D-11 Max=8.55D-10
 Linear equations converged to 1.000D-10 1.000D-09 after    15 iterations.
 End of Minotr Frequency-dependent properties file   721 does not exist.
 End of Minotr Frequency-dependent properties file   722 does not exist.
 Calling FoFJK, ICntrl=      2127 FMM=F ISym2X=1 I1Cent= 0 IOpClX= 0 NMat=1 NMatS=1 NMatT=0.
 ***** Axes restored to original set *****
 -------------------------------------------------------------------
 Center     Atomic                   Forces (Hartrees/Bohr)
 Number     Number              X              Y              Z
 -------------------------------------------------------------------
      1        7           0.002421276   -0.004487685    0.000000000
      2        7          -0.004733147    0.007728800    0.000000000
      3        7           0.002034227   -0.003964272    0.000000000
      4        1          -0.000185533   -0.000308121    0.000000000
      5        7           0.001936026   -0.000338869    0.000000000
      6        6          -0.001144651    0.001581108    0.000000000
      7        1          -0.000328197   -0.000210961    0.000000000
 -------------------------------------------------------------------
 Cartesian Forces:  Max     0.007728800 RMS     0.002544342

 GradGradGradGradGradGradGradGradGradGradGradGradGradGradGradGradGradGrad
 Berny optimization.
 Using GEDIIS/GDIIS optimizer.
 Internal  Forces:  Max     0.005881815 RMS     0.001542944
 Search for a local minimum.
 Step number   2 out of a maximum of   36
 All quantities printed in internal units (Hartrees-Bohrs-Radians)
 Mixed Optimization -- RFO/linear search
 Update second derivatives using D2CorX and points    1    2
 DE= -3.74D-03 DEPred=-3.71D-03 R= 1.01D+00
 SS=  1.41D+00  RLast= 1.03D-01 DXNew= 5.0454D-01 3.0875D-01
 Trust test= 1.01D+00 RLast= 1.03D-01 DXMaxT set to 3.09D-01
 ITU=  1  0
 Use linear search instead of GDIIS.
     Eigenvalues ---    0.02505   0.02639   0.02675   0.02834   0.16000
     Eigenvalues ---    0.16001   0.22542   0.24618   0.37557   0.48831
     Eigenvalues ---    0.50459   0.56560   0.60065   0.68946   0.73474
 RFO step:  Lambda=-1.33425144D-04 EMin= 2.50524794D-02
 Quartic linear search produced a step of  0.05080.
 Iteration  1 RMS(Cart)=  0.00369585 RMS(Int)=  0.00001561
 Iteration  2 RMS(Cart)=  0.00001445 RMS(Int)=  0.00000614
 Iteration  3 RMS(Cart)=  0.00000000 RMS(Int)=  0.00000614
 ClnCor:  largest displacement from symmetrization is 2.53D-13 for atom     6.
 Variable       Old X    -DE/DX   Delta X   Delta X   Delta X     New X
                                 (Linear)    (Quad)   (Total)
    R1        2.42738   0.00588   0.00311   0.00637   0.00948   2.43686
    R2        2.57734   0.00097   0.00215   0.00128   0.00343   2.58076
    R3        2.54334  -0.00033   0.00190  -0.00167   0.00023   2.54357
    R4        1.89593  -0.00030   0.00088  -0.00111  -0.00023   1.89570
    R5        2.54789  -0.00139   0.00174  -0.00437  -0.00264   2.54525
    R6        2.48119  -0.00060   0.00228  -0.00266  -0.00039   2.48080
    R7        2.02701  -0.00038   0.00047  -0.00129  -0.00082   2.02618
    A1        1.93740   0.00069  -0.00033   0.00695   0.00662   1.94402
    A2        1.86043  -0.00336  -0.00008  -0.01205  -0.01211   1.84832
    A3        2.10632  -0.00150  -0.00007  -0.00598  -0.00605   2.10027
    A4        1.88920   0.00261   0.00021   0.00940   0.00962   1.89882
    A5        2.28766  -0.00111  -0.00014  -0.00343  -0.00357   2.28410
    A6        1.84674  -0.00076   0.00005  -0.00396  -0.00393   1.84281
    A7        1.89101   0.00083   0.00015  -0.00034  -0.00020   1.89081
    A8        2.18045  -0.00031  -0.00009   0.00086   0.00078   2.18123
    A9        2.21173  -0.00052  -0.00006  -0.00052  -0.00058   2.21115
    D1        0.00000   0.00000   0.00000   0.00000   0.00000   0.00000
    D2        0.00000   0.00000   0.00000   0.00000   0.00000   0.00000
    D3        3.14159   0.00000   0.00000   0.00000   0.00000   3.14159
    D4        0.00000   0.00000   0.00000   0.00000   0.00000   0.00000
    D5        0.00000   0.00000   0.00000   0.00000   0.00000   0.00000
    D6        3.14159   0.00000   0.00000   0.00000   0.00000   3.14159
    D7        3.14159   0.00000   0.00000   0.00000   0.00000   3.14159
    D8        0.00000   0.00000   0.00000   0.00000   0.00000   0.00000
    D9        0.00000   0.00000   0.00000   0.00000   0.00000   0.00000
   D10        3.14159   0.00000   0.00000   0.00000   0.00000   3.14159
         Item               Value     Threshold  Converged?
 Maximum Force            0.005882     0.000450     NO 
 RMS     Force            0.001543     0.000300     NO 
 Maximum Displacement     0.011002     0.001800     NO 
 RMS     Displacement     0.003699     0.001200     NO 
 Predicted change in Energy=-7.392622D-05
 GradGradGradGradGradGradGradGradGradGradGradGradGradGradGradGradGradGrad

                          Input orientation:                          
 ---------------------------------------------------------------------
 Center     Atomic      Atomic             Coordinates (Angstroms)
 Number     Number       Type             X           Y           Z
 ---------------------------------------------------------------------
      1          7           0       -0.729281   -0.925839    0.000000
      2          7           0       -1.122475    0.302287    0.000000
      3          7           0       -0.002063    1.048204    0.000000
      4          1           0       -0.060108    2.049685    0.000000
      5          7           0        0.633658   -1.012335    0.000000
      6          6           0        1.065750    0.227299    0.000000
      7          1           0        2.088486    0.549234    0.000000
 ---------------------------------------------------------------------
                    Distance matrix (angstroms):
                    1          2          3          4          5
     1  N    0.000000
     2  N    1.289533   0.000000
     3  N    2.103732   1.345999   0.000000
     4  H    3.049842   2.044999   1.003162   0.000000
     5  N    1.365681   2.193681   2.156377   3.139630   0.000000
     6  C    2.133510   2.189509   1.346889   2.142112   1.312782
     7  H    3.180511   3.220443   2.149271   2.620650   2.134250
                    6          7
     6  C    0.000000
     7  H    1.072209   0.000000
 Stoichiometry    CH2N4
 Framework group  CS[SG(CH2N4)]
 Deg. of freedom    11
 Full point group                 CS      NOp   2
 Largest Abelian subgroup         CS      NOp   2
 Largest concise Abelian subgroup C1      NOp   1
                         Standard orientation:                         
 ---------------------------------------------------------------------
 Center     Atomic      Atomic             Coordinates (Angstroms)
 Number     Number       Type             X           Y           Z
 ---------------------------------------------------------------------
      1          7           0       -0.724926   -0.922485    0.000000
      2          7           0       -1.119545    0.305184    0.000000
      3          7           0        0.000000    1.052401    0.000000
      4          1           0       -0.059207    2.053814    0.000000
      5          7           0        0.638112   -1.007399    0.000000
      6          6           0        1.068765    0.232736    0.000000
      7          1           0        2.091127    0.555858    0.000000
 ---------------------------------------------------------------------
 Rotational constants (GHZ):     10.5707746     10.3308111      5.2247077
 Standard basis: 6-31+G(d,p) (6D, 7F)
 There are    78 symmetry adapted basis functions of A'  symmetry.
 There are    27 symmetry adapted basis functions of A"  symmetry.
 Integral buffers will be    131072 words long.
 Raffenetti 1 integral format.
 Two-electron integral symmetry is turned on.
   105 basis functions,   174 primitive gaussians,   105 cartesian basis functions
    18 alpha electrons       18 beta electrons
       nuclear repulsion energy       166.8463497552 Hartrees.
 NAtoms=    7 NActive=    7 NUniq=    7 SFac= 1.00D+00 NAtFMM=   50 NAOKFM=F Big=F
 One-electron integrals computed using PRISM.
 NBasis=   105 RedAO= T  NBF=    78    27
 NBsUse=   105 1.00D-06 NBFU=    78    27
 Initial guess read from the read-write file.
 B after Tr=     0.000000    0.000000    0.000000
         Rot=    1.000000    0.000000    0.000000    0.000000 Ang=   0.00 deg.
 Initial guess orbital symmetries:
       Occupied  (A') (A') (A') (A') (A') (A') (A') (A') (A') (A')
                 (A') (A') (A") (A') (A') (A') (A") (A")
       Virtual   (A') (A') (A") (A') (A") (A') (A') (A") (A') (A")
                 (A") (A') (A') (A') (A") (A') (A") (A') (A') (A')
                 (A') (A') (A') (A') (A') (A') (A') (A') (A') (A")
                 (A') (A') (A') (A') (A') (A") (A') (A") (A') (A')
                 (A") (A') (A") (A') (A') (A') (A') (A') (A") (A')
                 (A") (A") (A') (A") (A") (A') (A') (A') (A') (A')
                 (A") (A') (A') (A") (A") (A') (A") (A') (A') (A")
                 (A') (A') (A") (A') (A") (A') (A') (A') (A') (A')
                 (A') (A') (A') (A') (A') (A') (A')
 Requested convergence on RMS density matrix=1.00D-08 within 128 cycles.
 Requested convergence on MAX density matrix=1.00D-06.
 Requested convergence on             energy=1.00D-06.
 No special actions if energy rises.
 Keep R1 ints in memory in canonical form, NReq=16360281.
 SCF Done:  E(RHF) =  -256.763494830     A.U. after   12 cycles
             Convg  =    0.5873D-08             -V/T =  2.0034
 Range of M.O.s used for correlation:     1   105
 NBasis=   105 NAE=    18 NBE=    18 NFC=     0 NFV=     0
 NROrb=    105 NOA=    18 NOB=    18 NVA=    87 NVB=    87

 **** Warning!!: The largest alpha MO coefficient is  0.54067519D+02

 Semi-Direct transformation.
 ModeAB=           2 MOrb=            18 LenV=     423626159
 LASXX=      4882905 LTotXX=     4882905 LenRXX=     4882905
 LTotAB=     5051754 MaxLAS=    10517850 LenRXY=    10517850
 NonZer=    10820250 LenScr=    16997376 LnRSAI=           0
 LnScr1=           0 LExtra=           0 Total=     32398131
 MaxDsk=          -1 SrtSym=           F ITran=            4
 JobTyp=0 Pass  1:  I=   1 to  18.
 (rs|ai) integrals will be sorted in core.
 Spin components of T(2) and E(2):
     alpha-alpha T2 =       0.3898191246D-01 E2=     -0.1139086791D+00
     alpha-beta  T2 =       0.1959122856D+00 E2=     -0.5967779557D+00
     beta-beta   T2 =       0.3898191246D-01 E2=     -0.1139086791D+00
 ANorm=    0.1128661203D+01
 E2 =    -0.8245953139D+00 EUMP2 =    -0.25758809014429D+03
 R2 and R3 integrals will be kept in memory, NReq=    31794790.
 DD1Dir will call FoFMem   1 times, MxPair=       342
 NAB=   171 NAA=     0 NBB=     0.
 E3=        0.46051948D-02        EUMP3=      -0.25758348495D+03
 Largest amplitude= 5.85D-02
 Discarding MO integrals.
          IDoAtm=1111111
          Differentiating once with respect to electric field.
                with respect to dipole field.
          Differentiating once with respect to nuclear coordinates.
          Keep R1 ints in memory in canonical form, NReq=16308475.
          There are     1 degrees of freedom in the 1st order CPHF.  IDoFFX=0.
 LinEq1:  Iter=  0 NonCon=     1 RMS=3.86D-03 Max=3.70D-02
 AX will form     1 AO Fock derivatives at one time.
 LinEq1:  Iter=  1 NonCon=     1 RMS=1.02D-03 Max=1.19D-02
 LinEq1:  Iter=  2 NonCon=     1 RMS=3.88D-04 Max=7.41D-03
 LinEq1:  Iter=  3 NonCon=     1 RMS=1.21D-04 Max=1.33D-03
 LinEq1:  Iter=  4 NonCon=     1 RMS=5.16D-05 Max=7.13D-04
 LinEq1:  Iter=  5 NonCon=     1 RMS=1.39D-05 Max=8.19D-05
 LinEq1:  Iter=  6 NonCon=     1 RMS=4.29D-06 Max=6.37D-05
 LinEq1:  Iter=  7 NonCon=     1 RMS=1.82D-06 Max=2.54D-05
 LinEq1:  Iter=  8 NonCon=     1 RMS=4.95D-07 Max=6.30D-06
 LinEq1:  Iter=  9 NonCon=     1 RMS=8.52D-08 Max=9.44D-07
 LinEq1:  Iter= 10 NonCon=     1 RMS=3.60D-08 Max=5.97D-07
 LinEq1:  Iter= 11 NonCon=     1 RMS=1.31D-08 Max=1.37D-07
 LinEq1:  Iter= 12 NonCon=     1 RMS=4.24D-09 Max=6.82D-08
 LinEq1:  Iter= 13 NonCon=     1 RMS=1.85D-09 Max=2.05D-08
 LinEq1:  Iter= 14 NonCon=     1 RMS=5.15D-10 Max=3.80D-09
 LinEq1:  Iter= 15 NonCon=     0 RMS=9.62D-11 Max=9.19D-10
 Linear equations converged to 1.000D-10 1.000D-09 after    15 iterations.
 End of Minotr Frequency-dependent properties file   721 does not exist.
 End of Minotr Frequency-dependent properties file   722 does not exist.
 Calling FoFJK, ICntrl=      2127 FMM=F ISym2X=1 I1Cent= 0 IOpClX= 0 NMat=1 NMatS=1 NMatT=0.
 ***** Axes restored to original set *****
 -------------------------------------------------------------------
 Center     Atomic                   Forces (Hartrees/Bohr)
 Number     Number              X              Y              Z
 -------------------------------------------------------------------
      1        7          -0.000390145   -0.004107777    0.000000000
      2        7           0.002947244    0.000913644    0.000000000
      3        7           0.000595148    0.000816867    0.000000000
      4        1           0.000282543    0.000049761    0.000000000
      5        7          -0.002039313    0.000950756    0.000000000
      6        6          -0.001331460    0.001233478    0.000000000
      7        1          -0.000064017    0.000143273    0.000000000
 -------------------------------------------------------------------
 Cartesian Forces:  Max     0.004107777 RMS     0.001309897

 GradGradGradGradGradGradGradGradGradGradGradGradGradGradGradGradGradGrad
 Berny optimization.
 Using GEDIIS/GDIIS optimizer.
 Internal  Forces:  Max     0.003031339 RMS     0.001084138
 Search for a local minimum.
 Step number   3 out of a maximum of   36
 All quantities printed in internal units (Hartrees-Bohrs-Radians)
 Mixed Optimization -- RFO/linear search
 Update second derivatives using D2CorX and points    1    2    3
 DE= -4.47D-05 DEPred=-7.39D-05 R= 6.04D-01
 SS=  1.41D+00  RLast= 2.14D-02 DXNew= 5.1925D-01 6.4220D-02
 Trust test= 6.04D-01 RLast= 2.14D-02 DXMaxT set to 3.09D-01
 ITU=  1  1  0
 Use linear search instead of GDIIS.
     Eigenvalues ---    0.02505   0.02638   0.02674   0.02834   0.16000
     Eigenvalues ---    0.16046   0.22500   0.37417   0.39271   0.43239
     Eigenvalues ---    0.48982   0.54565   0.62485   0.66770   0.72736
 RFO step:  Lambda=-3.94850769D-05 EMin= 2.50544646D-02
 Quartic linear search produced a step of -0.28707.
 Iteration  1 RMS(Cart)=  0.00213006 RMS(Int)=  0.00000481
 Iteration  2 RMS(Cart)=  0.00000295 RMS(Int)=  0.00000325
 Iteration  3 RMS(Cart)=  0.00000000 RMS(Int)=  0.00000325
 ClnCor:  largest displacement from symmetrization is 8.82D-15 for atom     6.
 Variable       Old X    -DE/DX   Delta X   Delta X   Delta X     New X
                                 (Linear)    (Quad)   (Total)
    R1        2.43686   0.00166  -0.00272   0.00671   0.00398   2.44085
    R2        2.58076  -0.00137  -0.00098   0.00017  -0.00081   2.57996
    R3        2.54357  -0.00034  -0.00007  -0.00029  -0.00036   2.54321
    R4        1.89570   0.00003   0.00007  -0.00009  -0.00002   1.89568
    R5        2.54525  -0.00203   0.00076  -0.00404  -0.00329   2.54196
    R6        2.48080   0.00110   0.00011   0.00084   0.00096   2.48176
    R7        2.02618  -0.00002   0.00024  -0.00049  -0.00026   2.02592
    A1        1.94402  -0.00303  -0.00190  -0.00458  -0.00647   1.93755
    A2        1.84832   0.00247   0.00348   0.00109   0.00456   1.85288
    A3        2.10027   0.00093   0.00174   0.00023   0.00197   2.10224
    A4        1.89882  -0.00131  -0.00276   0.00064  -0.00213   1.89669
    A5        2.28410   0.00039   0.00102  -0.00087   0.00016   2.28425
    A6        1.84281   0.00151   0.00113   0.00221   0.00335   1.84616
    A7        1.89081   0.00037   0.00006   0.00063   0.00069   1.89150
    A8        2.18123  -0.00034  -0.00022  -0.00066  -0.00089   2.18034
    A9        2.21115  -0.00003   0.00017   0.00003   0.00020   2.21135
    D1        0.00000   0.00000   0.00000   0.00000   0.00000   0.00000
    D2        0.00000   0.00000   0.00000   0.00000   0.00000   0.00000
    D3        3.14159   0.00000   0.00000   0.00000   0.00000   3.14159
    D4        0.00000   0.00000   0.00000   0.00000   0.00000   0.00000
    D5        0.00000   0.00000   0.00000   0.00000   0.00000   0.00000
    D6        3.14159   0.00000   0.00000   0.00000   0.00000   3.14159
    D7        3.14159   0.00000   0.00000   0.00000   0.00000   3.14159
    D8        0.00000   0.00000   0.00000   0.00000   0.00000   0.00000
    D9        0.00000   0.00000   0.00000   0.00000   0.00000   0.00000
   D10        3.14159   0.00000   0.00000   0.00000   0.00000   3.14159
         Item               Value     Threshold  Converged?
 Maximum Force            0.003031     0.000450     NO 
 RMS     Force            0.001084     0.000300     NO 
 Maximum Displacement     0.007181     0.001800     NO 
 RMS     Displacement     0.002130     0.001200     NO 
 Predicted change in Energy=-2.831153D-05
 GradGradGradGradGradGradGradGradGradGradGradGradGradGradGradGradGradGrad

                          Input orientation:                          
 ---------------------------------------------------------------------
 Center     Atomic      Atomic             Coordinates (Angstroms)
 Number     Number       Type             X           Y           Z
 ---------------------------------------------------------------------
      1          7           0       -0.730518   -0.929639    0.000000
      2          7           0       -1.120331    0.301776    0.000000
      3          7           0       -0.001043    1.049038    0.000000
      4          1           0       -0.058408    2.050547    0.000000
      5          7           0        0.632264   -1.011746    0.000000
      6          6           0        1.064706    0.228305    0.000000
      7          1           0        2.087296    0.550254    0.000000
 ---------------------------------------------------------------------
                    Distance matrix (angstroms):
                    1          2          3          4          5
     1  N    0.000000
     2  N    1.291641   0.000000
     3  N    2.108862   1.345811   0.000000
     4  H    3.055035   2.045943   1.003150   0.000000
     5  N    1.365254   2.190190   2.155901   3.139214   0.000000
     6  C    2.136274   2.186272   1.345149   2.140550   1.313290
     7  H    3.182791   3.217237   2.147079   2.618192   2.134704
                    6          7
     6  C    0.000000
     7  H    1.072073   0.000000
 Stoichiometry    CH2N4
 Framework group  CS[SG(CH2N4)]
 Deg. of freedom    11
 Full point group                 CS      NOp   2
 Largest Abelian subgroup         CS      NOp   2
 Largest concise Abelian subgroup C1      NOp   1
                         Standard orientation:                         
 ---------------------------------------------------------------------
 Center     Atomic      Atomic             Coordinates (Angstroms)
 Number     Number       Type             X           Y           Z
 ---------------------------------------------------------------------
      1          7           0       -0.725158   -0.926685    0.000000
      2          7           0       -1.117656    0.303877    0.000000
      3          7           0        0.000000    1.053579    0.000000
      4          1           0       -0.059549    2.054960    0.000000
      5          7           0        0.637800   -1.005819    0.000000
      6          6           0        1.067537    0.235171    0.000000
      7          1           0        2.089422    0.559349    0.000000
 ---------------------------------------------------------------------
 Rotational constants (GHZ):     10.5337887     10.3639904      5.2240999
 Standard basis: 6-31+G(d,p) (6D, 7F)
 There are    78 symmetry adapted basis functions of A'  symmetry.
 There are    27 symmetry adapted basis functions of A"  symmetry.
 Integral buffers will be    131072 words long.
 Raffenetti 1 integral format.
 Two-electron integral symmetry is turned on.
   105 basis functions,   174 primitive gaussians,   105 cartesian basis functions
    18 alpha electrons       18 beta electrons
       nuclear repulsion energy       166.8306667285 Hartrees.
 NAtoms=    7 NActive=    7 NUniq=    7 SFac= 1.00D+00 NAtFMM=   50 NAOKFM=F Big=F
 One-electron integrals computed using PRISM.
 NBasis=   105 RedAO= T  NBF=    78    27
 NBsUse=   105 1.00D-06 NBFU=    78    27
 Initial guess read from the read-write file.
 B after Tr=     0.000000    0.000000    0.000000
         Rot=    1.000000    0.000000    0.000000    0.000000 Ang=   0.00 deg.
 Initial guess orbital symmetries:
       Occupied  (A') (A') (A') (A') (A') (A') (A') (A') (A') (A')
                 (A') (A') (A") (A') (A') (A') (A") (A")
       Virtual   (A') (A') (A") (A') (A") (A') (A') (A") (A') (A")
                 (A") (A') (A') (A') (A") (A') (A") (A') (A') (A')
                 (A') (A') (A') (A') (A') (A') (A') (A') (A') (A")
                 (A') (A') (A') (A') (A') (A") (A') (A") (A') (A')
                 (A") (A') (A") (A') (A') (A') (A') (A') (A") (A')
                 (A") (A") (A') (A") (A') (A") (A') (A') (A') (A')
                 (A") (A') (A') (A") (A") (A') (A") (A') (A') (A")
                 (A') (A') (A") (A') (A") (A') (A') (A') (A') (A')
                 (A') (A') (A') (A') (A') (A') (A')
 Requested convergence on RMS density matrix=1.00D-08 within 128 cycles.
 Requested convergence on MAX density matrix=1.00D-06.
 Requested convergence on             energy=1.00D-06.
 No special actions if energy rises.
 Keep R1 ints in memory in canonical form, NReq=16360281.
 SCF Done:  E(RHF) =  -256.763389419     A.U. after   11 cycles
             Convg  =    0.9483D-08             -V/T =  2.0034
 Range of M.O.s used for correlation:     1   105
 NBasis=   105 NAE=    18 NBE=    18 NFC=     0 NFV=     0
 NROrb=    105 NOA=    18 NOB=    18 NVA=    87 NVB=    87

 **** Warning!!: The largest alpha MO coefficient is  0.54021085D+02

 Semi-Direct transformation.
 ModeAB=           2 MOrb=            18 LenV=     423626144
 LASXX=      4882905 LTotXX=     4882905 LenRXX=     4882905
 LTotAB=     5051754 MaxLAS=    10517850 LenRXY=    10517850
 NonZer=    10820250 LenScr=    16997376 LnRSAI=           0
 LnScr1=           0 LExtra=           0 Total=     32398131
 MaxDsk=          -1 SrtSym=           F ITran=            4
 JobTyp=0 Pass  1:  I=   1 to  18.
 (rs|ai) integrals will be sorted in core.
 Spin components of T(2) and E(2):
     alpha-alpha T2 =       0.3901107105D-01 E2=     -0.1139467087D+00
     alpha-beta  T2 =       0.1960312981D+00 E2=     -0.5969131252D+00
     beta-beta   T2 =       0.3901107105D-01 E2=     -0.1139467087D+00
 ANorm=    0.1128739758D+01
 E2 =    -0.8248065425D+00 EUMP2 =    -0.25758819596201D+03
 R2 and R3 integrals will be kept in memory, NReq=    31794790.
 DD1Dir will call FoFMem   1 times, MxPair=       342
 NAB=   171 NAA=     0 NBB=     0.
 E3=        0.46857416D-02        EUMP3=      -0.25758351022D+03
 Largest amplitude= 5.86D-02
 Discarding MO integrals.
          IDoAtm=1111111
          Differentiating once with respect to electric field.
                with respect to dipole field.
          Differentiating once with respect to nuclear coordinates.
          Keep R1 ints in memory in canonical form, NReq=16308475.
          There are     1 degrees of freedom in the 1st order CPHF.  IDoFFX=0.
 LinEq1:  Iter=  0 NonCon=     1 RMS=3.86D-03 Max=3.70D-02
 AX will form     1 AO Fock derivatives at one time.
 LinEq1:  Iter=  1 NonCon=     1 RMS=1.02D-03 Max=1.18D-02
 LinEq1:  Iter=  2 NonCon=     1 RMS=3.86D-04 Max=7.42D-03
 LinEq1:  Iter=  3 NonCon=     1 RMS=1.20D-04 Max=1.33D-03
 LinEq1:  Iter=  4 NonCon=     1 RMS=5.14D-05 Max=7.08D-04
 LinEq1:  Iter=  5 NonCon=     1 RMS=1.39D-05 Max=8.09D-05
 LinEq1:  Iter=  6 NonCon=     1 RMS=4.27D-06 Max=6.62D-05
 LinEq1:  Iter=  7 NonCon=     1 RMS=1.84D-06 Max=3.08D-05
 LinEq1:  Iter=  8 NonCon=     1 RMS=5.07D-07 Max=4.69D-06
 LinEq1:  Iter=  9 NonCon=     1 RMS=1.86D-07 Max=3.37D-06
 LinEq1:  Iter= 10 NonCon=     1 RMS=7.36D-08 Max=5.74D-07
 LinEq1:  Iter= 11 NonCon=     1 RMS=1.64D-08 Max=2.00D-07
 LinEq1:  Iter= 12 NonCon=     1 RMS=4.04D-09 Max=4.58D-08
 LinEq1:  Iter= 13 NonCon=     1 RMS=1.76D-09 Max=2.10D-08
 LinEq1:  Iter= 14 NonCon=     1 RMS=5.04D-10 Max=4.14D-09
 LinEq1:  Iter= 15 NonCon=     0 RMS=9.66D-11 Max=7.82D-10
 Linear equations converged to 1.000D-10 1.000D-09 after    15 iterations.
 End of Minotr Frequency-dependent properties file   721 does not exist.
 End of Minotr Frequency-dependent properties file   722 does not exist.
 Calling FoFJK, ICntrl=      2127 FMM=F ISym2X=1 I1Cent= 0 IOpClX= 0 NMat=1 NMatS=1 NMatT=0.
 ***** Axes restored to original set *****
 -------------------------------------------------------------------
 Center     Atomic                   Forces (Hartrees/Bohr)
 Number     Number              X              Y              Z
 -------------------------------------------------------------------
      1        7           0.001365132    0.000619985    0.000000000
      2        7           0.000469098    0.000212797    0.000000000
      3        7          -0.000781233   -0.000509071    0.000000000
      4        1          -0.000012679   -0.000004482    0.000000000
      5        7          -0.000940503   -0.000150022    0.000000000
      6        6          -0.000202631   -0.000124550    0.000000000
      7        1           0.000102818   -0.000044655    0.000000000
 -------------------------------------------------------------------
 Cartesian Forces:  Max     0.001365132 RMS     0.000455608

 GradGradGradGradGradGradGradGradGradGradGradGradGradGradGradGradGradGrad
 Berny optimization.
 Using GEDIIS/GDIIS optimizer.
 Internal  Forces:  Max     0.001116914 RMS     0.000318873
 Search for a local minimum.
 Step number   4 out of a maximum of   36
 All quantities printed in internal units (Hartrees-Bohrs-Radians)
 Mixed Optimization -- En-DIIS/RFO-DIIS
 Update second derivatives using D2CorX and points    1    2    3    4
 DE= -2.53D-05 DEPred=-2.83D-05 R= 8.93D-01
 SS=  1.41D+00  RLast= 1.06D-02 DXNew= 5.1925D-01 3.1766D-02
 Trust test= 8.93D-01 RLast= 1.06D-02 DXMaxT set to 3.09D-01
 ITU=  1  1  1  0
 Use linear search instead of GDIIS.
     Eigenvalues ---    0.02505   0.02638   0.02675   0.02834   0.15990
     Eigenvalues ---    0.16064   0.23010   0.37553   0.38503   0.48643
     Eigenvalues ---    0.49541   0.53145   0.62017   0.64041   0.74815
 RFO step:  Lambda=-3.68374111D-06 EMin= 2.50524010D-02
 Quartic linear search produced a step of -0.09770.
 Iteration  1 RMS(Cart)=  0.00050418 RMS(Int)=  0.00000018
 Iteration  2 RMS(Cart)=  0.00000011 RMS(Int)=  0.00000014
 ClnCor:  largest displacement from symmetrization is 1.76D-14 for atom     6.
 Variable       Old X    -DE/DX   Delta X   Delta X   Delta X     New X
                                 (Linear)    (Quad)   (Total)
    R1        2.44085  -0.00026  -0.00039   0.00014  -0.00024   2.44060
    R2        2.57996  -0.00112   0.00008  -0.00197  -0.00189   2.57807
    R3        2.54321  -0.00089   0.00003  -0.00134  -0.00131   2.54191
    R4        1.89568   0.00000   0.00000  -0.00001  -0.00001   1.89567
    R5        2.54196   0.00010   0.00032  -0.00031   0.00001   2.54198
    R6        2.48176  -0.00018  -0.00009  -0.00003  -0.00012   2.48164
    R7        2.02592   0.00008   0.00003   0.00016   0.00019   2.02611
    A1        1.93755   0.00057   0.00063   0.00036   0.00099   1.93854
    A2        1.85288  -0.00022  -0.00045   0.00013  -0.00032   1.85256
    A3        2.10224   0.00000  -0.00019   0.00035   0.00015   2.10240
    A4        1.89669  -0.00002   0.00021  -0.00045  -0.00024   1.89644
    A5        2.28425   0.00002  -0.00002   0.00011   0.00009   2.28434
    A6        1.84616  -0.00031  -0.00033  -0.00038  -0.00071   1.84545
    A7        1.89150  -0.00002  -0.00007   0.00035   0.00028   1.89178
    A8        2.18034   0.00008   0.00009   0.00012   0.00020   2.18054
    A9        2.21135  -0.00007  -0.00002  -0.00046  -0.00048   2.21087
    D1        0.00000   0.00000   0.00000   0.00000   0.00000   0.00000
    D2        0.00000   0.00000   0.00000   0.00000   0.00000   0.00000
    D3        3.14159   0.00000   0.00000   0.00000   0.00000   3.14159
    D4        0.00000   0.00000   0.00000   0.00000   0.00000   0.00000
    D5        0.00000   0.00000   0.00000   0.00000   0.00000   0.00000
    D6        3.14159   0.00000   0.00000   0.00000   0.00000   3.14159
    D7        3.14159   0.00000   0.00000   0.00000   0.00000   3.14159
    D8        0.00000   0.00000   0.00000   0.00000   0.00000   0.00000
    D9        0.00000   0.00000   0.00000   0.00000   0.00000   0.00000
   D10        3.14159   0.00000   0.00000   0.00000   0.00000   3.14159
         Item               Value     Threshold  Converged?
 Maximum Force            0.001117     0.000450     NO 
 RMS     Force            0.000319     0.000300     NO 
 Maximum Displacement     0.001716     0.001800     YES
 RMS     Displacement     0.000504     0.001200     YES
 Predicted change in Energy=-2.141389D-06
 GradGradGradGradGradGradGradGradGradGradGradGradGradGradGradGradGradGrad

                          Input orientation:                          
 ---------------------------------------------------------------------
 Center     Atomic      Atomic             Coordinates (Angstroms)
 Number     Number       Type             X           Y           Z
 ---------------------------------------------------------------------
      1          7           0       -0.729610   -0.929127    0.000000
      2          7           0       -1.119951    0.301985    0.000000
      3          7           0       -0.001344    1.049022    0.000000
      4          1           0       -0.058697    2.050527    0.000000
      5          7           0        0.632131   -1.011891    0.000000
      6          6           0        1.064328    0.228176    0.000000
      7          1           0        2.087111    0.549844    0.000000
 ---------------------------------------------------------------------
                    Distance matrix (angstroms):
                    1          2          3          4          5
     1  N    0.000000
     2  N    1.291512   0.000000
     3  N    2.107948   1.345119   0.000000
     4  H    3.054253   2.045399   1.003146   0.000000
     5  N    1.364254   2.189991   2.156073   3.139370   0.000000
     6  C    2.134845   2.185526   1.345156   2.140595   1.313225
     7  H    3.181395   3.216626   2.147282   2.618499   2.134475
                    6          7
     6  C    0.000000
     7  H    1.072174   0.000000
 Stoichiometry    CH2N4
 Framework group  CS[SG(CH2N4)]
 Deg. of freedom    11
 Full point group                 CS      NOp   2
 Largest Abelian subgroup         CS      NOp   2
 Largest concise Abelian subgroup C1      NOp   1
                         Standard orientation:                         
 ---------------------------------------------------------------------
 Center     Atomic      Atomic             Coordinates (Angstroms)
 Number     Number       Type             X           Y           Z
 ---------------------------------------------------------------------
      1          7           0       -0.724684   -0.925978    0.000000
      2          7           0       -1.117253    0.304425    0.000000
      3          7           0        0.000000    1.053486    0.000000
      4          1           0       -0.059167    2.054885    0.000000
      5          7           0        0.637205   -1.006277    0.000000
      6          6           0        1.067156    0.234571    0.000000
      7          1           0        2.089355    0.558091    0.000000
 ---------------------------------------------------------------------
 Rotational constants (GHZ):     10.5427042     10.3663150      5.2268828
 Standard basis: 6-31+G(d,p) (6D, 7F)
 There are    78 symmetry adapted basis functions of A'  symmetry.
 There are    27 symmetry adapted basis functions of A"  symmetry.
 Integral buffers will be    131072 words long.
 Raffenetti 1 integral format.
 Two-electron integral symmetry is turned on.
   105 basis functions,   174 primitive gaussians,   105 cartesian basis functions
    18 alpha electrons       18 beta electrons
       nuclear repulsion energy       166.8743108268 Hartrees.
 NAtoms=    7 NActive=    7 NUniq=    7 SFac= 1.00D+00 NAtFMM=   50 NAOKFM=F Big=F
 One-electron integrals computed using PRISM.
 NBasis=   105 RedAO= T  NBF=    78    27
 NBsUse=   105 1.00D-06 NBFU=    78    27
 Initial guess read from the read-write file.
 B after Tr=     0.000000    0.000000    0.000000
         Rot=    1.000000    0.000000    0.000000    0.000000 Ang=   0.00 deg.
 Initial guess orbital symmetries:
       Occupied  (A') (A') (A') (A') (A') (A') (A') (A') (A') (A')
                 (A') (A') (A") (A') (A') (A') (A") (A")
       Virtual   (A') (A') (A") (A') (A") (A') (A') (A") (A') (A")
                 (A") (A') (A') (A') (A") (A') (A") (A') (A') (A')
                 (A') (A') (A') (A') (A') (A') (A') (A') (A') (A")
                 (A') (A') (A') (A') (A') (A") (A') (A") (A') (A')
                 (A") (A') (A") (A') (A') (A') (A') (A') (A") (A')
                 (A") (A") (A') (A") (A") (A') (A') (A') (A') (A')
                 (A") (A') (A') (A") (A") (A') (A") (A') (A') (A")
                 (A') (A') (A") (A') (A") (A') (A') (A') (A') (A')
                 (A') (A') (A') (A') (A') (A') (A')
 Requested convergence on RMS density matrix=1.00D-08 within 128 cycles.
 Requested convergence on MAX density matrix=1.00D-06.
 Requested convergence on             energy=1.00D-06.
 No special actions if energy rises.
 Keep R1 ints in memory in canonical form, NReq=16360281.
 SCF Done:  E(RHF) =  -256.763487314     A.U. after   10 cycles
             Convg  =    0.3876D-08             -V/T =  2.0034
 Range of M.O.s used for correlation:     1   105
 NBasis=   105 NAE=    18 NBE=    18 NFC=     0 NFV=     0
 NROrb=    105 NOA=    18 NOB=    18 NVA=    87 NVB=    87

 **** Warning!!: The largest alpha MO coefficient is  0.54075982D+02

 Semi-Direct transformation.
 ModeAB=           2 MOrb=            18 LenV=     423626144
 LASXX=      4882905 LTotXX=     4882905 LenRXX=     4882905
 LTotAB=     5051754 MaxLAS=    10517850 LenRXY=    10517850
 NonZer=    10820250 LenScr=    16997376 LnRSAI=           0
 LnScr1=           0 LExtra=           0 Total=     32398131
 MaxDsk=          -1 SrtSym=           F ITran=            4
 JobTyp=0 Pass  1:  I=   1 to  18.
 (rs|ai) integrals will be sorted in core.
 Spin components of T(2) and E(2):
     alpha-alpha T2 =       0.3899539839D-01 E2=     -0.1139367842D+00
     alpha-beta  T2 =       0.1959356176D+00 E2=     -0.5968147389D+00
     beta-beta   T2 =       0.3899539839D-01 E2=     -0.1139367842D+00
 ANorm=    0.1128683487D+01
 E2 =    -0.8246883074D+00 EUMP2 =    -0.25758817562121D+03
 R2 and R3 integrals will be kept in memory, NReq=    31794790.
 DD1Dir will call FoFMem   1 times, MxPair=       342
 NAB=   171 NAA=     0 NBB=     0.
 E3=        0.46628732D-02        EUMP3=      -0.25758351275D+03
 Largest amplitude= 5.87D-02
 Discarding MO integrals.
          IDoAtm=1111111
          Differentiating once with respect to electric field.
                with respect to dipole field.
          Differentiating once with respect to nuclear coordinates.
          Keep R1 ints in memory in canonical form, NReq=16308475.
          There are     1 degrees of freedom in the 1st order CPHF.  IDoFFX=0.
 LinEq1:  Iter=  0 NonCon=     1 RMS=3.85D-03 Max=3.68D-02
 AX will form     1 AO Fock derivatives at one time.
 LinEq1:  Iter=  1 NonCon=     1 RMS=1.02D-03 Max=1.18D-02
 LinEq1:  Iter=  2 NonCon=     1 RMS=3.85D-04 Max=7.39D-03
 LinEq1:  Iter=  3 NonCon=     1 RMS=1.20D-04 Max=1.34D-03
 LinEq1:  Iter=  4 NonCon=     1 RMS=5.14D-05 Max=7.09D-04
 LinEq1:  Iter=  5 NonCon=     1 RMS=1.38D-05 Max=8.14D-05
 LinEq1:  Iter=  6 NonCon=     1 RMS=4.25D-06 Max=6.46D-05
 LinEq1:  Iter=  7 NonCon=     1 RMS=1.82D-06 Max=2.92D-05
 LinEq1:  Iter=  8 NonCon=     1 RMS=5.01D-07 Max=4.61D-06
 LinEq1:  Iter=  9 NonCon=     1 RMS=1.63D-07 Max=3.03D-06
 LinEq1:  Iter= 10 NonCon=     1 RMS=6.91D-08 Max=5.61D-07
 LinEq1:  Iter= 11 NonCon=     1 RMS=1.67D-08 Max=2.02D-07
 LinEq1:  Iter= 12 NonCon=     1 RMS=5.00D-09 Max=5.36D-08
 LinEq1:  Iter= 13 NonCon=     1 RMS=2.27D-09 Max=2.36D-08
 LinEq1:  Iter= 14 NonCon=     1 RMS=5.11D-10 Max=3.86D-09
 LinEq1:  Iter= 15 NonCon=     0 RMS=9.60D-11 Max=8.07D-10
 Linear equations converged to 1.000D-10 1.000D-09 after    15 iterations.
 End of Minotr Frequency-dependent properties file   721 does not exist.
 End of Minotr Frequency-dependent properties file   722 does not exist.
 Calling FoFJK, ICntrl=      2127 FMM=F ISym2X=1 I1Cent= 0 IOpClX= 0 NMat=1 NMatS=1 NMatT=0.
 ***** Axes restored to original set *****
 -------------------------------------------------------------------
 Center     Atomic                   Forces (Hartrees/Bohr)
 Number     Number              X              Y              Z
 -------------------------------------------------------------------
      1        7           0.000428021   -0.000066932    0.000000000
      2        7           0.000074188    0.000134419    0.000000000
      3        7          -0.000276032   -0.000294023    0.000000000
      4        1           0.000019566    0.000000068    0.000000000
      5        7          -0.000619954    0.000078065    0.000000000
      6        6           0.000356237    0.000160341    0.000000000
      7        1           0.000017974   -0.000011939    0.000000000
 -------------------------------------------------------------------
 Cartesian Forces:  Max     0.000619954 RMS     0.000209056

 GradGradGradGradGradGradGradGradGradGradGradGradGradGradGradGradGradGrad
 Berny optimization.
 Using GEDIIS/GDIIS optimizer.
 Internal  Forces:  Max     0.000408729 RMS     0.000112725
 Search for a local minimum.
 Step number   5 out of a maximum of   36
 All quantities printed in internal units (Hartrees-Bohrs-Radians)
 Mixed Optimization -- En-DIIS/RFO-DIIS
 Swaping is turned off.
 Update second derivatives using D2CorX and points    1    2    3    4    5
 DE= -2.53D-06 DEPred=-2.14D-06 R= 1.18D+00
 SS=  1.41D+00  RLast= 2.72D-03 DXNew= 5.1925D-01 8.1680D-03
 Trust test= 1.18D+00 RLast= 2.72D-03 DXMaxT set to 3.09D-01
 ITU=  1  1  1  1  0
     Eigenvalues ---    0.02505   0.02638   0.02675   0.02834   0.15689
     Eigenvalues ---    0.16072   0.22683   0.37642   0.40131   0.43332
     Eigenvalues ---    0.48962   0.49698   0.58119   0.67168   0.77415
 En-DIIS/RFO-DIIS IScMMF=        0 using points:     5    4
 RFO step:  Lambda=-6.64581159D-07.
 DidBck=F Rises=F RFO-DIIS coefs:    1.22118   -0.22118
 Iteration  1 RMS(Cart)=  0.00035657 RMS(Int)=  0.00000010
 Iteration  2 RMS(Cart)=  0.00000010 RMS(Int)=  0.00000003
 ClnCor:  largest displacement from symmetrization is 5.99D-14 for atom     6.
 Variable       Old X    -DE/DX   Delta X   Delta X   Delta X     New X
                                  (DIIS)     (GDIIS)  (Total)
    R1        2.44060  -0.00001  -0.00005   0.00021   0.00016   2.44076
    R2        2.57807  -0.00041  -0.00042  -0.00108  -0.00150   2.57656
    R3        2.54191  -0.00016  -0.00029  -0.00045  -0.00074   2.54117
    R4        1.89567   0.00000   0.00000   0.00000   0.00000   1.89567
    R5        2.54198   0.00004   0.00000  -0.00004  -0.00003   2.54194
    R6        2.48164   0.00007  -0.00003   0.00019   0.00016   2.48180
    R7        2.02611   0.00001   0.00004   0.00004   0.00009   2.02620
    A1        1.93854   0.00002   0.00022  -0.00024  -0.00002   1.93852
    A2        1.85256  -0.00005  -0.00007  -0.00026  -0.00033   1.85224
    A3        2.10240  -0.00003   0.00003  -0.00017  -0.00014   2.10226
    A4        1.89644   0.00010  -0.00005   0.00069   0.00064   1.89708
    A5        2.28434  -0.00007   0.00002  -0.00052  -0.00050   2.28384
    A6        1.84545   0.00016  -0.00016   0.00090   0.00074   1.84620
    A7        1.89178  -0.00024   0.00006  -0.00110  -0.00104   1.89074
    A8        2.18054   0.00014   0.00004   0.00069   0.00074   2.18128
    A9        2.21087   0.00010  -0.00011   0.00041   0.00030   2.21117
    D1        0.00000   0.00000   0.00000   0.00000   0.00000   0.00000
    D2        0.00000   0.00000   0.00000   0.00000   0.00000   0.00000
    D3        3.14159   0.00000   0.00000   0.00000   0.00000   3.14159
    D4        0.00000   0.00000   0.00000   0.00000   0.00000   0.00000
    D5        0.00000   0.00000   0.00000   0.00000   0.00000   0.00000
    D6        3.14159   0.00000   0.00000   0.00000   0.00000   3.14159
    D7        3.14159   0.00000   0.00000   0.00000   0.00000   3.14159
    D8        0.00000   0.00000   0.00000   0.00000   0.00000   0.00000
    D9        0.00000   0.00000   0.00000   0.00000   0.00000   0.00000
   D10        3.14159   0.00000   0.00000   0.00000   0.00000   3.14159
         Item               Value     Threshold  Converged?
 Maximum Force            0.000409     0.000450     YES
 RMS     Force            0.000113     0.000300     YES
 Maximum Displacement     0.001006     0.001800     YES
 RMS     Displacement     0.000357     0.001200     YES
 Predicted change in Energy=-6.795837D-07
 Optimization completed.
    -- Stationary point found.
                           ----------------------------
                           !   Optimized Parameters   !
                           ! (Angstroms and Degrees)  !
 --------------------------                            --------------------------
 ! Name  Definition              Value          Derivative Info.                !
 --------------------------------------------------------------------------------
 ! R1    R(1,2)                  1.2915         -DE/DX =    0.0                 !
 ! R2    R(1,5)                  1.3643         -DE/DX =   -0.0004              !
 ! R3    R(2,3)                  1.3451         -DE/DX =   -0.0002              !
 ! R4    R(3,4)                  1.0031         -DE/DX =    0.0                 !
 ! R5    R(3,6)                  1.3452         -DE/DX =    0.0                 !
 ! R6    R(5,6)                  1.3132         -DE/DX =    0.0001              !
 ! R7    R(6,7)                  1.0722         -DE/DX =    0.0                 !
 ! A1    A(2,1,5)              111.07           -DE/DX =    0.0                 !
 ! A2    A(1,2,3)              106.1441         -DE/DX =    0.0                 !
 ! A3    A(2,3,4)              120.4585         -DE/DX =    0.0                 !
 ! A4    A(2,3,6)              108.6582         -DE/DX =    0.0001              !
 ! A5    A(4,3,6)              130.8833         -DE/DX =   -0.0001              !
 ! A6    A(1,5,6)              105.7368         -DE/DX =    0.0002              !
 ! A7    A(3,6,5)              108.3908         -DE/DX =   -0.0002              !
 ! A8    A(3,6,7)              124.9358         -DE/DX =    0.0001              !
 ! A9    A(5,6,7)              126.6734         -DE/DX =    0.0001              !
 ! D1    D(5,1,2,3)              0.0            -DE/DX =    0.0                 !
 ! D2    D(2,1,5,6)              0.0            -DE/DX =    0.0                 !
 ! D3    D(1,2,3,4)            180.0            -DE/DX =    0.0                 !
 ! D4    D(1,2,3,6)              0.0            -DE/DX =    0.0                 !
 ! D5    D(2,3,6,5)              0.0            -DE/DX =    0.0                 !
 ! D6    D(2,3,6,7)            180.0            -DE/DX =    0.0                 !
 ! D7    D(4,3,6,5)            180.0            -DE/DX =    0.0                 !
 ! D8    D(4,3,6,7)              0.0            -DE/DX =    0.0                 !
 ! D9    D(1,5,6,3)              0.0            -DE/DX =    0.0                 !
 ! D10   D(1,5,6,7)            180.0            -DE/DX =    0.0                 !
 --------------------------------------------------------------------------------
 GradGradGradGradGradGradGradGradGradGradGradGradGradGradGradGradGradGrad

                          Input orientation:                          
 ---------------------------------------------------------------------
 Center     Atomic      Atomic             Coordinates (Angstroms)
 Number     Number       Type             X           Y           Z
 ---------------------------------------------------------------------
      1          7           0       -0.729610   -0.929127    0.000000
      2          7           0       -1.119951    0.301985    0.000000
      3          7           0       -0.001344    1.049022    0.000000
      4          1           0       -0.058697    2.050527    0.000000
      5          7           0        0.632131   -1.011891    0.000000
      6          6           0        1.064328    0.228176    0.000000
      7          1           0        2.087111    0.549844    0.000000
 ---------------------------------------------------------------------
                    Distance matrix (angstroms):
                    1          2          3          4          5
     1  N    0.000000
     2  N    1.291512   0.000000
     3  N    2.107948   1.345119   0.000000
     4  H    3.054253   2.045399   1.003146   0.000000
     5  N    1.364254   2.189991   2.156073   3.139370   0.000000
     6  C    2.134845   2.185526   1.345156   2.140595   1.313225
     7  H    3.181395   3.216626   2.147282   2.618499   2.134475
                    6          7
     6  C    0.000000
     7  H    1.072174   0.000000
 Stoichiometry    CH2N4
 Framework group  CS[SG(CH2N4)]
 Deg. of freedom    11
[...]
 and normal coordinates:
                     1                      2                      3
                    A"                     A"                     A"
 Frequencies --   560.2987               693.7475               730.9247
 Red. masses --     2.0582                 1.9971                 6.2281
 Frc consts  --     0.3807                 0.5663                 1.9604
 IR Inten    --    81.7075                14.3563                12.3520
  Atom  AN      X      Y      Z        X      Y      Z        X      Y      Z
     1   7     0.00   0.00   0.01     0.00   0.00   0.06     0.00   0.00   0.42
     2   7     0.00   0.00  -0.10     0.00   0.00   0.07     0.00   0.00  -0.38
     3   7     0.00   0.00   0.24     0.00   0.00  -0.08     0.00   0.00   0.11
     4   1     0.00   0.00  -0.94     0.00   0.00  -0.84     0.00   0.00   0.77
     5   7     0.00   0.00   0.04     0.00   0.00  -0.18     0.00   0.00  -0.26
     6   6     0.00   0.00  -0.12     0.00   0.00   0.18     0.00   0.00   0.07
     7   1     0.00   0.00  -0.19     0.00   0.00   0.46     0.00   0.00  -0.03
                     4                      5                      6
                    A"                     A'                     A'
 Frequencies --   863.1891              1001.2518              1034.0679
 Red. masses --     1.2781                 5.2685                 7.4049
 Frc consts  --     0.5611                 3.1119                 4.6652
 IR Inten    --    27.0644                 1.5044                 0.5721
  Atom  AN      X      Y      Z        X      Y      Z        X      Y      Z
     1   7     0.00   0.00   0.02    -0.01   0.21   0.00     0.25  -0.08   0.00
     2   7     0.00   0.00   0.00    -0.17   0.15   0.00     0.21  -0.01   0.00
     3   7     0.00   0.00   0.01    -0.10  -0.05   0.00    -0.03   0.41   0.00
     4   1     0.00   0.00   0.09     0.42  -0.02   0.00     0.02   0.43   0.00
     5   7     0.00   0.00   0.02     0.37  -0.25   0.00    -0.06  -0.25   0.00
     6   6     0.00   0.00  -0.15    -0.10  -0.12   0.00    -0.40  -0.08   0.00
     7   1     0.00   0.00   0.98    -0.33   0.62   0.00    -0.32  -0.44   0.00
                     7                      8                      9
                    A'                     A'                     A'
 Frequencies --  1106.1274              1130.6664              1186.3079
 Red. masses --     6.0242                 2.7544                 1.7604
 Frc consts  --     4.3427                 2.0747                 1.4596
 IR Inten    --    24.3488                24.6387                12.2224
  Atom  AN      X      Y      Z        X      Y      Z        X      Y      Z
     1   7     0.41   0.09   0.00    -0.12  -0.01   0.00    -0.10  -0.12   0.00
     2   7     0.01   0.16   0.00     0.30   0.10   0.00     0.03  -0.03   0.00
     3   7    -0.06  -0.30   0.00    -0.12  -0.08   0.00     0.13   0.00   0.00
     4   1     0.41  -0.29   0.00    -0.75  -0.12   0.00     0.61   0.03   0.00
     5   7    -0.28   0.01   0.00     0.01  -0.05   0.00    -0.02   0.00   0.00
     6   6    -0.10   0.03   0.00     0.00   0.01   0.00    -0.09   0.10   0.00
     7   1    -0.28   0.53   0.00    -0.17   0.51   0.00    -0.28   0.70   0.00
                    10                     11                     12
                    A'                     A'                     A'
 Frequencies --  1324.3366              1359.2954              1540.1873
 Red. masses --     2.9698                 7.5049                 2.9702
 Frc consts  --     3.0688                 8.1700                 4.1513
 IR Inten    --     0.5273                18.3674                18.5069
  Atom  AN      X      Y      Z        X      Y      Z        X      Y      Z
     1   7    -0.06   0.04   0.00    -0.02   0.48   0.00     0.00  -0.01   0.00
     2   7     0.14  -0.01   0.00     0.08  -0.47   0.00    -0.08   0.07   0.00
     3   7    -0.04  -0.14   0.00     0.16  -0.01   0.00     0.23  -0.11   0.00
     4   1     0.54  -0.13   0.00    -0.38  -0.06   0.00    -0.80  -0.20   0.00
     5   7     0.13   0.21   0.00    -0.08   0.01   0.00     0.06  -0.08   0.00
     6   6    -0.23  -0.05   0.00    -0.10  -0.05   0.00    -0.17   0.21   0.00
     7   1    -0.05  -0.73   0.00    -0.30   0.51   0.00    -0.01  -0.40   0.00
                    13                     14                     15
                    A'                     A'                     A'
 Frequencies --  1577.6342              3398.9383              3794.4652
 Red. masses --     3.4931                 1.1015                 1.0840
 Frc consts  --     5.1224                 7.4976                 9.1960
 IR Inten    --    20.4391                 1.9842               127.7212
  Atom  AN      X      Y      Z        X      Y      Z        X      Y      Z
     1   7     0.05  -0.09   0.00     0.00   0.00   0.00     0.00   0.00   0.00
     2   7    -0.09   0.07   0.00     0.00   0.00   0.00     0.00   0.00   0.00
     3   7     0.14   0.05   0.00     0.00   0.00   0.00     0.01  -0.08   0.00
     4   1    -0.65   0.01   0.00     0.01   0.02   0.00    -0.06   1.00   0.00
     5   7     0.04   0.22   0.00     0.00   0.00   0.00     0.00   0.00   0.00
     6   6    -0.08  -0.33   0.00     0.09   0.03   0.00     0.00   0.00   0.00
     7   1    -0.37   0.47   0.00    -0.95  -0.30   0.00     0.02   0.00   0.00

 -------------------
 - Thermochemistry -
 -------------------
 Temperature   298.150 Kelvin.  Pressure   1.00000 Atm.
 Atom     1 has atomic number  7 and mass  14.00307
 Atom     2 has atomic number  7 and mass  14.00307
 Atom     3 has atomic number  7 and mass  14.00307
 Atom     4 has atomic number  1 and mass   1.00783
 Atom     5 has atomic number  7 and mass  14.00307
 Atom     6 has atomic number  6 and mass  12.00000
 Atom     7 has atomic number  1 and mass   1.00783
 Molecular mass:    70.02795 amu.
 Principal axes and moments of inertia in atomic units:
                           1         2         3
     Eigenvalues --   171.18390 174.09670 345.28060
           X            0.85296   0.52197   0.00000
           Y           -0.52197   0.85296   0.00000
           Z            0.00000   0.00000   1.00000
 This molecule is an asymmetric top.
 Rotational symmetry number  1.
 Rotational temperatures (Kelvin)      0.50597     0.49750     0.25085
 Rotational constants (GHZ):          10.54270    10.36632     5.22688
 Zero-point vibrational energy     127410.9 (Joules/Mol)
                                   30.45193 (Kcal/Mol)
 Warning -- explicit consideration of   1 degrees of freedom as
           vibrations may cause significant error
 Vibrational temperatures:    806.14   998.15  1051.64  1241.94  1440.58
          (Kelvin)           1487.79  1591.47  1626.77  1706.83  1905.42
                             1955.72  2215.98  2269.86  4890.31  5459.38
 
 Zero-point correction=                           0.048528 (Hartree/Particle)
 Thermal correction to Energy=                    0.051982
 Thermal correction to Enthalpy=                  0.052926
 Thermal correction to Gibbs Free Energy=         0.022436
 Sum of electronic and zero-point Energies=           -257.534985
 Sum of electronic and thermal Energies=              -257.531531
 Sum of electronic and thermal Enthalpies=            -257.530587
 Sum of electronic and thermal Free Energies=         -257.561076
 
                     E (Thermal)             CV                S
                      KCal/Mol        Cal/Mol-Kelvin    Cal/Mol-Kelvin
 Total                   32.619             11.084             64.171
 Electronic               0.000              0.000              0.000
 Translational            0.889              2.981             38.656
 Rotational               0.889              2.981             23.846
 Vibrational             30.842              5.123              1.668
 Vibration     1          0.916              1.117              0.523
                       Q            Log10(Q)             Ln(Q)
 Total Bot       0.478676D-10        -10.319958        -23.762582
 Total V=0       0.100332D+13         12.001438         27.634333
 Vib (Bot)       0.572296D-22        -22.242380        -51.214972
 Vib (Bot)    1  0.277311D+00         -0.557032         -1.282614
 Vib (V=0)       0.119955D+01          0.079017          0.181943
 Vib (V=0)    1  0.107175D+01          0.030095          0.069296
 Electronic      0.100000D+01          0.000000          0.000000
 Translational   0.230336D+08          7.362362         16.952466
 Rotational      0.363128D+05          4.560059         10.499924
 ***** Axes restored to original set *****
 -------------------------------------------------------------------
 Center     Atomic                   Forces (Hartrees/Bohr)
 Number     Number              X              Y              Z
 -------------------------------------------------------------------
      1        7           0.000428015   -0.000066921    0.000000000
      2        7           0.000074190    0.000134408    0.000000000
      3        7          -0.000276032   -0.000294026    0.000000000
      4        1           0.000019567    0.000000067    0.000000000
      5        7          -0.000619956    0.000078059    0.000000000
      6        6           0.000356238    0.000160351    0.000000000
      7        1           0.000017977   -0.000011939    0.000000000
 -------------------------------------------------------------------
 Cartesian Forces:  Max     0.000619956 RMS     0.000209056

 GradGradGradGradGradGradGradGradGradGradGradGradGradGradGradGradGradGrad
 Berny optimization.
 Internal  Forces:  Max     0.000408727 RMS     0.000112726
 Search for a local minimum.
 Step number   1 out of a maximum of    2
 All quantities printed in internal units (Hartrees-Bohrs-Radians)
 Second derivative matrix not updated -- analytic derivatives used.
 ITU=  0
     Eigenvalues ---    0.00773   0.02597   0.06865   0.07627   0.11001
     Eigenvalues ---    0.11406   0.21943   0.28888   0.37382   0.40373
     Eigenvalues ---    0.46494   0.49760   0.51268   0.60658   0.65846
 Angle between quadratic step and forces=  13.22 degrees.
 Linear search not attempted -- first point.
 Iteration  1 RMS(Cart)=  0.00032167 RMS(Int)=  0.00000010
 Iteration  2 RMS(Cart)=  0.00000008 RMS(Int)=  0.00000005
 ClnCor:  largest displacement from symmetrization is 6.51D-12 for atom     6.
 Variable       Old X    -DE/DX   Delta X   Delta X   Delta X     New X
                                 (Linear)    (Quad)   (Total)
    R1        2.44060  -0.00001   0.00000   0.00043   0.00043   2.44103
    R2        2.57807  -0.00041   0.00000  -0.00166  -0.00166   2.57640
    R3        2.54191  -0.00016   0.00000  -0.00065  -0.00065   2.54126
    R4        1.89567   0.00000   0.00000   0.00002   0.00002   1.89570
    R5        2.54198   0.00004   0.00000   0.00011   0.00011   2.54208
    R6        2.48164   0.00007   0.00000   0.00043   0.00043   2.48207
    R7        2.02611   0.00001   0.00000  -0.00002  -0.00002   2.02609
    A1        1.93854   0.00002   0.00000   0.00004   0.00004   1.93857
    A2        1.85256  -0.00005   0.00000  -0.00030  -0.00030   1.85226
    A3        2.10240  -0.00003   0.00000  -0.00006  -0.00006   2.10233
    A4        1.89644   0.00010   0.00000   0.00054   0.00054   1.89698
    A5        2.28434  -0.00007   0.00000  -0.00047  -0.00047   2.28387
    A6        1.84545   0.00016   0.00000   0.00070   0.00070   1.84615
    A7        1.89178  -0.00024   0.00000  -0.00097  -0.00097   1.89081
    A8        2.18054   0.00014   0.00000   0.00064   0.00064   2.18119
    A9        2.21087   0.00010   0.00000   0.00032   0.00032   2.21119
    D1        0.00000   0.00000   0.00000   0.00000   0.00000   0.00000
    D2        0.00000   0.00000   0.00000   0.00000   0.00000   0.00000
    D3        3.14159   0.00000   0.00000   0.00000   0.00000   3.14159
    D4        0.00000   0.00000   0.00000   0.00000   0.00000   0.00000
    D5        0.00000   0.00000   0.00000   0.00000   0.00000   0.00000
    D6        3.14159   0.00000   0.00000   0.00000   0.00000   3.14159
    D7        3.14159   0.00000   0.00000   0.00000   0.00000   3.14159
    D8        0.00000   0.00000   0.00000   0.00000   0.00000   0.00000
    D9        0.00000   0.00000   0.00000   0.00000   0.00000   0.00000
   D10        3.14159   0.00000   0.00000   0.00000   0.00000   3.14159
         Item               Value     Threshold  Converged?
 Maximum Force            0.000409     0.000450     YES
 RMS     Force            0.000113     0.000300     YES
 Maximum Displacement     0.001054     0.001800     YES
 RMS     Displacement     0.000322     0.001200     YES
 Predicted change in Energy=-6.928362D-07
 Optimization completed.
    -- Stationary point found.
                           ----------------------------
                           !   Optimized Parameters   !
                           ! (Angstroms and Degrees)  !
 --------------------------                            --------------------------
 ! Name  Definition              Value          Derivative Info.                !
 --------------------------------------------------------------------------------
 ! R1    R(1,2)                  1.2915         -DE/DX =    0.0                 !
 ! R2    R(1,5)                  1.3643         -DE/DX =   -0.0004              !
 ! R3    R(2,3)                  1.3451         -DE/DX =   -0.0002              !
 ! R4    R(3,4)                  1.0031         -DE/DX =    0.0                 !
 ! R5    R(3,6)                  1.3452         -DE/DX =    0.0                 !
 ! R6    R(5,6)                  1.3132         -DE/DX =    0.0001              !
 ! R7    R(6,7)                  1.0722         -DE/DX =    0.0                 !
 ! A1    A(2,1,5)              111.07           -DE/DX =    0.0                 !
 ! A2    A(1,2,3)              106.1441         -DE/DX =    0.0                 !
 ! A3    A(2,3,4)              120.4585         -DE/DX =    0.0                 !
 ! A4    A(2,3,6)              108.6582         -DE/DX =    0.0001              !
 ! A5    A(4,3,6)              130.8833         -DE/DX =   -0.0001              !
 ! A6    A(1,5,6)              105.7368         -DE/DX =    0.0002              !
 ! A7    A(3,6,5)              108.3908         -DE/DX =   -0.0002              !
 ! A8    A(3,6,7)              124.9358         -DE/DX =    0.0001              !
 ! A9    A(5,6,7)              126.6734         -DE/DX =    0.0001              !
 ! D1    D(5,1,2,3)              0.0            -DE/DX =    0.0                 !
 ! D2    D(2,1,5,6)              0.0            -DE/DX =    0.0                 !
 ! D3    D(1,2,3,4)            180.0            -DE/DX =    0.0                 !
 ! D4    D(1,2,3,6)              0.0            -DE/DX =    0.0                 !
 ! D5    D(2,3,6,5)              0.0            -DE/DX =    0.0                 !
 ! D6    D(2,3,6,7)            180.0            -DE/DX =    0.0                 !
 ! D7    D(4,3,6,5)            180.0            -DE/DX =    0.0                 !
 ! D8    D(4,3,6,7)              0.0            -DE/DX =    0.0                 !
 ! D9    D(1,5,6,3)              0.0            -DE/DX =    0.0                 !
 ! D10   D(1,5,6,7)            180.0            -DE/DX =    0.0                 !
 --------------------------------------------------------------------------------
 GradGradGradGradGradGradGradGradGradGradGradGradGradGradGradGradGradGrad

 1\1\GINC-N368\Freq\RMP3-Full\6-31+G(d,p)\C1H2N4\RDJ3\01-Feb-2013\0\\#N
  Geom=AllCheck Guess=TCheck SCRF=Check GenChk RMP3-Full/6-31+G(d,p) Fr
 eq\\1htz 1H-Tetrazole casno=288948 state=1 config=1 method=71 basis=4\
 \0,1\N,-0.7296101476,-0.9291268616,0.\N,-1.119951215,0.3019850785,0.\N
 ,-0.0013436903,1.0490215901,0.\H,-0.0586971327,2.0505265069,0.\N,0.632
 1305675,-1.0118912865,0.\C,1.0643277162,0.2281757557,0.\H,2.0871109018
 ,0.5498442167,0.\\Version=EM64L-G09RevB.01\State=1-A'\HF=-256.7634873\
 MP2=-257.5881756\MP3=-257.5835127\RMSD=9.940e-10\RMSF=2.091e-04\ZeroPo
 int=0.0485282\Thermal=0.0519817\Dipole=1.0382246,1.9649405,0.\DipoleDe
 riv=0.2181694,0.0111863,0.,-0.1238259,-0.1292135,0.,0.,0.,-0.171409,-0
 .1204723,0.2898959,0.,0.3748295,0.1463663,0.,0.,0.,-0.0971911,-0.16516
 24,-0.0994217,0.,-0.081242,-0.6360763,0.,0.,0.,-0.1478184,0.2063021,-0
 .0069299,0.,-0.0174192,0.3282321,0.,0.,0.,0.3584178,-0.4517866,0.00553
 ,0.,-0.0814738,-0.3045452,0.,0.,0.,-0.2086854,0.234811,-0.1783406,0.,-
 0.0513066,0.5005113,0.,0.,0.,0.0861949,0.0779255,-0.0219101,0.,-0.0195
 893,0.0947297,0.,0.,0.,0.1804049\Quadrupole=-0.7690634,1.0858192,-0.31
 67558,1.4822767,0.,0.\QuadrupoleDeriv=-0.7320329,0.5745712,0.1574617,-
 1.30561,0.,0.,1.0600108,-1.3583694,0.2983586,-0.7842592,0.,0.,0.,0.,0.
 ,0.,0.5662103,0.7309589,-1.900516,1.5223184,0.3781976,0.4612102,0.,0.,
 -0.7625162,0.8963884,-0.1338722,-0.7775154,0.,0.,0.,0.,0.,0.,0.7788469
 ,-0.3672649,0.3079469,-0.3118482,0.0039014,0.9291226,0.,0.,-0.6173603,
 0.9879473,-0.3705869,0.0802226,0.,0.,0.,0.,0.,0.,-0.0820069,-0.9926392
 ,-0.0535881,0.0198076,0.0337805,1.3939274,0.,0.,-0.9301526,1.8229302,-
 0.8927775,-0.0968873,0.,0.,0.,0.,0.,0.,-0.0446099,1.586675,0.1825004,-
 0.2284237,0.0459233,-0.2748083,0.,0.,0.3575023,-0.6156867,0.2581844,0.
 7361232,0.,0.,0.,0.,0.,0.,-0.8167413,0.8089432,2.7257146,-1.8585078,-0
 .8672069,0.7370448,0.,0.,-0.1735829,0.5500101,-0.3764271,1.1439246,0.,
 0.,0.,0.,0.,0.,-0.222072,-0.0647097,0.8545769,-0.4105621,-0.4440148,0.
 0245564,0.,0.,-0.2440023,0.3368991,-0.0928968,0.7370708,0.,0.,0.,0.,0.
 ,0.,0.8589118,0.2631299\PG=CS [SG(C1H2N4)]\NImag=0\\0.45806482,0.04901
 305,0.63847992,0.,0.,0.12100172,-0.14286724,0.04211651,0.,0.57575812,0
 .10844980,-0.36604814,0.,-0.08018509,0.56397315,0.,0.,-0.09378603,0.,0
 .,0.11101804,-0.02197869,-0.07155609,0.,-0.25769998,-0.08231009,0.,0.6
 4182778,0.00219067,-0.15148050,0.,-0.03464457,-0.13527701,0.,-0.083097
 75,1.08429347,0.,0.,0.02453341,0.,0.,-0.06334579,0.,0.,0.08274813,-0.0
 0921063,-0.00951682,0.,0.01634075,-0.03168170,0.,-0.08053782,0.0361217
 5,0.,0.06495847,-0.00282006,0.00110528,0.,0.00617678,-0.01080889,0.,0.
 02615217,-0.49735663,0.,-0.02489017,0.50941213,0.,0.,0.00832944,0.,0.,
 -0.01309061,0.,0.,-0.00562791,0.,0.,0.01391763,-0.20925383,0.01085994,
 0.,-0.07979119,0.12454192,0.,0.01686051,-0.03435345,0.,-0.00629951,0.0
 0078488,0.,0.42692470,-0.03043830,-0.11243262,0.,0.02156229,-0.0323038
 4,0.,0.07592198,-0.10901428,0.,0.00823253,0.00110938,0.,0.00865915,0.6
 5973207,0.,0.,-0.08759409,0.,0.,0.03479073,0.,0.,0.01861778,0.,0.,0.00
 802325,0.,0.,0.10645337,-0.07619846,-0.02184243,0.,-0.11119299,-0.0404
 4027,0.,-0.28551809,0.12411130,0.,0.01529839,-0.00580957,0.,-0.1483469
 2,-0.08317098,0.,0.96695368,-0.12174954,-0.00371774,0.,0.04039629,-0.0
 1393526,0.,0.10876792,-0.20539110,0.,0.02213388,-0.00335687,0.,-0.0799
 4221,-0.40849393,0.,0.12131070,0.72592409,0.,0.,0.01806021,0.,0.,0.017
 52626,0.,0.,-0.05271128,0.,0.,-0.01099977,0.,0.,-0.07446080,0.,0.,0.13
 212808,0.00145904,0.00090707,0.,-0.00055054,0.00165262,0.,-0.01295521,
 -0.01033828,0.,-0.00054935,0.00040416,0.,-0.00010947,-0.00077334,0.,-0
 .36098615,-0.09090439,0.,0.37368722,-0.00465691,-0.00590945,0.,0.00458
 397,-0.00559921,0.,0.02611519,0.01423604,0.,-0.00039967,-0.00010484,0.
 ,-0.03053949,0.00141473,0.,-0.09415554,-0.09104737,0.,0.09905020,0.087
 00966,0.,0.,0.00944277,0.,0.,0.00688368,0.,0.,-0.00420831,0.,0.,-0.000
 55172,0.,0.,-0.00582468,0.,0.,-0.02954031,0.,0.,0.02380058\\-0.0004280
 1,0.00006692,0.,-0.00007419,-0.00013441,0.,0.00027603,0.00029403,0.,-0
 .00001957,-0.00000007,0.,0.00061996,-0.00007806,0.,-0.00035624,-0.0001
 6035,0.,-0.00001798,0.00001194,0.\\\@


 FESTINA LENTE!
     - IMPERATOR AUGUSTUS 
 Job cpu time:  0 days  5 hours 34 minutes 57.5 seconds.
 File lengths (MBytes):  RWF=   1371 Int=      0 D2E=      0 Chk=     40 Scr=      1
 Normal termination of Gaussian 09 at Fri Feb  1 05:57:24 2013.
