 Entering Gaussian System, Link 0=g09
 Initial command:
 /usr/local/gaussian/g09.b01.em64t.linda/g09/l1.exe /tmp/rdj3/g09-21896/Gau-24070.inp -scrdir=/tmp/rdj3/g09-21896/
 Entering Link 1 = /usr/local/gaussian/g09.b01.em64t.linda/g09/l1.exe PID=     24071.
  
 Copyright (c) 1988,1990,1992,1993,1995,1998,2003,2009,2010,
            Gaussian, Inc.  All Rights Reserved.
  
 This is part of the Gaussian(R) 09 program.  It is based on
 the Gaussian(R) 03 system (copyright 2003, Gaussian, Inc.),
 the Gaussian(R) 98 system (copyright 1998, Gaussian, Inc.),
 the Gaussian(R) 94 system (copyright 1995, Gaussian, Inc.),
 the Gaussian 92(TM) system (copyright 1992, Gaussian, Inc.),
 the Gaussian 90(TM) system (copyright 1990, Gaussian, Inc.),
 the Gaussian 88(TM) system (copyright 1988, Gaussian, Inc.),
 the Gaussian 86(TM) system (copyright 1986, Carnegie Mellon
 University), and the Gaussian 82(TM) system (copyright 1983,
 Carnegie Mellon University). Gaussian is a federally registered
 trademark of Gaussian, Inc.
  
 This software contains proprietary and confidential information,
 including trade secrets, belonging to Gaussian, Inc.
  
 This software is provided under written license and may be
 used, copied, transmitted, or stored only in accord with that
 written license.
  
 The following legend is applicable only to US Government
 contracts under FAR:
  
                    RESTRICTED RIGHTS LEGEND
  
 Use, reproduction and disclosure by the US Government is
 subject to restrictions as set forth in subparagraphs (a)
 and (c) of the Commercial Computer Software - Restricted
 Rights clause in FAR 52.227-19.
  
 Gaussian, Inc.
 340 Quinnipiac St., Bldg. 40, Wallingford CT 06492
  
  
 ---------------------------------------------------------------
 Warning -- This program may not be used in any manner that
 competes with the business of Gaussian, Inc. or will provide
 assistance to any competitor of Gaussian, Inc.  The licensee
 of this program is prohibited from giving any competitor of
 Gaussian, Inc. access to this program.  By using this program,
 the user acknowledges that Gaussian, Inc. is engaged in the
 business of creating and licensing software in the field of
 computational chemistry and represents and warrants to the
 licensee that it is not a competitor of Gaussian, Inc. and that
 it will not use this program in any manner prohibited above.
 ---------------------------------------------------------------
  

 Cite this work as:
 Gaussian 09, Revision B.01,
 M. J. Frisch, G. W. Trucks, H. B. Schlegel, G. E. Scuseria, 
 M. A. Robb, J. R. Cheeseman, G. Scalmani, V. Barone, B. Mennucci, 
 G. A. Petersson, H. Nakatsuji, M. Caricato, X. Li, H. P. Hratchian, 
 A. F. Izmaylov, J. Bloino, G. Zheng, J. L. Sonnenberg, M. Hada, 
 M. Ehara, K. Toyota, R. Fukuda, J. Hasegawa, M. Ishida, T. Nakajima, 
 Y. Honda, O. Kitao, H. Nakai, T. Vreven, J. A. Montgomery, Jr., 
 J. E. Peralta, F. Ogliaro, M. Bearpark, J. J. Heyd, E. Brothers, 
 K. N. Kudin, V. N. Staroverov, T. Keith, R. Kobayashi, J. Normand, 
 K. Raghavachari, A. Rendell, J. C. Burant, S. S. Iyengar, J. Tomasi, 
 M. Cossi, N. Rega, J. M. Millam, M. Klene, J. E. Knox, J. B. Cross, 
 V. Bakken, C. Adamo, J. Jaramillo, R. Gomperts, R. E. Stratmann, 
 O. Yazyev, A. J. Austin, R. Cammi, C. Pomelli, J. W. Ochterski, 
 R. L. Martin, K. Morokuma, V. G. Zakrzewski, G. A. Voth, 
 P. Salvador, J. J. Dannenberg, S. Dapprich, A. D. Daniels, 
 O. Farkas, J. B. Foresman, J. V. Ortiz, J. Cioslowski, 
 and D. J. Fox, Gaussian, Inc., Wallingford CT, 2010.
 
 ******************************************
 Gaussian 09:  EM64L-G09RevB.01 12-Aug-2010
                 8-Dec-2011 
 ******************************************
 %NProc=8
 Will use up to    8 processors via shared memory.
 %mem=424000000
 ---
 #G4
 ---
 1/14=-1,18=20,19=15,26=3,38=1/1,3;
 2/9=110,12=2,17=6,18=5,40=1/2;
 3/5=35,7=104,11=2,16=1,25=1,30=1,71=1,74=-5/1,2,3;
 4//1;
 5/5=2,38=5/2;
 6/7=2,8=2,9=2,10=2,28=1/1;
 7//1,2,3,16;
 1/14=-1,18=20,19=15/3(2);
 2/9=110/2;
 99//99;
 2/9=110/2;
 3/5=35,7=104,11=2,16=1,25=1,30=1,71=1,74=-5/1,2,3;
 4/5=5,16=3/1;
 5/5=2,38=5/2;
 7//1,2,3,16;
 1/14=-1,18=20,19=15/3(-5);
 2/9=110/2;
 6/7=2,8=2,9=2,10=2,19=2,28=1/1;
 99/9=1/99;
 -----------------------------------------------------------------
 1htz 1H-Tetrazole casno=288948 state=1 config=1 method=74 basis=0
 -----------------------------------------------------------------
 Symbolic Z-matrix:
 Charge =  0 Multiplicity = 1
 N                    -0.71631  -0.90193   0. 
 N                    -1.09552   0.29142   0. 
 N                     0.        1.03878   0. 
 H                    -0.06148   2.03099   0. 
 N                     0.62215  -0.9895    0. 
 C                     1.05281   0.22578   0. 
 H                     2.07237   0.54298   0. 
 

 GradGradGradGradGradGradGradGradGradGradGradGradGradGradGradGradGradGrad
 Berny optimization.
 Initialization pass.
                           ----------------------------
                           !    Initial Parameters    !
                           ! (Angstroms and Degrees)  !
 --------------------------                            --------------------------
 ! Name  Definition              Value          Derivative Info.                !
 --------------------------------------------------------------------------------
 ! R1    R(1,2)                  1.2522         estimate D2E/DX2                !
 ! R2    R(1,5)                  1.3413         estimate D2E/DX2                !
 ! R3    R(2,3)                  1.3262         estimate D2E/DX2                !
 ! R4    R(3,4)                  0.9941         estimate D2E/DX2                !
 ! R5    R(3,6)                  1.3302         estimate D2E/DX2                !
 ! R6    R(5,6)                  1.2893         estimate D2E/DX2                !
 ! R7    R(6,7)                  1.0678         estimate D2E/DX2                !
 ! A1    A(2,1,5)              111.3714         estimate D2E/DX2                !
 ! A2    A(1,2,3)              106.673          estimate D2E/DX2                !
 ! A3    A(2,3,4)              120.7559         estimate D2E/DX2                !
 ! A4    A(2,3,6)              108.0227         estimate D2E/DX2                !
 ! A5    A(4,3,6)              131.2214         estimate D2E/DX2                !
 ! A6    A(1,5,6)              105.7701         estimate D2E/DX2                !
 ! A7    A(3,6,5)              108.1628         estimate D2E/DX2                !
 ! A8    A(3,6,7)              125.0426         estimate D2E/DX2                !
 ! A9    A(5,6,7)              126.7946         estimate D2E/DX2                !
 ! D1    D(5,1,2,3)              0.0            estimate D2E/DX2                !
 ! D2    D(2,1,5,6)              0.0            estimate D2E/DX2                !
 ! D3    D(1,2,3,4)            180.0            estimate D2E/DX2                !
 ! D4    D(1,2,3,6)              0.0            estimate D2E/DX2                !
 ! D5    D(2,3,6,5)              0.0            estimate D2E/DX2                !
 ! D6    D(2,3,6,7)            180.0            estimate D2E/DX2                !
 ! D7    D(4,3,6,5)            180.0            estimate D2E/DX2                !
 ! D8    D(4,3,6,7)              0.0            estimate D2E/DX2                !
 ! D9    D(1,5,6,3)              0.0            estimate D2E/DX2                !
 ! D10   D(1,5,6,7)            180.0            estimate D2E/DX2                !
 --------------------------------------------------------------------------------
 Trust Radius=3.00D-01 FncErr=1.00D-07 GrdErr=1.00D-06
 Number of steps in this run=     36 maximum allowed number of steps=    100.
 GradGradGradGradGradGradGradGradGradGradGradGradGradGradGradGradGradGrad

                          Input orientation:                          
 ---------------------------------------------------------------------
 Center     Atomic      Atomic             Coordinates (Angstroms)
 Number     Number       Type             X           Y           Z
 ---------------------------------------------------------------------
      1          7           0       -0.716312   -0.901934    0.000000
      2          7           0       -1.095520    0.291420    0.000000
      3          7           0        0.000000    1.038775    0.000000
      4          1           0       -0.061479    2.030994    0.000000
      5          7           0        0.622151   -0.989495    0.000000
      6          6           0        1.052813    0.225779    0.000000
      7          1           0        2.072370    0.542976    0.000000
 ---------------------------------------------------------------------
                    Distance matrix (angstroms):
                    1          2          3          4          5
     1  N    0.000000
     2  N    1.252155   0.000000
     3  N    2.068684   1.326161   0.000000
     4  H    3.005141   2.023699   0.994122   0.000000
     5  N    1.341324   2.142694   2.121544   3.096886   0.000000
     6  C    2.097985   2.149336   1.330180   2.121426   1.289326
     7  H    3.140782   3.177862   2.130853   2.601444   2.109882
                    6          7
     6  C    0.000000
     7  H    1.067760   0.000000
 Stoichiometry    CH2N4
 Framework group  CS[SG(CH2N4)]
 Deg. of freedom    11
 Full point group                 CS      NOp   2
 Largest Abelian subgroup         CS      NOp   2
 Largest concise Abelian subgroup C1      NOp   1
                         Standard orientation:                         
 ---------------------------------------------------------------------
 Center     Atomic      Atomic             Coordinates (Angstroms)
 Number     Number       Type             X           Y           Z
 ---------------------------------------------------------------------
      1          7           0       -0.716312   -0.901934    0.000000
      2          7           0       -1.095520    0.291420    0.000000
      3          7           0        0.000000    1.038775    0.000000
      4          1           0       -0.061479    2.030994    0.000000
      5          7           0        0.622151   -0.989495    0.000000
      6          6           0        1.052813    0.225779    0.000000
      7          1           0        2.072370    0.542976    0.000000
 ---------------------------------------------------------------------
 Rotational constants (GHZ):     10.9198649     10.7343934      5.4131674
 Standard basis: GTBas3 (6D, 7F)
 There are   103 symmetry adapted basis functions of A'  symmetry.
 There are    47 symmetry adapted basis functions of A"  symmetry.
 Integral buffers will be    131072 words long.
 Raffenetti 2 integral format.
 Two-electron integral symmetry is turned on.
   150 basis functions,   234 primitive gaussians,   165 cartesian basis functions
    18 alpha electrons       18 beta electrons
       nuclear repulsion energy       169.8288230689 Hartrees.
 NAtoms=    7 NActive=    7 NUniq=    7 SFac= 1.00D+00 NAtFMM=   50 NAOKFM=F Big=F
 One-electron integrals computed using PRISM.
 NBasis=   150 RedAO= T  NBF=   103    47
 NBsUse=   150 1.00D-06 NBFU=   103    47
 Harris functional with IExCor=  402 diagonalized for initial guess.
 ExpMin= 1.61D-01 ExpMax= 4.17D+03 ExpMxC= 6.27D+02 IAcc=1 IRadAn=         1 AccDes= 0.00D+00
 HarFok:  IExCor=  402 AccDes= 0.00D+00 IRadAn=         1 IDoV= 1
 ScaDFX=  1.000000  1.000000  1.000000  1.000000
 FoFCou: FMM=F IPFlag=           0 FMFlag=      100000 FMFlg1=           0
         NFxFlg=           0 DoJE=T BraDBF=F KetDBF=T FulRan=T
         Omega=  0.000000  0.000000  1.000000  0.000000  0.000000 ICntrl=     500 IOpCl=  0
         NMat0=    1 NMatS0=    1 NMatT0=    0 NMatD0=    1 NMtDS0=    0 NMtDT0=    0
         I1Cent=           4 NGrid=           0.
 Petite list used in FoFCou.
 Initial guess orbital symmetries:
       Occupied  (A') (A') (A') (A') (A') (A') (A') (A') (A') (A')
                 (A') (A') (A") (A') (A") (A') (A") (A')
       Virtual   (A") (A") (A') (A') (A') (A') (A') (A') (A') (A')
                 (A') (A") (A') (A') (A') (A') (A") (A') (A") (A")
                 (A') (A') (A") (A') (A") (A') (A') (A") (A") (A')
                 (A') (A") (A') (A") (A') (A') (A') (A") (A") (A')
                 (A') (A') (A") (A') (A') (A") (A') (A') (A') (A")
                 (A') (A') (A') (A') (A') (A") (A') (A') (A") (A')
                 (A') (A") (A') (A") (A') (A") (A') (A") (A') (A')
                 (A') (A") (A') (A") (A') (A") (A') (A') (A') (A")
                 (A') (A') (A") (A') (A') (A") (A') (A') (A") (A")
                 (A") (A') (A') (A") (A") (A") (A') (A") (A") (A')
                 (A") (A') (A') (A") (A') (A") (A") (A') (A") (A')
                 (A") (A') (A') (A') (A') (A') (A') (A') (A") (A')
                 (A') (A') (A') (A') (A') (A') (A') (A') (A') (A')
                 (A') (A')
 The electronic state of the initial guess is 1-A'.
 Requested convergence on RMS density matrix=1.00D-08 within 128 cycles.
 Requested convergence on MAX density matrix=1.00D-06.
 Requested convergence on             energy=1.00D-06.
 No special actions if energy rises.
 Keep R1 ints in memory in canonical form, NReq=96230081.
 Integral accuracy reduced to 1.0D-05 until final iterations.
 Initial convergence to 1.0D-05 achieved.  Increase integral accuracy.
 SCF Done:  E(RB3LYP) =  -258.263989467     A.U. after   14 cycles
             Convg  =    0.6113D-08             -V/T =  2.0054

 **********************************************************************

            Population analysis using the SCF density.

 **********************************************************************

 Orbital symmetries:
       Occupied  (A') (A') (A') (A') (A') (A') (A') (A') (A') (A')
                 (A') (A") (A') (A') (A") (A") (A') (A')
       Virtual   (A") (A") (A') (A') (A') (A') (A') (A') (A') (A')
                 (A") (A') (A') (A') (A') (A") (A') (A') (A") (A")
                 (A') (A') (A") (A') (A") (A') (A') (A") (A") (A')
                 (A') (A") (A") (A') (A') (A') (A') (A") (A") (A')
                 (A') (A") (A') (A') (A') (A") (A') (A') (A") (A')
                 (A') (A') (A') (A') (A') (A") (A') (A') (A") (A')
                 (A') (A") (A') (A") (A') (A") (A') (A") (A') (A')
                 (A") (A') (A') (A") (A') (A") (A') (A') (A") (A')
                 (A') (A') (A") (A') (A') (A") (A') (A') (A") (A")
                 (A") (A') (A') (A") (A") (A") (A') (A") (A") (A')
                 (A') (A") (A") (A') (A') (A") (A") (A') (A") (A')
                 (A") (A') (A') (A') (A') (A') (A') (A') (A") (A')
                 (A') (A') (A') (A') (A') (A') (A') (A') (A') (A')
                 (A') (A')
 The electronic state is 1-A'.
 Alpha  occ. eigenvalues --  -14.43924 -14.40278 -14.38506 -14.35486 -10.26957
 Alpha  occ. eigenvalues --   -1.16528  -0.95606  -0.90551  -0.68608  -0.67275
 Alpha  occ. eigenvalues --   -0.60519  -0.51003  -0.50484  -0.38364  -0.33580
 Alpha  occ. eigenvalues --   -0.31529  -0.30073  -0.28577
 Alpha virt. eigenvalues --   -0.01142   0.02573   0.06033   0.11351   0.19252
 Alpha virt. eigenvalues --    0.20601   0.27374   0.30159   0.39263   0.44191
 Alpha virt. eigenvalues --    0.45642   0.47799   0.51838   0.55395   0.57020
 Alpha virt. eigenvalues --    0.60291   0.60989   0.62103   0.65258   0.66731
 Alpha virt. eigenvalues --    0.72513   0.73325   0.76271   0.76882   0.78522
 Alpha virt. eigenvalues --    0.84100   0.86258   0.86764   0.87846   0.90503
 Alpha virt. eigenvalues --    0.95665   1.06939   1.07815   1.08001   1.22289
 Alpha virt. eigenvalues --    1.25768   1.27595   1.35525   1.37164   1.41418
 Alpha virt. eigenvalues --    1.44424   1.49733   1.53423   1.59966   1.62709
 Alpha virt. eigenvalues --    1.63122   1.66773   1.69712   1.79391   1.79471
 Alpha virt. eigenvalues --    1.92625   1.94225   2.02271   2.10334   2.17018
 Alpha virt. eigenvalues --    2.21807   2.32998   2.45185   2.57274   2.79720
 Alpha virt. eigenvalues --    2.88936   2.89610   2.93716   2.98906   3.06054
 Alpha virt. eigenvalues --    3.10485   3.11871   3.18885   3.22413   3.29763
 Alpha virt. eigenvalues --    3.33854   3.35397   3.37721   3.41569   3.46168
 Alpha virt. eigenvalues --    3.49643   3.58420   3.61254   3.72083   3.72187
 Alpha virt. eigenvalues --    3.78793   3.85628   3.94304   3.94558   4.02339
 Alpha virt. eigenvalues --    4.04511   4.04759   4.06637   4.13442   4.17487
 Alpha virt. eigenvalues --    4.19901   4.23485   4.27612   4.31506   4.39612
 Alpha virt. eigenvalues --    4.45336   4.48047   4.50562   4.53343   4.53642
 Alpha virt. eigenvalues --    4.56486   4.56567   4.59739   4.60678   4.65498
 Alpha virt. eigenvalues --    4.81357   4.83919   4.87942   4.88525   4.97746
 Alpha virt. eigenvalues --    5.00325   5.05069   5.06881   5.20175   5.26207
 Alpha virt. eigenvalues --    5.35493   5.46347   5.52143   5.56023   5.59593
 Alpha virt. eigenvalues --    5.74651   5.81502   6.28532   6.45360   8.11297
 Alpha virt. eigenvalues --   10.34870  11.25580  11.27310  11.35388  11.45848
 Alpha virt. eigenvalues --   16.01248  19.11710
          Condensed to atoms (all electrons):
              1          2          3          4          5          6
     1  N    6.325411   0.526080  -0.132476   0.007120   0.498896  -0.142995
     2  N    0.526080   6.442763   0.391657  -0.024672  -0.172465  -0.098711
     3  N   -0.132476   0.391657   6.162590   0.346742  -0.028867   0.465346
     4  H    0.007120  -0.024672   0.346742   0.404856   0.007423  -0.034394
     5  N    0.498896  -0.172465  -0.028867   0.007423   6.369613   0.544191
     6  C   -0.142995  -0.098711   0.465346  -0.034394   0.544191   4.822645
     7  H    0.005031   0.003882  -0.026515   0.000551  -0.017104   0.369537
              7
     1  N    0.005031
     2  N    0.003882
     3  N   -0.026515
     4  H    0.000551
     5  N   -0.017104
     6  C    0.369537
     7  H    0.495614
 Mulliken atomic charges:
              1
     1  N   -0.087067
     2  N   -0.068533
     3  N   -0.178476
     4  H    0.292375
     5  N   -0.201687
     6  C    0.074382
     7  H    0.169005
 Sum of Mulliken atomic charges =   0.00000
 Mulliken charges with hydrogens summed into heavy atoms:
              1
     1  N   -0.087067
     2  N   -0.068533
     3  N    0.113899
     5  N   -0.201687
     6  C    0.243387
 Sum of Mulliken charges with hydrogens summed into heavy atoms =   0.00000
 Electronic spatial extent (au):  <R**2>=            243.3974
 Charge=              0.0000 electrons
 Dipole moment (field-independent basis, Debye):
    X=              2.3932    Y=              4.5883    Z=              0.0000  Tot=              5.1749
 Quadrupole moment (field-independent basis, Debye-Ang):
   XX=            -28.4600   YY=            -25.9196   ZZ=            -27.6846
   XY=              1.6796   XZ=              0.0000   YZ=              0.0000
 Traceless Quadrupole moment (field-independent basis, Debye-Ang):
   XX=             -1.1053   YY=              1.4351   ZZ=             -0.3299
   XY=              1.6796   XZ=              0.0000   YZ=              0.0000
 Octapole moment (field-independent basis, Debye-Ang**2):
  XXX=             10.8401  YYY=             20.8614  ZZZ=              0.0000  XYY=             -0.6245
  XXY=              4.1973  XXZ=              0.0000  XZZ=             -0.6506  YZZ=              0.5094
  YYZ=              0.0000  XYZ=              0.0000
 Hexadecapole moment (field-independent basis, Debye-Ang**3):
 XXXX=           -137.6539 YYYY=           -115.3697 ZZZZ=            -23.7686 XXXY=              5.8359
 XXXZ=              0.0000 YYYX=             -0.5773 YYYZ=              0.0000 ZZZX=              0.0000
 ZZZY=              0.0000 XXYY=            -51.2009 XXZZ=            -28.8258 YYZZ=            -27.0883
 XXYZ=              0.0000 YYXZ=              0.0000 ZZXY=             -0.1561
 N-N= 1.698288230689D+02 E-N=-9.424420982317D+02  KE= 2.568845703382D+02
 Symmetry A'   KE= 2.474224243403D+02
 Symmetry A"   KE= 9.462145997994D+00
 Calling FoFJK, ICntrl=      2127 FMM=F ISym2X=1 I1Cent= 0 IOpClX= 0 NMat=1 NMatS=1 NMatT=0.
 ***** Axes restored to original set *****
 -------------------------------------------------------------------
 Center     Atomic                   Forces (Hartrees/Bohr)
 Number     Number              X              Y              Z
 -------------------------------------------------------------------
      1        7          -0.008688357   -0.042138607    0.000000000
      2        7          -0.034631601    0.030933028    0.000000000
      3        7           0.006140007    0.012864064    0.000000000
      4        1          -0.000958021    0.012329005    0.000000000
      5        7           0.013586662   -0.029899901    0.000000000
      6        6           0.017801434    0.013309806    0.000000000
      7        1           0.006749877    0.002602604    0.000000000
 -------------------------------------------------------------------
 Cartesian Forces:  Max     0.042138607 RMS     0.016886785

 GradGradGradGradGradGradGradGradGradGradGradGradGradGradGradGradGradGrad
 Berny optimization.
 Internal  Forces:  Max     0.044560410 RMS     0.013414673
 Search for a local minimum.
 Step number   1 out of a maximum of   36
 All quantities printed in internal units (Hartrees-Bohrs-Radians)
 Mixed Optimization -- RFO/linear search
 Second derivative matrix not updated -- first step.
 ITU=  0
     Eigenvalues ---    0.02505   0.02639   0.02674   0.02834   0.16000
     Eigenvalues ---    0.16000   0.22605   0.24688   0.37515   0.48737
     Eigenvalues ---    0.50885   0.56605   0.58506   0.66912   0.78894
 RFO step:  Lambda=-6.76654340D-03 EMin= 2.50522405D-02
 Linear search not attempted -- first point.
 Iteration  1 RMS(Cart)=  0.02065854 RMS(Int)=  0.00002858
 Iteration  2 RMS(Cart)=  0.00002131 RMS(Int)=  0.00001947
 Iteration  3 RMS(Cart)=  0.00000000 RMS(Int)=  0.00001947
 ClnCor:  largest displacement from symmetrization is 4.22D-12 for atom     6.
 Variable       Old X    -DE/DX   Delta X   Delta X   Delta X     New X
                                 (Linear)    (Quad)   (Total)
    R1        2.36623   0.04456   0.00000   0.05530   0.05533   2.42156
    R2        2.53474   0.02205   0.00000   0.03986   0.03988   2.57462
    R3        2.50608   0.02406   0.00000   0.03939   0.03939   2.54547
    R4        1.87862   0.01236   0.00000   0.02502   0.02502   1.90364
    R5        2.51368   0.02104   0.00000   0.03267   0.03264   2.54631
    R6        2.43647   0.03068   0.00000   0.04203   0.04202   2.47849
    R7        2.01777   0.00722   0.00000   0.01890   0.01890   2.03668
    A1        1.94380  -0.00283   0.00000  -0.00143  -0.00138   1.94242
    A2        1.86179  -0.00258   0.00000  -0.00433  -0.00430   1.85750
    A3        2.10759  -0.00128   0.00000  -0.00269  -0.00268   2.10491
    A4        1.88535   0.00217   0.00000   0.00310   0.00307   1.88842
    A5        2.29024  -0.00089   0.00000  -0.00041  -0.00039   2.28985
    A6        1.84604  -0.00008   0.00000  -0.00213  -0.00213   1.84391
    A7        1.88780   0.00332   0.00000   0.00479   0.00474   1.89254
    A8        2.18241  -0.00215   0.00000  -0.00536  -0.00533   2.17707
    A9        2.21298  -0.00117   0.00000   0.00057   0.00059   2.21357
    D1        0.00000   0.00000   0.00000   0.00000   0.00000   0.00000
    D2        0.00000   0.00000   0.00000   0.00000   0.00000   0.00000
    D3        3.14159   0.00000   0.00000   0.00000   0.00000   3.14159
    D4        0.00000   0.00000   0.00000   0.00000   0.00000   0.00000
    D5        0.00000   0.00000   0.00000   0.00000   0.00000   0.00000
    D6        3.14159   0.00000   0.00000   0.00000   0.00000   3.14159
    D7        3.14159   0.00000   0.00000   0.00000   0.00000   3.14159
    D8        0.00000   0.00000   0.00000   0.00000   0.00000   0.00000
    D9        0.00000   0.00000   0.00000   0.00000   0.00000   0.00000
   D10        3.14159   0.00000   0.00000   0.00000   0.00000   3.14159
         Item               Value     Threshold  Converged?
 Maximum Force            0.044560     0.000450     NO 
 RMS     Force            0.013415     0.000300     NO 
 Maximum Displacement     0.046702     0.001800     NO 
 RMS     Displacement     0.020652     0.001200     NO 
 Predicted change in Energy=-3.416981D-03
 GradGradGradGradGradGradGradGradGradGradGradGradGradGradGradGradGradGrad

                          Input orientation:                          
 ---------------------------------------------------------------------
 Center     Atomic      Atomic             Coordinates (Angstroms)
 Number     Number       Type             X           Y           Z
 ---------------------------------------------------------------------
      1          7           0       -0.729824   -0.925279    0.000000
      2          7           0       -1.117689    0.296044    0.000000
      3          7           0       -0.001568    1.050164    0.000000
      4          1           0       -0.062063    2.055708    0.000000
      5          7           0        0.629805   -1.012571    0.000000
      6          6           0        1.063760    0.225118    0.000000
      7          1           0        2.091603    0.549331    0.000000
 ---------------------------------------------------------------------
                    Distance matrix (angstroms):
                    1          2          3          4          5
     1  N    0.000000
     2  N    1.281433   0.000000
     3  N    2.105405   1.347005   0.000000
     4  H    3.054863   2.052014   1.007362   0.000000
     5  N    1.362428   2.183165   2.157198   3.145316   0.000000
     6  C    2.130811   2.182602   1.347451   2.149078   1.311560
     7  H    3.183539   3.219271   2.152253   2.628202   2.139250
                    6          7
     6  C    0.000000
     7  H    1.077764   0.000000
 Stoichiometry    CH2N4
 Framework group  CS[SG(CH2N4)]
 Deg. of freedom    11
 Full point group                 CS      NOp   2
 Largest Abelian subgroup         CS      NOp   2
 Largest concise Abelian subgroup C1      NOp   1
                         Standard orientation:                         
 ---------------------------------------------------------------------
 Center     Atomic      Atomic             Coordinates (Angstroms)
 Number     Number       Type             X           Y           Z
 ---------------------------------------------------------------------
      1          7           0       -0.724803   -0.921387    0.000000
      2          7           0       -1.114802    0.299256    0.000000
      3          7           0        0.000000    1.055325    0.000000
      4          1           0       -0.062253    2.060762    0.000000
      5          7           0        0.634977   -1.006303    0.000000
      6          6           0        1.066768    0.232142    0.000000
      7          1           0        2.094042    0.558151    0.000000
 ---------------------------------------------------------------------
 Rotational constants (GHZ):     10.5565314     10.3957367      5.2377585
 Standard basis: GTBas3 (6D, 7F)
 There are   103 symmetry adapted basis functions of A'  symmetry.
 There are    47 symmetry adapted basis functions of A"  symmetry.
 Integral buffers will be    131072 words long.
 Raffenetti 2 integral format.
 Two-electron integral symmetry is turned on.
   150 basis functions,   234 primitive gaussians,   165 cartesian basis functions
    18 alpha electrons       18 beta electrons
       nuclear repulsion energy       167.0476573668 Hartrees.
 NAtoms=    7 NActive=    7 NUniq=    7 SFac= 1.00D+00 NAtFMM=   50 NAOKFM=F Big=F
 One-electron integrals computed using PRISM.
 NBasis=   150 RedAO= T  NBF=   103    47
 NBsUse=   150 1.00D-06 NBFU=   103    47
 Initial guess read from the read-write file.
 B after Tr=     0.000000    0.000000    0.000000
         Rot=    1.000000    0.000000    0.000000    0.000000 Ang=   0.00 deg.
 Initial guess orbital symmetries:
       Occupied  (A') (A') (A') (A') (A') (A') (A') (A') (A') (A')
                 (A') (A") (A') (A') (A") (A") (A') (A')
       Virtual   (A") (A") (A') (A') (A') (A') (A') (A') (A') (A')
                 (A") (A') (A') (A') (A') (A") (A') (A') (A") (A")
                 (A') (A') (A") (A') (A") (A') (A') (A") (A") (A')
                 (A') (A") (A") (A') (A') (A') (A') (A") (A") (A')
                 (A') (A") (A') (A') (A') (A") (A') (A') (A") (A')
                 (A') (A') (A') (A') (A') (A") (A') (A') (A") (A')
                 (A') (A") (A') (A") (A') (A") (A') (A") (A') (A')
                 (A") (A') (A') (A") (A') (A") (A') (A') (A") (A')
                 (A') (A') (A") (A') (A') (A") (A') (A') (A") (A")
                 (A") (A') (A') (A") (A") (A") (A') (A") (A") (A')
                 (A') (A") (A") (A') (A') (A") (A") (A') (A") (A')
                 (A") (A') (A') (A') (A') (A') (A') (A') (A") (A')
                 (A') (A') (A') (A') (A') (A') (A') (A') (A') (A')
                 (A') (A')
 Harris functional with IExCor=  402 diagonalized for initial guess.
 ExpMin= 1.61D-01 ExpMax= 4.17D+03 ExpMxC= 6.27D+02 IAcc=1 IRadAn=         1 AccDes= 0.00D+00
 HarFok:  IExCor=  402 AccDes= 0.00D+00 IRadAn=         1 IDoV= 1
 ScaDFX=  1.000000  1.000000  1.000000  1.000000
 FoFCou: FMM=F IPFlag=           0 FMFlag=      100000 FMFlg1=           0
         NFxFlg=           0 DoJE=T BraDBF=F KetDBF=T FulRan=T
         Omega=  0.000000  0.000000  1.000000  0.000000  0.000000 ICntrl=     500 IOpCl=  0
         NMat0=    1 NMatS0=    1 NMatT0=    0 NMatD0=    1 NMtDS0=    0 NMtDT0=    0
         I1Cent=           4 NGrid=           0.
 Petite list used in FoFCou.
 Requested convergence on RMS density matrix=1.00D-08 within 128 cycles.
 Requested convergence on MAX density matrix=1.00D-06.
 Requested convergence on             energy=1.00D-06.
 No special actions if energy rises.
 Keep R1 ints in memory in canonical form, NReq=96230227.
 Integral accuracy reduced to 1.0D-05 until final iterations.
 Initial convergence to 1.0D-05 achieved.  Increase integral accuracy.
 SCF Done:  E(RB3LYP) =  -258.267585020     A.U. after   12 cycles
             Convg  =    0.2222D-08             -V/T =  2.0067
 Calling FoFJK, ICntrl=      2127 FMM=F ISym2X=1 I1Cent= 0 IOpClX= 0 NMat=1 NMatS=1 NMatT=0.
 ***** Axes restored to original set *****
 -------------------------------------------------------------------
 Center     Atomic                   Forces (Hartrees/Bohr)
 Number     Number              X              Y              Z
 -------------------------------------------------------------------
      1        7           0.001150209   -0.005846286    0.000000000
      2        7          -0.006366720    0.006714724    0.000000000
      3        7           0.003969726   -0.001764315    0.000000000
      4        1          -0.000182106    0.000028297    0.000000000
      5        7           0.002148270   -0.001493605    0.000000000
      6        6          -0.000444848    0.002349671    0.000000000
      7        1          -0.000274532    0.000011514    0.000000000
 -------------------------------------------------------------------
 Cartesian Forces:  Max     0.006714724 RMS     0.002696298

 GradGradGradGradGradGradGradGradGradGradGradGradGradGradGradGradGradGrad
 Berny optimization.
 Using GEDIIS/GDIIS optimizer.
 Internal  Forces:  Max     0.006721071 RMS     0.001667411
 Search for a local minimum.
 Step number   2 out of a maximum of   36
 All quantities printed in internal units (Hartrees-Bohrs-Radians)
 Mixed Optimization -- RFO/linear search
 Update second derivatives using D2CorX and points    1    2
 DE= -3.60D-03 DEPred=-3.42D-03 R= 1.05D+00
 SS=  1.41D+00  RLast= 1.01D-01 DXNew= 5.0454D-01 3.0165D-01
 Trust test= 1.05D+00 RLast= 1.01D-01 DXMaxT set to 3.02D-01
 ITU=  1  0
 Use linear search instead of GDIIS.
     Eigenvalues ---    0.02506   0.02639   0.02675   0.02835   0.15994
     Eigenvalues ---    0.16001   0.22582   0.24541   0.37652   0.48825
     Eigenvalues ---    0.50494   0.55558   0.59531   0.67666   0.73393
 RFO step:  Lambda=-9.20805683D-05 EMin= 2.50555713D-02
 Quartic linear search produced a step of  0.10219.
 Iteration  1 RMS(Cart)=  0.00324808 RMS(Int)=  0.00001281
 Iteration  2 RMS(Cart)=  0.00001220 RMS(Int)=  0.00000585
 Iteration  3 RMS(Cart)=  0.00000000 RMS(Int)=  0.00000585
 ClnCor:  largest displacement from symmetrization is 9.43D-13 for atom     6.
 Variable       Old X    -DE/DX   Delta X   Delta X   Delta X     New X
                                 (Linear)    (Quad)   (Total)
    R1        2.42156   0.00672   0.00565   0.00512   0.01078   2.43233
    R2        2.57462   0.00197   0.00408   0.00123   0.00530   2.57992
    R3        2.54547   0.00233   0.00403   0.00110   0.00513   2.55060
    R4        1.90364   0.00004   0.00256  -0.00190   0.00066   1.90429
    R5        2.54631  -0.00109   0.00334  -0.00564  -0.00230   2.54401
    R6        2.47849   0.00115   0.00429  -0.00222   0.00207   2.48056
    R7        2.03668  -0.00026   0.00193  -0.00220  -0.00027   2.03641
    A1        1.94242   0.00000  -0.00014   0.00414   0.00400   1.94642
    A2        1.85750  -0.00275  -0.00044  -0.00923  -0.00965   1.84785
    A3        2.10491  -0.00120  -0.00027  -0.00477  -0.00505   2.09986
    A4        1.88842   0.00204   0.00031   0.00721   0.00752   1.89594
    A5        2.28985  -0.00084  -0.00004  -0.00243  -0.00247   2.28738
    A6        1.84391  -0.00021  -0.00022  -0.00196  -0.00219   1.84171
    A7        1.89254   0.00093   0.00048  -0.00016   0.00032   1.89286
    A8        2.17707  -0.00057  -0.00055  -0.00046  -0.00100   2.17607
    A9        2.21357  -0.00036   0.00006   0.00062   0.00069   2.21426
    D1        0.00000   0.00000   0.00000   0.00000   0.00000   0.00000
    D2        0.00000   0.00000   0.00000   0.00000   0.00000   0.00000
    D3        3.14159   0.00000   0.00000   0.00000   0.00000   3.14159
    D4        0.00000   0.00000   0.00000   0.00000   0.00000   0.00000
    D5        0.00000   0.00000   0.00000   0.00000   0.00000   0.00000
    D6        3.14159   0.00000   0.00000   0.00000   0.00000   3.14159
    D7        3.14159   0.00000   0.00000   0.00000   0.00000   3.14159
    D8        0.00000   0.00000   0.00000   0.00000   0.00000   0.00000
    D9        0.00000   0.00000   0.00000   0.00000   0.00000   0.00000
   D10        3.14159   0.00000   0.00000   0.00000   0.00000   3.14159
         Item               Value     Threshold  Converged?
 Maximum Force            0.006721     0.000450     NO 
 RMS     Force            0.001667     0.000300     NO 
 Maximum Displacement     0.011557     0.001800     NO 
 RMS     Displacement     0.003249     0.001200     NO 
 Predicted change in Energy=-7.258775D-05
 GradGradGradGradGradGradGradGradGradGradGradGradGradGradGradGradGradGrad

                          Input orientation:                          
 ---------------------------------------------------------------------
 Center     Atomic      Atomic             Coordinates (Angstroms)
 Number     Number       Type             X           Y           Z
 ---------------------------------------------------------------------
      1          7           0       -0.730012   -0.925947    0.000000
      2          7           0       -1.123805    0.299469    0.000000
      3          7           0       -0.000754    1.048134    0.000000
      4          1           0       -0.060089    2.054094    0.000000
      5          7           0        0.632366   -1.014206    0.000000
      6          6           0        1.064680    0.225218    0.000000
      7          1           0        2.091636    0.551753    0.000000
 ---------------------------------------------------------------------
                    Distance matrix (angstroms):
                    1          2          3          4          5
     1  N    0.000000
     2  N    1.287136   0.000000
     3  N    2.104474   1.349720   0.000000
     4  H    3.054414   2.051878   1.007709   0.000000
     5  N    1.365234   2.193144   2.157333   3.145466   0.000000
     6  C    2.132158   2.189744   1.346232   2.147066   1.312656
     7  H    3.185168   3.225323   2.150463   2.624300   2.140490
                    6          7
     6  C    0.000000
     7  H    1.077620   0.000000
 Stoichiometry    CH2N4
 Framework group  CS[SG(CH2N4)]
 Deg. of freedom    11
 Full point group                 CS      NOp   2
 Largest Abelian subgroup         CS      NOp   2
 Largest concise Abelian subgroup C1      NOp   1
                         Standard orientation:                         
 ---------------------------------------------------------------------
 Center     Atomic      Atomic             Coordinates (Angstroms)
 Number     Number       Type             X           Y           Z
 ---------------------------------------------------------------------
      1          7           0       -0.723598   -0.922727    0.000000
      2          7           0       -1.120902    0.301556    0.000000
      3          7           0        0.000000    1.053435    0.000000
      4          1           0       -0.062217    2.059222    0.000000
      5          7           0        0.639027   -1.007081    0.000000
      6          6           0        1.067787    0.233575    0.000000
      7          1           0        2.093804    0.563052    0.000000
 ---------------------------------------------------------------------
 Rotational constants (GHZ):     10.5564406     10.3339879      5.2220149
 Standard basis: GTBas3 (6D, 7F)
 There are   103 symmetry adapted basis functions of A'  symmetry.
 There are    47 symmetry adapted basis functions of A"  symmetry.
 Integral buffers will be    131072 words long.
 Raffenetti 2 integral format.
 Two-electron integral symmetry is turned on.
   150 basis functions,   234 primitive gaussians,   165 cartesian basis functions
    18 alpha electrons       18 beta electrons
       nuclear repulsion energy       166.7905565317 Hartrees.
 NAtoms=    7 NActive=    7 NUniq=    7 SFac= 1.00D+00 NAtFMM=   50 NAOKFM=F Big=F
 One-electron integrals computed using PRISM.
 NBasis=   150 RedAO= T  NBF=   103    47
 NBsUse=   150 1.00D-06 NBFU=   103    47
 Initial guess read from the read-write file.
 B after Tr=     0.000000    0.000000    0.000000
         Rot=    1.000000    0.000000    0.000000    0.000000 Ang=   0.00 deg.
 Initial guess orbital symmetries:
       Occupied  (A') (A') (A') (A') (A') (A') (A') (A') (A') (A')
                 (A') (A') (A") (A') (A") (A") (A') (A')
       Virtual   (A") (A") (A') (A') (A') (A') (A') (A') (A') (A')
                 (A") (A') (A') (A') (A') (A') (A") (A') (A") (A")
                 (A') (A') (A") (A') (A") (A') (A') (A") (A") (A')
                 (A') (A") (A") (A') (A') (A') (A') (A") (A") (A')
                 (A') (A") (A') (A') (A') (A") (A') (A') (A") (A')
                 (A') (A') (A') (A') (A') (A") (A') (A') (A") (A')
                 (A') (A") (A') (A") (A') (A') (A") (A") (A') (A')
                 (A") (A') (A') (A") (A') (A") (A') (A') (A') (A")
                 (A') (A') (A') (A") (A') (A') (A') (A") (A") (A')
                 (A") (A") (A') (A") (A") (A") (A') (A") (A') (A")
                 (A') (A") (A") (A') (A') (A") (A") (A") (A') (A")
                 (A') (A') (A') (A') (A') (A') (A') (A') (A") (A')
                 (A') (A') (A') (A') (A') (A') (A') (A') (A') (A')
                 (A') (A')
 Requested convergence on RMS density matrix=1.00D-08 within 128 cycles.
 Requested convergence on MAX density matrix=1.00D-06.
 Requested convergence on             energy=1.00D-06.
 No special actions if energy rises.
 Keep R1 ints in memory in canonical form, NReq=96230227.
 SCF Done:  E(RB3LYP) =  -258.267652603     A.U. after    9 cycles
             Convg  =    0.8672D-08             -V/T =  2.0068
 Calling FoFJK, ICntrl=      2127 FMM=F ISym2X=1 I1Cent= 0 IOpClX= 0 NMat=1 NMatS=1 NMatT=0.
 ***** Axes restored to original set *****
 -------------------------------------------------------------------
 Center     Atomic                   Forces (Hartrees/Bohr)
 Number     Number              X              Y              Z
 -------------------------------------------------------------------
      1        7           0.000184368   -0.003058627    0.000000000
      2        7           0.001318157    0.000922623    0.000000000
      3        7           0.001384597    0.000625777    0.000000000
      4        1           0.000141405   -0.000090957    0.000000000
      5        7          -0.001313185    0.000339686    0.000000000
      6        6          -0.001569816    0.001229410    0.000000000
      7        1          -0.000145526    0.000032088    0.000000000
 -------------------------------------------------------------------
 Cartesian Forces:  Max     0.003058627 RMS     0.000979620

 GradGradGradGradGradGradGradGradGradGradGradGradGradGradGradGradGradGrad
 Berny optimization.
 Using GEDIIS/GDIIS optimizer.
 Internal  Forces:  Max     0.001929221 RMS     0.000786986
 Search for a local minimum.
 Step number   3 out of a maximum of   36
 All quantities printed in internal units (Hartrees-Bohrs-Radians)
 Mixed Optimization -- En-DIIS/RFO-DIIS
 Update second derivatives using D2CorX and points    1    2    3
 DE= -6.76D-05 DEPred=-7.26D-05 R= 9.31D-01
 SS=  1.41D+00  RLast= 1.96D-02 DXNew= 5.0731D-01 5.8819D-02
 Trust test= 9.31D-01 RLast= 1.96D-02 DXMaxT set to 3.02D-01
 ITU=  1  1  0
 Use linear search instead of GDIIS.
     Eigenvalues ---    0.02506   0.02638   0.02675   0.02835   0.15938
     Eigenvalues ---    0.16024   0.23054   0.33093   0.37611   0.39151
     Eigenvalues ---    0.49117   0.52632   0.64999   0.65840   0.70398
 RFO step:  Lambda=-3.66472134D-05 EMin= 2.50574226D-02
 Quartic linear search produced a step of -0.09079.
 Iteration  1 RMS(Cart)=  0.00210540 RMS(Int)=  0.00000313
 Iteration  2 RMS(Cart)=  0.00000227 RMS(Int)=  0.00000163
 Iteration  3 RMS(Cart)=  0.00000000 RMS(Int)=  0.00000163
 ClnCor:  largest displacement from symmetrization is 5.29D-14 for atom     6.
 Variable       Old X    -DE/DX   Delta X   Delta X   Delta X     New X
                                 (Linear)    (Quad)   (Total)
    R1        2.43233   0.00158  -0.00098   0.00545   0.00447   2.43680
    R2        2.57992  -0.00108  -0.00048   0.00012  -0.00036   2.57956
    R3        2.55060   0.00014  -0.00047   0.00197   0.00150   2.55210
    R4        1.90429  -0.00010  -0.00006   0.00007   0.00001   1.90431
    R5        2.54401  -0.00189   0.00021  -0.00373  -0.00352   2.54049
    R6        2.48056   0.00085  -0.00019   0.00175   0.00156   2.48212
    R7        2.03641  -0.00013   0.00002  -0.00036  -0.00033   2.03607
    A1        1.94642  -0.00193  -0.00036  -0.00499  -0.00535   1.94107
    A2        1.84785   0.00140   0.00088   0.00283   0.00370   1.85154
    A3        2.09986   0.00056   0.00046   0.00114   0.00160   2.10146
    A4        1.89594  -0.00089  -0.00068  -0.00169  -0.00238   1.89357
    A5        2.28738   0.00032   0.00022   0.00055   0.00078   2.28816
    A6        1.84171   0.00083   0.00020   0.00211   0.00232   1.84403
    A7        1.89286   0.00058  -0.00003   0.00174   0.00171   1.89457
    A8        2.17607  -0.00038   0.00009  -0.00163  -0.00153   2.17453
    A9        2.21426  -0.00021  -0.00006  -0.00012  -0.00018   2.21408
    D1        0.00000   0.00000   0.00000   0.00000   0.00000   0.00000
    D2        0.00000   0.00000   0.00000   0.00000   0.00000   0.00000
    D3        3.14159   0.00000   0.00000   0.00000   0.00000   3.14159
    D4        0.00000   0.00000   0.00000   0.00000   0.00000   0.00000
    D5        0.00000   0.00000   0.00000   0.00000   0.00000   0.00000
    D6        3.14159   0.00000   0.00000   0.00000   0.00000   3.14159
    D7        3.14159   0.00000   0.00000   0.00000   0.00000   3.14159
    D8        0.00000   0.00000   0.00000   0.00000   0.00000   0.00000
    D9        0.00000   0.00000   0.00000   0.00000   0.00000   0.00000
   D10        3.14159   0.00000   0.00000   0.00000   0.00000   3.14159
         Item               Value     Threshold  Converged?
 Maximum Force            0.001929     0.000450     NO 
 RMS     Force            0.000787     0.000300     NO 
 Maximum Displacement     0.007152     0.001800     NO 
 RMS     Displacement     0.002106     0.001200     NO 
 Predicted change in Energy=-1.899198D-05
 GradGradGradGradGradGradGradGradGradGradGradGradGradGradGradGradGradGrad

                          Input orientation:                          
 ---------------------------------------------------------------------
 Center     Atomic      Atomic             Coordinates (Angstroms)
 Number     Number       Type             X           Y           Z
 ---------------------------------------------------------------------
      1          7           0       -0.731028   -0.929732    0.000000
      2          7           0       -1.122326    0.298966    0.000000
      3          7           0        0.000576    1.049281    0.000000
      4          1           0       -0.058239    2.055280    0.000000
      5          7           0        0.631395   -1.014256    0.000000
      6          6           0        1.063467    0.226125    0.000000
      7          1           0        2.090177    0.552850    0.000000
 ---------------------------------------------------------------------
                    Distance matrix (angstroms):
                    1          2          3          4          5
     1  N    0.000000
     2  N    1.289501   0.000000
     3  N    2.109914   1.350512   0.000000
     4  H    3.059893   2.053514   1.007717   0.000000
     5  N    1.365042   2.190911   2.157804   3.146052   0.000000
     6  C    2.134530   2.187006   1.344367   2.145701   1.313481
     7  H    3.187043   3.222520   2.147761   2.621638   2.140996
                    6          7
     6  C    0.000000
     7  H    1.077443   0.000000
 Stoichiometry    CH2N4
 Framework group  CS[SG(CH2N4)]
 Deg. of freedom    11
 Full point group                 CS      NOp   2
 Largest Abelian subgroup         CS      NOp   2
 Largest concise Abelian subgroup C1      NOp   1
                         Standard orientation:                         
 ---------------------------------------------------------------------
 Center     Atomic      Atomic             Coordinates (Angstroms)
 Number     Number       Type             X           Y           Z
 ---------------------------------------------------------------------
      1          7           0       -0.723381   -0.927041    0.000000
      2          7           0       -1.119777    0.300022    0.000000
      3          7           0        0.000000    1.054993    0.000000
      4          1           0       -0.062991    2.060739    0.000000
      5          7           0        0.639381   -1.005907    0.000000
      6          6           0        1.066299    0.236257    0.000000
      7          1           0        2.091644    0.567241    0.000000
 ---------------------------------------------------------------------
 Rotational constants (GHZ):     10.5165354     10.3603581      5.2189313
 Standard basis: GTBas3 (6D, 7F)
 There are   103 symmetry adapted basis functions of A'  symmetry.
 There are    47 symmetry adapted basis functions of A"  symmetry.
 Integral buffers will be    131072 words long.
 Raffenetti 2 integral format.
 Two-electron integral symmetry is turned on.
   150 basis functions,   234 primitive gaussians,   165 cartesian basis functions
    18 alpha electrons       18 beta electrons
       nuclear repulsion energy       166.7358954984 Hartrees.
 NAtoms=    7 NActive=    7 NUniq=    7 SFac= 1.00D+00 NAtFMM=   50 NAOKFM=F Big=F
 One-electron integrals computed using PRISM.
 NBasis=   150 RedAO= T  NBF=   103    47
 NBsUse=   150 1.00D-06 NBFU=   103    47
 Initial guess read from the read-write file.
 B after Tr=     0.000000    0.000000    0.000000
         Rot=    1.000000    0.000000    0.000000    0.000000 Ang=   0.00 deg.
 Initial guess orbital symmetries:
       Occupied  (A') (A') (A') (A') (A') (A') (A') (A') (A') (A')
                 (A') (A') (A") (A') (A") (A") (A') (A')
       Virtual   (A") (A") (A') (A') (A') (A') (A') (A') (A') (A')
                 (A") (A') (A') (A') (A') (A') (A") (A') (A") (A")
                 (A') (A') (A") (A') (A") (A') (A') (A") (A") (A')
                 (A') (A") (A") (A') (A') (A') (A') (A") (A") (A')
                 (A') (A") (A') (A') (A") (A') (A') (A') (A") (A')
                 (A') (A') (A') (A') (A') (A") (A') (A') (A") (A')
                 (A') (A") (A') (A") (A') (A') (A") (A") (A') (A')
                 (A") (A') (A') (A") (A') (A") (A') (A') (A') (A")
                 (A') (A') (A') (A") (A') (A') (A') (A") (A") (A')
                 (A") (A") (A') (A") (A") (A") (A') (A") (A') (A")
                 (A') (A") (A") (A') (A') (A") (A") (A") (A') (A")
                 (A') (A') (A') (A') (A') (A') (A') (A') (A") (A')
                 (A') (A') (A') (A') (A') (A') (A') (A') (A') (A')
                 (A') (A')
 Requested convergence on RMS density matrix=1.00D-08 within 128 cycles.
 Requested convergence on MAX density matrix=1.00D-06.
 Requested convergence on             energy=1.00D-06.
 No special actions if energy rises.
 Keep R1 ints in memory in canonical form, NReq=96230227.
 SCF Done:  E(RB3LYP) =  -258.267662572     A.U. after    9 cycles
             Convg  =    0.4351D-08             -V/T =  2.0069
 Calling FoFJK, ICntrl=      2127 FMM=F ISym2X=1 I1Cent= 0 IOpClX= 0 NMat=1 NMatS=1 NMatT=0.
 ***** Axes restored to original set *****
 -------------------------------------------------------------------
 Center     Atomic                   Forces (Hartrees/Bohr)
 Number     Number              X              Y              Z
 -------------------------------------------------------------------
      1        7           0.001676482    0.001480055    0.000000000
      2        7          -0.000224957    0.000164140    0.000000000
      3        7          -0.000462653   -0.001117606    0.000000000
      4        1          -0.000076591   -0.000181013    0.000000000
      5        7          -0.000610413   -0.000020613    0.000000000
      6        6          -0.000373576   -0.000178633    0.000000000
      7        1           0.000071707   -0.000146331    0.000000000
 -------------------------------------------------------------------
 Cartesian Forces:  Max     0.001676482 RMS     0.000583564

 GradGradGradGradGradGradGradGradGradGradGradGradGradGradGradGradGradGrad
 Berny optimization.
 Using GEDIIS/GDIIS optimizer.
 Internal  Forces:  Max     0.001155543 RMS     0.000465563
 Search for a local minimum.
 Step number   4 out of a maximum of   36
 All quantities printed in internal units (Hartrees-Bohrs-Radians)
 Mixed Optimization -- En-DIIS/RFO-DIIS
 Swaping is turned off.
 Update second derivatives using D2CorX and points    1    2    3    4
 DE= -9.97D-06 DEPred=-1.90D-05 R= 5.25D-01
 SS=  1.41D+00  RLast= 9.96D-03 DXNew= 5.0731D-01 2.9871D-02
 Trust test= 5.25D-01 RLast= 9.96D-03 DXMaxT set to 3.02D-01
 ITU=  1  1  1  0
     Eigenvalues ---    0.02506   0.02638   0.02676   0.02835   0.16002
     Eigenvalues ---    0.16084   0.23016   0.34560   0.37674   0.48688
     Eigenvalues ---    0.52069   0.52434   0.61975   0.64139   0.72896
 En-DIIS/RFO-DIIS IScMMF=        0 using points:     4    3
 RFO step:  Lambda=-7.16271392D-06.
 DidBck=T Rises=F RFO-DIIS coefs:    0.68257    0.31743
 Iteration  1 RMS(Cart)=  0.00079824 RMS(Int)=  0.00000057
 Iteration  2 RMS(Cart)=  0.00000039 RMS(Int)=  0.00000034
 ClnCor:  largest displacement from symmetrization is 2.84D-15 for atom     7.
 Variable       Old X    -DE/DX   Delta X   Delta X   Delta X     New X
                                  (DIIS)     (GDIIS)  (Total)
    R1        2.43680  -0.00064  -0.00142   0.00045  -0.00097   2.43583
    R2        2.57956  -0.00103   0.00011  -0.00175  -0.00164   2.57792
    R3        2.55210  -0.00090  -0.00048  -0.00075  -0.00123   2.55087
    R4        1.90431  -0.00018   0.00000  -0.00030  -0.00031   1.90400
    R5        2.54049  -0.00004   0.00112  -0.00129  -0.00017   2.54031
    R6        2.48212  -0.00070  -0.00049  -0.00021  -0.00071   2.48141
    R7        2.03607   0.00003   0.00011  -0.00009   0.00002   2.03609
    A1        1.94107   0.00116   0.00170   0.00041   0.00211   1.94317
    A2        1.85154  -0.00092  -0.00117  -0.00041  -0.00158   1.84996
    A3        2.10146  -0.00030  -0.00051  -0.00007  -0.00058   2.10088
    A4        1.89357   0.00041   0.00075  -0.00011   0.00065   1.89422
    A5        2.28816  -0.00011  -0.00025   0.00018  -0.00007   2.28809
    A6        1.84403  -0.00057  -0.00074  -0.00046  -0.00120   1.84283
    A7        1.89457  -0.00008  -0.00054   0.00057   0.00002   1.89459
    A8        2.17453   0.00019   0.00049   0.00013   0.00062   2.17515
    A9        2.21408  -0.00012   0.00006  -0.00070  -0.00064   2.21344
    D1        0.00000   0.00000   0.00000   0.00000   0.00000   0.00000
    D2        0.00000   0.00000   0.00000   0.00000   0.00000   0.00000
    D3        3.14159   0.00000   0.00000   0.00000   0.00000   3.14159
    D4        0.00000   0.00000   0.00000   0.00000   0.00000   0.00000
    D5        0.00000   0.00000   0.00000   0.00000   0.00000   0.00000
    D6        3.14159   0.00000   0.00000   0.00000   0.00000   3.14159
    D7        3.14159   0.00000   0.00000   0.00000   0.00000   3.14159
    D8        0.00000   0.00000   0.00000   0.00000   0.00000   0.00000
    D9        0.00000   0.00000   0.00000   0.00000   0.00000   0.00000
   D10        3.14159   0.00000   0.00000   0.00000   0.00000   3.14159
         Item               Value     Threshold  Converged?
 Maximum Force            0.001156     0.000450     NO 
 RMS     Force            0.000466     0.000300     NO 
 Maximum Displacement     0.002528     0.001800     NO 
 RMS     Displacement     0.000798     0.001200     YES
 Predicted change in Energy=-4.590295D-06
 GradGradGradGradGradGradGradGradGradGradGradGradGradGradGradGradGradGrad

                          Input orientation:                          
 ---------------------------------------------------------------------
 Center     Atomic      Atomic             Coordinates (Angstroms)
 Number     Number       Type             X           Y           Z
 ---------------------------------------------------------------------
      1          7           0       -0.729905   -0.928394    0.000000
      2          7           0       -1.122457    0.299364    0.000000
      3          7           0        0.000231    1.048831    0.000000
      4          1           0       -0.058722    2.054658    0.000000
      5          7           0        0.631572   -1.014171    0.000000
      6          6           0        1.063227    0.225958    0.000000
      7          1           0        2.090078    0.552270    0.000000
 ---------------------------------------------------------------------
                    Distance matrix (angstroms):
                    1          2          3          4          5
     1  N    0.000000
     2  N    1.288987   0.000000
     3  N    2.107728   1.349862   0.000000
     4  H    3.057628   2.052460   1.007554   0.000000
     5  N    1.364176   2.191345   2.157445   3.145508   0.000000
     6  C    2.132569   2.186916   1.344277   2.145440   1.313106
     7  H    3.185070   3.222474   2.148030   2.621929   2.140322
                    6          7
     6  C    0.000000
     7  H    1.077452   0.000000
 Stoichiometry    CH2N4
 Framework group  CS[SG(CH2N4)]
 Deg. of freedom    11
 Full point group                 CS      NOp   2
 Largest Abelian subgroup         CS      NOp   2
 Largest concise Abelian subgroup C1      NOp   1
                         Standard orientation:                         
 ---------------------------------------------------------------------
 Center     Atomic      Atomic             Coordinates (Angstroms)
 Number     Number       Type             X           Y           Z
 ---------------------------------------------------------------------
      1          7           0       -0.722759   -0.925597    0.000000
      2          7           0       -1.119886    0.300689    0.000000
      3          7           0        0.000000    1.054336    0.000000
      4          1           0       -0.062702    2.059936    0.000000
      5          7           0        0.639028   -1.006298    0.000000
      6          6           0        1.066056    0.235432    0.000000
      7          1           0        2.091684    0.565570    0.000000
 ---------------------------------------------------------------------
 Rotational constants (GHZ):     10.5346501     10.3580117      5.2227921
 Standard basis: GTBas3 (6D, 7F)
 There are   103 symmetry adapted basis functions of A'  symmetry.
 There are    47 symmetry adapted basis functions of A"  symmetry.
 Integral buffers will be    131072 words long.
 Raffenetti 2 integral format.
 Two-electron integral symmetry is turned on.
   150 basis functions,   234 primitive gaussians,   165 cartesian basis functions
    18 alpha electrons       18 beta electrons
       nuclear repulsion energy       166.7973794649 Hartrees.
 NAtoms=    7 NActive=    7 NUniq=    7 SFac= 1.00D+00 NAtFMM=   50 NAOKFM=F Big=F
 One-electron integrals computed using PRISM.
 NBasis=   150 RedAO= T  NBF=   103    47
 NBsUse=   150 1.00D-06 NBFU=   103    47
 Initial guess read from the read-write file.
 B after Tr=     0.000000    0.000000    0.000000
         Rot=    1.000000    0.000000    0.000000    0.000000 Ang=   0.00 deg.
 Initial guess orbital symmetries:
       Occupied  (A') (A') (A') (A') (A') (A') (A') (A') (A') (A')
                 (A') (A') (A") (A') (A") (A") (A') (A')
       Virtual   (A") (A") (A') (A') (A') (A') (A') (A') (A') (A')
                 (A") (A') (A') (A') (A') (A') (A") (A') (A") (A")
                 (A') (A') (A") (A') (A") (A') (A') (A") (A") (A')
                 (A') (A") (A") (A') (A') (A') (A') (A") (A") (A')
                 (A') (A") (A') (A') (A") (A') (A') (A') (A") (A')
                 (A') (A') (A') (A') (A') (A") (A') (A') (A") (A')
                 (A') (A") (A') (A") (A') (A') (A") (A") (A') (A')
                 (A") (A') (A') (A") (A') (A") (A') (A') (A') (A")
                 (A') (A') (A') (A") (A') (A') (A') (A") (A") (A')
                 (A") (A") (A') (A") (A") (A") (A') (A") (A') (A")
                 (A') (A") (A") (A') (A') (A") (A") (A") (A') (A")
                 (A') (A') (A') (A') (A') (A') (A') (A') (A") (A')
                 (A') (A') (A') (A') (A') (A') (A') (A') (A') (A')
                 (A') (A')
 Requested convergence on RMS density matrix=1.00D-08 within 128 cycles.
 Requested convergence on MAX density matrix=1.00D-06.
 Requested convergence on             energy=1.00D-06.
 No special actions if energy rises.
 Keep R1 ints in memory in canonical form, NReq=96230227.
 SCF Done:  E(RB3LYP) =  -258.267667673     A.U. after    8 cycles
             Convg  =    0.9465D-08             -V/T =  2.0068
 Calling FoFJK, ICntrl=      2127 FMM=F ISym2X=1 I1Cent= 0 IOpClX= 0 NMat=1 NMatS=1 NMatT=0.
 ***** Axes restored to original set *****
 -------------------------------------------------------------------
 Center     Atomic                   Forces (Hartrees/Bohr)
 Number     Number              X              Y              Z
 -------------------------------------------------------------------
      1        7           0.000484421   -0.000093587    0.000000000
      2        7           0.000019787    0.000145800    0.000000000
      3        7          -0.000055099   -0.000328194    0.000000000
      4        1           0.000013187   -0.000011601    0.000000000
      5        7          -0.000631365    0.000053046    0.000000000
      6        6           0.000131560    0.000276420    0.000000000
      7        1           0.000037509   -0.000041884    0.000000000
 -------------------------------------------------------------------
 Cartesian Forces:  Max     0.000631365 RMS     0.000204059

 GradGradGradGradGradGradGradGradGradGradGradGradGradGradGradGradGradGrad
 Berny optimization.
 Using GEDIIS/GDIIS optimizer.
 Internal  Forces:  Max     0.000461731 RMS     0.000114157
 Search for a local minimum.
 Step number   5 out of a maximum of   36
 All quantities printed in internal units (Hartrees-Bohrs-Radians)
 Mixed Optimization -- En-DIIS/RFO-DIIS
 Swaping is turned off.
 Update second derivatives using D2CorX and points    1    2    3    4    5
 DE= -5.10D-06 DEPred=-4.59D-06 R= 1.11D+00
 SS=  1.41D+00  RLast= 3.96D-03 DXNew= 5.0731D-01 1.1886D-02
 Trust test= 1.11D+00 RLast= 3.96D-03 DXMaxT set to 3.02D-01
 ITU=  1  1  1  1  0
     Eigenvalues ---    0.02506   0.02638   0.02676   0.02835   0.15812
     Eigenvalues ---    0.16026   0.23780   0.33821   0.37778   0.46006
     Eigenvalues ---    0.49463   0.52347   0.55571   0.67931   0.77070
 En-DIIS/RFO-DIIS IScMMF=        0 using points:     5    4    3
 RFO step:  Lambda=-5.96709599D-07.
 DidBck=F Rises=F RFO-DIIS coefs:    1.19669   -0.15568   -0.04101
 Iteration  1 RMS(Cart)=  0.00032556 RMS(Int)=  0.00000008
 Iteration  2 RMS(Cart)=  0.00000009 RMS(Int)=  0.00000003
 ClnCor:  largest displacement from symmetrization is 2.32D-15 for atom     4.
 Variable       Old X    -DE/DX   Delta X   Delta X   Delta X     New X
                                  (DIIS)     (GDIIS)  (Total)
    R1        2.43583   0.00002  -0.00001   0.00016   0.00015   2.43598
    R2        2.57792  -0.00046  -0.00034  -0.00091  -0.00125   2.57667
    R3        2.55087  -0.00011  -0.00018  -0.00012  -0.00030   2.55057
    R4        1.90400  -0.00001  -0.00006  -0.00002  -0.00008   1.90392
    R5        2.54031  -0.00013  -0.00018  -0.00028  -0.00046   2.53985
    R6        2.48141   0.00008  -0.00008   0.00020   0.00013   2.48154
    R7        2.03609   0.00002  -0.00001   0.00008   0.00006   2.03615
    A1        1.94317   0.00001   0.00020  -0.00020   0.00000   1.94317
    A2        1.84996  -0.00006  -0.00016  -0.00028  -0.00044   1.84953
    A3        2.10088  -0.00004  -0.00005  -0.00026  -0.00031   2.10057
    A4        1.89422   0.00009   0.00003   0.00059   0.00062   1.89484
    A5        2.28809  -0.00005   0.00002  -0.00033  -0.00031   2.28778
    A6        1.84283   0.00015  -0.00014   0.00076   0.00062   1.84346
    A7        1.89459  -0.00018   0.00007  -0.00088  -0.00080   1.89379
    A8        2.17515   0.00013   0.00006   0.00073   0.00079   2.17594
    A9        2.21344   0.00005  -0.00013   0.00015   0.00002   2.21346
    D1        0.00000   0.00000   0.00000   0.00000   0.00000   0.00000
    D2        0.00000   0.00000   0.00000   0.00000   0.00000   0.00000
    D3        3.14159   0.00000   0.00000   0.00000   0.00000   3.14159
    D4        0.00000   0.00000   0.00000   0.00000   0.00000   0.00000
    D5        0.00000   0.00000   0.00000   0.00000   0.00000   0.00000
    D6        3.14159   0.00000   0.00000   0.00000   0.00000   3.14159
    D7        3.14159   0.00000   0.00000   0.00000   0.00000   3.14159
    D8        0.00000   0.00000   0.00000   0.00000   0.00000   0.00000
    D9        0.00000   0.00000   0.00000   0.00000   0.00000   0.00000
   D10        3.14159   0.00000   0.00000   0.00000   0.00000   3.14159
         Item               Value     Threshold  Converged?
 Maximum Force            0.000462     0.000450     NO 
 RMS     Force            0.000114     0.000300     YES
 Maximum Displacement     0.000806     0.001800     YES
 RMS     Displacement     0.000326     0.001200     YES
 Predicted change in Energy=-5.429923D-07
 GradGradGradGradGradGradGradGradGradGradGradGradGradGradGradGradGradGrad

                          Input orientation:                          
 ---------------------------------------------------------------------
 Center     Atomic      Atomic             Coordinates (Angstroms)
 Number     Number       Type             X           Y           Z
 ---------------------------------------------------------------------
      1          7           0       -0.729689   -0.928336    0.000000
      2          7           0       -1.122516    0.299418    0.000000
      3          7           0        0.000213    1.048536    0.000000
      4          1           0       -0.058817    2.054318    0.000000
      5          7           0        0.631145   -1.013788    0.000000
      6          6           0        1.063336    0.226227    0.000000
      7          1           0        2.090350    0.552141    0.000000
 ---------------------------------------------------------------------
                    Distance matrix (angstroms):
                    1          2          3          4          5
     1  N    0.000000
     2  N    1.289067   0.000000
     3  N    2.107316   1.349703   0.000000
     4  H    3.057171   2.052104   1.007513   0.000000
     5  N    1.363514   2.190853   2.156677   3.144730   0.000000
     6  C    2.132593   2.187077   1.344033   2.145028   1.313174
     7  H    3.185032   3.222790   2.148274   2.622109   2.140423
                    6          7
     6  C    0.000000
     7  H    1.077486   0.000000
 Stoichiometry    CH2N4
 Framework group  CS[SG(CH2N4)]
 Deg. of freedom    11
 Full point group                 CS      NOp   2
 Largest Abelian subgroup         CS      NOp   2
 Largest concise Abelian subgroup C1      NOp   1
                         Standard orientation:                         
 ---------------------------------------------------------------------
 Center     Atomic      Atomic             Coordinates (Angstroms)
 Number     Number       Type             X           Y           Z
 ---------------------------------------------------------------------
      1          7           0       -0.722496   -0.925620    0.000000
      2          7           0       -1.119916    0.300655    0.000000
      3          7           0        0.000000    1.053971    0.000000
      4          1           0       -0.062794    2.059525    0.000000
      5          7           0        0.638648   -1.005977    0.000000
      6          6           0        1.066194    0.235646    0.000000
      7          1           0        2.091981    0.565402    0.000000
 ---------------------------------------------------------------------
 Rotational constants (GHZ):     10.5367910     10.3615764      5.2242246
 Standard basis: GTBas3 (6D, 7F)
 There are   103 symmetry adapted basis functions of A'  symmetry.
 There are    47 symmetry adapted basis functions of A"  symmetry.
 Integral buffers will be    131072 words long.
 Raffenetti 2 integral format.
 Two-electron integral symmetry is turned on.
   150 basis functions,   234 primitive gaussians,   165 cartesian basis functions
    18 alpha electrons       18 beta electrons
       nuclear repulsion energy       166.8189538152 Hartrees.
 NAtoms=    7 NActive=    7 NUniq=    7 SFac= 1.00D+00 NAtFMM=   50 NAOKFM=F Big=F
 One-electron integrals computed using PRISM.
 NBasis=   150 RedAO= T  NBF=   103    47
 NBsUse=   150 1.00D-06 NBFU=   103    47
 Initial guess read from the read-write file.
 B after Tr=     0.000000    0.000000    0.000000
         Rot=    1.000000    0.000000    0.000000    0.000000 Ang=   0.00 deg.
 Initial guess orbital symmetries:
       Occupied  (A') (A') (A') (A') (A') (A') (A') (A') (A') (A')
                 (A') (A') (A") (A') (A") (A") (A') (A')
       Virtual   (A") (A") (A') (A') (A') (A') (A') (A') (A') (A')
                 (A") (A') (A') (A') (A') (A') (A") (A') (A") (A")
                 (A') (A') (A") (A') (A") (A') (A') (A") (A") (A')
                 (A') (A") (A") (A') (A') (A') (A') (A") (A") (A')
                 (A') (A") (A') (A') (A") (A') (A') (A') (A") (A')
                 (A') (A') (A') (A') (A') (A") (A') (A') (A") (A')
                 (A') (A") (A') (A") (A') (A') (A") (A") (A') (A')
                 (A") (A') (A') (A") (A') (A") (A') (A') (A') (A")
                 (A') (A') (A') (A") (A') (A') (A') (A") (A") (A')
                 (A") (A") (A') (A") (A") (A") (A') (A") (A') (A")
                 (A') (A") (A") (A') (A') (A") (A") (A") (A') (A")
                 (A') (A') (A') (A') (A') (A') (A') (A') (A") (A')
                 (A') (A') (A') (A') (A') (A') (A') (A') (A') (A')
                 (A') (A')
 Requested convergence on RMS density matrix=1.00D-08 within 128 cycles.
 Requested convergence on MAX density matrix=1.00D-06.
 Requested convergence on             energy=1.00D-06.
 No special actions if energy rises.
 Keep R1 ints in memory in canonical form, NReq=96230227.
 SCF Done:  E(RB3LYP) =  -258.267668288     A.U. after    7 cycles
             Convg  =    0.7819D-08             -V/T =  2.0068
 Calling FoFJK, ICntrl=      2127 FMM=F ISym2X=1 I1Cent= 0 IOpClX= 0 NMat=1 NMatS=1 NMatT=0.
 ***** Axes restored to original set *****
 -------------------------------------------------------------------
 Center     Atomic                   Forces (Hartrees/Bohr)
 Number     Number              X              Y              Z
 -------------------------------------------------------------------
      1        7           0.000225841   -0.000144657    0.000000000
      2        7           0.000048172    0.000138510    0.000000000
      3        7          -0.000103496    0.000099350    0.000000000
      4        1           0.000009265    0.000037349    0.000000000
      5        7          -0.000225635   -0.000214387    0.000000000
      6        6           0.000059388    0.000106167    0.000000000
      7        1          -0.000013534   -0.000022331    0.000000000
 -------------------------------------------------------------------
 Cartesian Forces:  Max     0.000225841 RMS     0.000104164

 GradGradGradGradGradGradGradGradGradGradGradGradGradGradGradGradGradGrad
 Berny optimization.
 Using GEDIIS/GDIIS optimizer.
 Internal  Forces:  Max     0.000197524 RMS     0.000071561
 Search for a local minimum.
 Step number   6 out of a maximum of   36
 All quantities printed in internal units (Hartrees-Bohrs-Radians)
 Mixed Optimization -- En-DIIS/RFO-DIIS
 Swaping is turned off.
 Update second derivatives using D2CorX and points    1    2    3    4    5
                                                      6
 DE= -6.15D-07 DEPred=-5.43D-07 R= 1.13D+00
 Trust test= 1.13D+00 RLast= 2.08D-03 DXMaxT set to 3.02D-01
 ITU=  0  1  1  1  1  0
     Eigenvalues ---    0.02506   0.02638   0.02676   0.02835   0.14897
     Eigenvalues ---    0.16030   0.22202   0.33706   0.37890   0.41272
     Eigenvalues ---    0.49300   0.52044   0.55048   0.72689   0.80605
 En-DIIS/RFO-DIIS IScMMF=        0 using points:     6    5    4    3
 RFO step:  Lambda=-1.92229007D-07.
 DidBck=F Rises=F RFO-DIIS coefs:    1.02835    0.14037   -0.09913   -0.06959
 Iteration  1 RMS(Cart)=  0.00013884 RMS(Int)=  0.00000005
 Iteration  2 RMS(Cart)=  0.00000001 RMS(Int)=  0.00000005
 ClnCor:  largest displacement from symmetrization is 1.64D-15 for atom     6.
 Variable       Old X    -DE/DX   Delta X   Delta X   Delta X     New X
                                  (DIIS)     (GDIIS)  (Total)
    R1        2.43598   0.00017   0.00015   0.00020   0.00035   2.43633
    R2        2.57667  -0.00019  -0.00034  -0.00036  -0.00069   2.57597
    R3        2.55057  -0.00006  -0.00011  -0.00004  -0.00015   2.55042
    R4        1.90392   0.00004  -0.00005   0.00009   0.00004   1.90396
    R5        2.53985   0.00008  -0.00029   0.00024  -0.00005   2.53981
    R6        2.48154   0.00020  -0.00001   0.00033   0.00032   2.48186
    R7        2.03615  -0.00002  -0.00002  -0.00003  -0.00005   2.03611
    A1        1.94317   0.00003  -0.00002   0.00013   0.00012   1.94329
    A2        1.84953   0.00006  -0.00002  -0.00002  -0.00004   1.84949
    A3        2.10057   0.00005   0.00000   0.00003   0.00003   2.10060
    A4        1.89484  -0.00009  -0.00004  -0.00003  -0.00007   1.89477
    A5        2.28778   0.00004   0.00003   0.00000   0.00004   2.28782
    A6        1.84346  -0.00004  -0.00002   0.00000  -0.00002   1.84344
    A7        1.89379   0.00004   0.00010  -0.00008   0.00002   1.89380
    A8        2.17594  -0.00001   0.00002   0.00013   0.00015   2.17610
    A9        2.21346  -0.00003  -0.00012  -0.00005  -0.00017   2.21329
    D1        0.00000   0.00000   0.00000   0.00000   0.00000   0.00000
    D2        0.00000   0.00000   0.00000   0.00000   0.00000   0.00000
    D3        3.14159   0.00000   0.00000   0.00000   0.00000   3.14159
    D4        0.00000   0.00000   0.00000   0.00000   0.00000   0.00000
    D5        0.00000   0.00000   0.00000   0.00000   0.00000   0.00000
    D6        3.14159   0.00000   0.00000   0.00000   0.00000   3.14159
    D7        3.14159   0.00000   0.00000   0.00000   0.00000   3.14159
    D8        0.00000   0.00000   0.00000   0.00000   0.00000   0.00000
    D9        0.00000   0.00000   0.00000   0.00000   0.00000   0.00000
   D10        3.14159   0.00000   0.00000   0.00000   0.00000   3.14159
         Item               Value     Threshold  Converged?
 Maximum Force            0.000198     0.000450     YES
 RMS     Force            0.000072     0.000300     YES
 Maximum Displacement     0.000455     0.001800     YES
 RMS     Displacement     0.000139     0.001200     YES
 Predicted change in Energy=-1.495833D-07
 Optimization completed.
    -- Stationary point found.
                           ----------------------------
                           !   Optimized Parameters   !
                           ! (Angstroms and Degrees)  !
 --------------------------                            --------------------------
 ! Name  Definition              Value          Derivative Info.                !
 --------------------------------------------------------------------------------
 ! R1    R(1,2)                  1.2891         -DE/DX =    0.0002              !
 ! R2    R(1,5)                  1.3635         -DE/DX =   -0.0002              !
 ! R3    R(2,3)                  1.3497         -DE/DX =   -0.0001              !
 ! R4    R(3,4)                  1.0075         -DE/DX =    0.0                 !
 ! R5    R(3,6)                  1.344          -DE/DX =    0.0001              !
 ! R6    R(5,6)                  1.3132         -DE/DX =    0.0002              !
 ! R7    R(6,7)                  1.0775         -DE/DX =    0.0                 !
 ! A1    A(2,1,5)              111.3355         -DE/DX =    0.0                 !
 ! A2    A(1,2,3)              105.97           -DE/DX =    0.0001              !
 ! A3    A(2,3,4)              120.3536         -DE/DX =    0.0                 !
 ! A4    A(2,3,6)              108.5662         -DE/DX =   -0.0001              !
 ! A5    A(4,3,6)              131.0802         -DE/DX =    0.0                 !
 ! A6    A(1,5,6)              105.6223         -DE/DX =    0.0                 !
 ! A7    A(3,6,5)              108.506          -DE/DX =    0.0                 !
 ! A8    A(3,6,7)              124.6722         -DE/DX =    0.0                 !
 ! A9    A(5,6,7)              126.8217         -DE/DX =    0.0                 !
 ! D1    D(5,1,2,3)              0.0            -DE/DX =    0.0                 !
 ! D2    D(2,1,5,6)              0.0            -DE/DX =    0.0                 !
 ! D3    D(1,2,3,4)            180.0            -DE/DX =    0.0                 !
 ! D4    D(1,2,3,6)              0.0            -DE/DX =    0.0                 !
 ! D5    D(2,3,6,5)              0.0            -DE/DX =    0.0                 !
 ! D6    D(2,3,6,7)            180.0            -DE/DX =    0.0                 !
 ! D7    D(4,3,6,5)            180.0            -DE/DX =    0.0                 !
 ! D8    D(4,3,6,7)              0.0            -DE/DX =    0.0                 !
 ! D9    D(1,5,6,3)              0.0            -DE/DX =    0.0                 !
 ! D10   D(1,5,6,7)            180.0            -DE/DX =    0.0                 !
 --------------------------------------------------------------------------------
 GradGradGradGradGradGradGradGradGradGradGradGradGradGradGradGradGradGrad

                          Input orientation:                          
 ---------------------------------------------------------------------
 Center     Atomic      Atomic             Coordinates (Angstroms)
 Number     Number       Type             X           Y           Z
 ---------------------------------------------------------------------
      1          7           0       -0.729689   -0.928336    0.000000
      2          7           0       -1.122516    0.299418    0.000000
      3          7           0        0.000213    1.048536    0.000000
      4          1           0       -0.058817    2.054318    0.000000
      5          7           0        0.631145   -1.013788    0.000000
      6          6           0        1.063336    0.226227    0.000000
      7          1           0        2.090350    0.552141    0.000000
 ---------------------------------------------------------------------
                    Distance matrix (angstroms):
                    1          2          3          4          5
     1  N    0.000000
     2  N    1.289067   0.000000
     3  N    2.107316   1.349703   0.000000
     4  H    3.057171   2.052104   1.007513   0.000000
     5  N    1.363514   2.190853   2.156677   3.144730   0.000000
     6  C    2.132593   2.187077   1.344033   2.145028   1.313174
     7  H    3.185032   3.222790   2.148274   2.622109   2.140423
                    6          7
     6  C    0.000000
     7  H    1.077486   0.000000
 Stoichiometry    CH2N4
 Framework group  CS[SG(CH2N4)]
 Deg. of freedom    11
 Full point group                 CS      NOp   2
 Largest Abelian subgroup         CS      NOp   2
 Largest concise Abelian subgroup C1      NOp   1
                         Standard orientation:                         
 ---------------------------------------------------------------------
 Center     Atomic      Atomic             Coordinates (Angstroms)
 Number     Number       Type             X           Y           Z
 ---------------------------------------------------------------------
      1          7           0       -0.722496   -0.925620    0.000000
      2          7           0       -1.119916    0.300655    0.000000
      3          7           0        0.000000    1.053971    0.000000
      4          1           0       -0.062794    2.059525    0.000000
      5          7           0        0.638648   -1.005977    0.000000
      6          6           0        1.066194    0.235646    0.000000
      7          1           0        2.091981    0.565402    0.000000
 ---------------------------------------------------------------------
 Rotational constants (GHZ):     10.5367910     10.3615764      5.2242246

 **********************************************************************

            Population analysis using the SCF density.

 **********************************************************************

 Orbital symmetries:
       Occupied  (A') (A') (A') (A') (A') (A') (A') (A') (A') (A')
                 (A') (A') (A") (A') (A") (A") (A') (A')
       Virtual   (A") (A") (A') (A') (A') (A') (A') (A') (A') (A')
                 (A") (A') (A') (A') (A') (A') (A") (A') (A") (A")
                 (A') (A') (A") (A') (A") (A') (A') (A") (A") (A')
                 (A') (A") (A") (A') (A') (A') (A') (A") (A") (A')
                 (A') (A") (A') (A') (A") (A') (A') (A') (A") (A')
                 (A') (A') (A') (A') (A') (A") (A') (A') (A") (A')
                 (A') (A") (A') (A") (A') (A') (A") (A") (A') (A')
                 (A") (A') (A') (A") (A') (A") (A') (A') (A') (A")
                 (A') (A') (A') (A") (A') (A') (A') (A") (A") (A')
[...]
                 (A") (A") (A") (A") (A") (A") (A") (A") (A") (A")
                 (A") (A") (A") (A") (A")
 Requested convergence on RMS density matrix=1.00D-08 within 128 cycles.
 Requested convergence on MAX density matrix=1.00D-06.
 Requested convergence on             energy=1.00D-06.
 No special actions if energy rises.
 SCF Done:  E(RHF) =  -256.865477976     A.U. after    8 cycles
             Convg  =    0.8318D-08             -V/T =  2.0019

 **********************************************************************

            Population analysis using the SCF density.

 **********************************************************************

 Orbital symmetries:
       Occupied  (A') (A') (A') (A') (A') (A') (A') (A') (A') (A')
                 (A') (A") (A') (A') (A') (A') (A") (A")
       Virtual   (A') (A') (A") (A') (A') (A') (A') (A") (A") (A")
                 (A') (A') (A') (A") (A") (A') (A') (A') (A") (A')
                 (A') (A') (A') (A') (A") (A') (A') (A') (A') (A')
                 (A") (A') (A") (A') (A') (A') (A") (A') (A') (A')
                 (A") (A") (A') (A') (A') (A") (A') (A') (A') (A')
                 (A') (A") (A') (A') (A") (A') (A') (A") (A') (A")
                 (A') (A') (A') (A') (A") (A") (A') (A') (A') (A")
                 (A") (A') (A') (A') (A") (A') (A') (A") (A') (A")
                 (A') (A") (A') (A') (A") (A') (A") (A') (A") (A')
                 (A') (A') (A') (A") (A") (A') (A') (A') (A") (A')
                 (A') (A") (A') (A') (A') (A") (A') (A") (A') (A')
                 (A") (A') (A") (A') (A") (A') (A") (A') (A") (A')
                 (A') (A") (A') (A') (A") (A') (A") (A") (A') (A')
                 (A") (A") (A') (A') (A') (A') (A') (A") (A") (A')
                 (A') (A") (A') (A") (A') (A") (A') (A') (A") (A')
                 (A') (A') (A") (A') (A') (A') (A") (A') (A") (A')
                 (A") (A') (A") (A') (A") (A') (A') (A') (A") (A')
                 (A") (A') (A') (A") (A') (A") (A') (A') (A') (A")
                 (A') (A') (A') (A") (A') (A") (A") (A') (A') (A")
                 (A') (A") (A') (A') (A") (A') (A') (A') (A") (A")
                 (A') (A") (A') (A') (A") (A') (A') (A') (A") (A')
                 (A") (A') (A") (A") (A') (A") (A') (A') (A') (A")
                 (A') (A') (A") (A') (A") (A") (A') (A') (A") (A')
                 (A") (A') (A') (A') (A") (A') (A") (A') (A') (A')
                 (A") (A") (A') (A") (A') (A") (A') (A") (A') (A')
                 (A') (A") (A') (A") (A') (A") (A') (A") (A') (A')
                 (A") (A") (A') (A') (A") (A') (A') (A") (A') (A")
                 (A') (A") (A') (A") (A') (A') (A') (A") (A") (A')
                 (A") (A') (A') (A') (A') (A") (A') (A") (A') (A")
                 (A') (A') (A') (A') (A') (A") (A") (A') (A") (A")
                 (A') (A') (A') (A") (A") (A') (A") (A') (A') (A")
                 (A') (A") (A") (A') (A') (A') (A') (A") (A') (A')
                 (A") (A') (A') (A') (A") (A') (A") (A") (A') (A')
                 (A") (A') (A') (A') (A') (A') (A") (A') (A') (A")
                 (A") (A') (A') (A') (A") (A') (A') (A") (A') (A")
                 (A') (A") (A') (A") (A') (A") (A") (A') (A") (A')
                 (A") (A') (A') (A') (A") (A') (A") (A") (A') (A')
                 (A") (A') (A") (A") (A') (A') (A') (A") (A") (A')
                 (A") (A') (A") (A') (A") (A') (A") (A') (A") (A')
                 (A") (A') (A") (A') (A") (A') (A') (A') (A') (A')
                 (A") (A") (A') (A') (A') (A') (A") (A") (A') (A')
                 (A') (A") (A') (A") (A') (A') (A") (A') (A") (A')
                 (A") (A") (A') (A') (A") (A') (A") (A') (A") (A")
                 (A') (A") (A') (A") (A") (A') (A') (A') (A') (A')
                 (A') (A") (A") (A') (A") (A") (A') (A") (A") (A')
                 (A") (A") (A') (A") (A') (A') (A') (A') (A') (A')
                 (A') (A') (A") (A') (A") (A') (A') (A") (A') (A')
                 (A") (A') (A') (A") (A") (A') (A") (A') (A") (A')
                 (A') (A") (A") (A') (A") (A') (A") (A') (A") (A')
                 (A') (A') (A') (A') (A') (A') (A') (A') (A') (A')
                 (A') (A') (A') (A') (A')
 The electronic state is 1-A'.
 Alpha  occ. eigenvalues --  -15.68124 -15.66407 -15.64831 -15.60411 -11.33863
 Alpha  occ. eigenvalues --   -1.49288  -1.25525  -1.19551  -0.90833  -0.88947
 Alpha  occ. eigenvalues --   -0.80014  -0.67799  -0.67767  -0.57149  -0.48102
 Alpha  occ. eigenvalues --   -0.47517  -0.45729  -0.42073
 Alpha virt. eigenvalues --    0.02249   0.04143   0.04993   0.05962   0.08405
 Alpha virt. eigenvalues --    0.08844   0.10606   0.10715   0.11794   0.12044
 Alpha virt. eigenvalues --    0.12963   0.13468   0.14648   0.14893   0.15926
 Alpha virt. eigenvalues --    0.16059   0.17187   0.18250   0.18310   0.19684
 Alpha virt. eigenvalues --    0.24364   0.24889   0.26051   0.27994   0.30794
 Alpha virt. eigenvalues --    0.32172   0.32379   0.35534   0.39107   0.40198
 Alpha virt. eigenvalues --    0.41742   0.42796   0.44374   0.44708   0.46904
 Alpha virt. eigenvalues --    0.48474   0.49120   0.49226   0.51197   0.51994
 Alpha virt. eigenvalues --    0.53117   0.54549   0.54595   0.56181   0.59006
 Alpha virt. eigenvalues --    0.64995   0.65262   0.68695   0.71134   0.71307
 Alpha virt. eigenvalues --    0.73328   0.74897   0.75593   0.78059   0.82519
 Alpha virt. eigenvalues --    0.83619   0.86157   0.89474   0.89709   0.94520
 Alpha virt. eigenvalues --    0.97095   1.00215   1.00774   1.02929   1.05159
 Alpha virt. eigenvalues --    1.05738   1.06113   1.10229   1.13033   1.13116
 Alpha virt. eigenvalues --    1.17311   1.17842   1.19738   1.23065   1.23138
 Alpha virt. eigenvalues --    1.24406   1.26128   1.26485   1.32067   1.32727
 Alpha virt. eigenvalues --    1.34975   1.35999   1.37745   1.39953   1.39960
 Alpha virt. eigenvalues --    1.43815   1.45836   1.49998   1.54230   1.54334
 Alpha virt. eigenvalues --    1.57357   1.61289   1.63936   1.64207   1.66015
 Alpha virt. eigenvalues --    1.67612   1.68656   1.71586   1.73296   1.75241
 Alpha virt. eigenvalues --    1.80680   1.81277   1.86855   1.89508   1.94701
 Alpha virt. eigenvalues --    1.96541   2.01208   2.04985   2.05267   2.10985
 Alpha virt. eigenvalues --    2.12829   2.17693   2.19759   2.20035   2.23247
 Alpha virt. eigenvalues --    2.23741   2.27390   2.31896   2.32028   2.37610
 Alpha virt. eigenvalues --    2.40486   2.41768   2.42927   2.43480   2.45232
 Alpha virt. eigenvalues --    2.49060   2.49261   2.51426   2.52018   2.56194
 Alpha virt. eigenvalues --    2.57456   2.59939   2.60319   2.63836   2.67670
 Alpha virt. eigenvalues --    2.68588   2.70267   2.72441   2.73748   2.75130
 Alpha virt. eigenvalues --    2.76342   2.79438   2.82748   2.86446   2.87063
 Alpha virt. eigenvalues --    2.89052   2.90811   2.92850   2.97786   2.98110
 Alpha virt. eigenvalues --    3.04582   3.08625   3.11006   3.11795   3.15887
 Alpha virt. eigenvalues --    3.19502   3.22743   3.23158   3.28157   3.31061
 Alpha virt. eigenvalues --    3.32151   3.37647   3.40332   3.43124   3.47334
 Alpha virt. eigenvalues --    3.49306   3.50801   3.54351   3.59141   3.60040
 Alpha virt. eigenvalues --    3.60241   3.63386   3.66654   3.71496   3.73744
 Alpha virt. eigenvalues --    3.76861   3.79654   3.81720   3.84929   3.86646
 Alpha virt. eigenvalues --    3.91625   3.96467   3.99739   4.01539   4.02190
 Alpha virt. eigenvalues --    4.05584   4.11171   4.12259   4.19153   4.19211
 Alpha virt. eigenvalues --    4.25790   4.26177   4.29911   4.31899   4.36812
 Alpha virt. eigenvalues --    4.37476   4.44716   4.51930   4.52549   4.59264
 Alpha virt. eigenvalues --    4.62551   4.70686   4.71929   4.80394   4.85540
 Alpha virt. eigenvalues --    4.89472   4.97076   4.99034   5.03880   5.04104
 Alpha virt. eigenvalues --    5.06059   5.13389   5.15498   5.17659   5.19486
 Alpha virt. eigenvalues --    5.19695   5.21819   5.25780   5.30562   5.34876
 Alpha virt. eigenvalues --    5.37178   5.40915   5.41689   5.41794   5.46112
 Alpha virt. eigenvalues --    5.54467   5.55101   5.61175   5.68903   5.72339
 Alpha virt. eigenvalues --    5.73545   5.76846   5.80183   5.80970   5.86444
 Alpha virt. eigenvalues --    5.86720   5.88184   5.92049   5.92719   5.96083
 Alpha virt. eigenvalues --    5.98445   6.02472   6.02972   6.03120   6.05563
 Alpha virt. eigenvalues --    6.11427   6.11813   6.13913   6.18817   6.24376
 Alpha virt. eigenvalues --    6.29166   6.30457   6.31639   6.31858   6.35016
 Alpha virt. eigenvalues --    6.38593   6.42238   6.47522   6.50360   6.55463
 Alpha virt. eigenvalues --    6.57439   6.61351   6.64727   6.65813   6.68175
 Alpha virt. eigenvalues --    6.72805   6.81203   6.85623   6.90095   6.92986
 Alpha virt. eigenvalues --    6.94391   6.99805   7.02982   7.03055   7.09159
 Alpha virt. eigenvalues --    7.21047   7.29087   7.34280   7.37374   7.44712
 Alpha virt. eigenvalues --    7.47484   7.50427   7.57372   7.73209   7.82107
 Alpha virt. eigenvalues --    7.87015   7.91918   7.92668   8.03682   8.10446
 Alpha virt. eigenvalues --    8.12342   8.15785   8.22867   8.34578   8.38652
 Alpha virt. eigenvalues --    8.39377   8.42054   8.42813   8.46952   8.51454
 Alpha virt. eigenvalues --    8.62044   8.65115   8.66584   8.66594   8.71649
 Alpha virt. eigenvalues --    8.72064   8.78931   8.86633   8.90292   8.91510
 Alpha virt. eigenvalues --    8.92546   9.00285   9.04554   9.04655   9.15441
 Alpha virt. eigenvalues --    9.17822   9.26291   9.28978   9.39596   9.47105
 Alpha virt. eigenvalues --    9.60447   9.65890   9.70750   9.76624   9.83736
 Alpha virt. eigenvalues --    9.89209   9.89502  10.00591  10.01098  10.03051
 Alpha virt. eigenvalues --   10.05475  10.10379  10.15351  10.20114  10.28905
 Alpha virt. eigenvalues --   10.35555  10.38078  10.41829  10.46926  10.47454
 Alpha virt. eigenvalues --   10.57493  10.58682  10.63515  10.71349  10.72391
 Alpha virt. eigenvalues --   10.72429  10.80947  10.82999  10.85150  10.87930
 Alpha virt. eigenvalues --   10.99584  11.00560  11.08860  11.08878  11.12710
 Alpha virt. eigenvalues --   11.15577  11.22680  11.27547  11.38078  11.44191
 Alpha virt. eigenvalues --   11.55471  11.60693  11.76511  11.78165  11.79824
 Alpha virt. eigenvalues --   11.89886  11.92265  11.99897  12.06427  12.14664
 Alpha virt. eigenvalues --   12.19372  12.29057  12.31074  12.34767  12.37602
 Alpha virt. eigenvalues --   12.47643  12.52659  12.52846  12.62414  12.62435
 Alpha virt. eigenvalues --   12.71733  12.77551  12.80947  12.90460  12.99005
 Alpha virt. eigenvalues --   12.99909  13.01483  13.02502  13.10436  13.13662
 Alpha virt. eigenvalues --   13.20228  13.20783  13.28633  13.28736  13.38515
 Alpha virt. eigenvalues --   13.44421  13.45978  13.54244  13.57491  13.65816
 Alpha virt. eigenvalues --   13.76207  13.87628  13.88567  13.99237  14.11300
 Alpha virt. eigenvalues --   14.17150  14.21708  14.27748  14.28205  14.30228
 Alpha virt. eigenvalues --   14.38886  14.41391  14.42855  14.48585  14.51638
 Alpha virt. eigenvalues --   14.53651  14.55835  14.58863  14.59786  14.64126
 Alpha virt. eigenvalues --   14.65181  14.66347  14.67736  14.69958  14.70846
 Alpha virt. eigenvalues --   14.73383  14.76641  14.78615  14.81335  14.81913
 Alpha virt. eigenvalues --   14.85608  14.87625  14.89628  14.92483  14.95972
 Alpha virt. eigenvalues --   14.96632  14.98242  15.00674  15.06242  15.15082
 Alpha virt. eigenvalues --   15.18377  15.18848  15.35159  15.35738  15.36501
 Alpha virt. eigenvalues --   15.47000  15.48922  15.54510  15.56007  15.60515
 Alpha virt. eigenvalues --   15.63839  15.69762  15.75526  15.75827  15.77166
 Alpha virt. eigenvalues --   15.93261  16.03960  16.17141  16.26502  16.42792
 Alpha virt. eigenvalues --   16.60420  16.65697  16.68170  16.88073  16.92987
 Alpha virt. eigenvalues --   17.05019  17.20130  17.52641  17.58778  17.59698
 Alpha virt. eigenvalues --   17.67285  17.69338  17.91222  17.95541  18.04417
 Alpha virt. eigenvalues --   18.11328  18.21840  18.23720  18.31887  18.42730
 Alpha virt. eigenvalues --   18.48068  18.52854  18.60009  18.65795  18.67951
 Alpha virt. eigenvalues --   18.82310  18.83138  18.88372  19.05358  19.16276
 Alpha virt. eigenvalues --   19.31461  19.54151  19.63019  19.78546  19.93951
 Alpha virt. eigenvalues --   20.26637  20.41838  20.54187  20.88017  20.97663
 Alpha virt. eigenvalues --   40.51250  49.67175  51.44042  51.84927  52.86674
          Condensed to atoms (all electrons):
              1          2          3          4          5          6
     1  N    6.691986   0.306436  -0.066893   0.002539   0.177009  -0.014718
     2  N    0.306436   6.724887   0.195252  -0.024659  -0.009624  -0.090139
     3  N   -0.066893   0.195252   6.437000   0.365484  -0.091177   0.438301
     4  H    0.002539  -0.024659   0.365484   0.290710   0.001021  -0.024959
     5  N    0.177009  -0.009624  -0.091177   0.001021   6.771757   0.470295
     6  C   -0.014718  -0.090139   0.438301  -0.024959   0.470295   4.693336
     7  H    0.002033   0.004045  -0.031824   0.000727  -0.019402   0.413304
              7
     1  N    0.002033
     2  N    0.004045
     3  N   -0.031824
     4  H    0.000727
     5  N   -0.019402
     6  C    0.413304
     7  H    0.384223
 Mulliken atomic charges:
              1
     1  N   -0.098392
     2  N   -0.106198
     3  N   -0.246143
     4  H    0.389137
     5  N   -0.299879
     6  C    0.114580
     7  H    0.246895
 Sum of Mulliken atomic charges =   0.00000
 Mulliken charges with hydrogens summed into heavy atoms:
              1
     1  N   -0.098392
     2  N   -0.106198
     3  N    0.142994
     5  N   -0.299879
     6  C    0.361475
 Sum of Mulliken charges with hydrogens summed into heavy atoms =   0.00000
 Electronic spatial extent (au):  <R**2>=            251.7655
 Charge=              0.0000 electrons
 Dipole moment (field-independent basis, Debye):
    X=              2.6408    Y=              4.8952    Z=              0.0000  Tot=              5.5621
 Quadrupole moment (field-independent basis, Debye-Ang):
   XX=            -28.9225   YY=            -26.7028   ZZ=            -29.0426
   XY=              2.1078   XZ=              0.0000   YZ=              0.0000
 Traceless Quadrupole moment (field-independent basis, Debye-Ang):
   XX=             -0.6999   YY=              1.5198   ZZ=             -0.8200
   XY=              2.1078   XZ=              0.0000   YZ=              0.0000
 Octapole moment (field-independent basis, Debye-Ang**2):
  XXX=             13.0502  YYY=             23.4133  ZZZ=              0.0000  XYY=             -0.8205
  XXY=              5.2979  XXZ=              0.0000  XZZ=             -0.5192  YZZ=              0.7763
  YYZ=              0.0000  XYZ=              0.0000
 Hexadecapole moment (field-independent basis, Debye-Ang**3):
 XXXX=           -144.9144 YYYY=           -122.9452 ZZZZ=            -28.1442 XXXY=              7.9721
 XXXZ=              0.0000 YYYX=              0.1145 YYYZ=              0.0000 ZZZX=              0.0000
 ZZZY=              0.0000 XXYY=            -55.2193 XXZZ=            -31.7955 YYZZ=            -30.3352
 XXYZ=              0.0000 YYXZ=              0.0000 ZZXY=              0.1809
 N-N= 1.668189538152D+02 E-N=-9.352607958423D+02  KE= 2.563705172093D+02
 Symmetry A'   KE= 2.474075720964D+02
 Symmetry A"   KE= 8.962945112961D+00
 1\1\GINC-N237\SP\RHF\GFHFB2\C1H2N4\RDJ3\08-Dec-2011\0\\#N Geom=AllChec
 k Guess=TCheck SCRF=Check HF/GFHFB2 SCF=Tight\\1htz 1H-Tetrazole casno
 =288948 state=1 config=1 method=74 basis=0\\0,1\N,0,-0.7296885596,-0.9
 283362904,0.\N,0,-1.1225157626,0.2994177018,0.\N,0,0.0002125469,1.0485
 360877,0.\H,0,-0.0588166983,2.05431826,0.\N,0,0.6311450787,-1.01378809
 16,0.\C,0,1.0633364419,0.2262266372,0.\H,0,2.090349953,0.5521406953,0.
 \\Version=EM64L-G09RevB.01\State=1-A'\HF=-256.865478\RMSD=8.318e-09\Di
 pole=1.0461714,1.9220152,0.\Quadrupole=-0.5085761,1.1182027,-0.6096266
 ,1.5732608,0.,0.\PG=CS [SG(C1H2N4)]\\@


 THE FIRST AND LAST THING REQUIRED OF GENIUS IS THE LOVE OF TRUTH.

                          -- GOETHE

 Temperature=              298.150000 Pressure=                      1.000000
 E(ZPE)=                     0.046303 E(Thermal)=                    0.049797
 E(CCSD(T))=              -257.576595 E(Empiric)=                   -0.090311
 DE(Plus)=                  -0.017356 DE(2DF)=                      -0.167998
 E(Delta-G3XP)=             -0.321906 DE(HF)=                       -0.024807
 G4(0 K)=                 -258.152669 G4 Energy=                  -258.149176
 G4 Enthalpy=             -258.148231 G4 Free Energy=             -258.178770
 1\1\GINC-N237\Mixed\G4\G4\C1H2N4\RDJ3\08-Dec-2011\0\\#G4\\1htz 1H-Tetr
 azole casno=288948 state=1 config=1 method=74 basis=0\\0,1\N,0,-0.7296
 885596,-0.9283362904,0.\N,0,-1.1225157626,0.2994177018,0.\N,0,0.000212
 5469,1.0485360877,0.\H,0,-0.0588166983,2.05431826,0.\N,0,0.6311450787,
 -1.0137880916,0.\C,0,1.0633364419,0.2262266372,0.\H,0,2.090349953,0.55
 21406953,0.\\Version=EM64L-G09RevB.01\State=1-A'\MP2/GTBas1=-257.53469
 63\MP4/GTBas1=-257.5833827\CCSD(T)/G3Bas1=-257.5765952\MP2/GTBas2=-257
 .5513828\MP4/GTBas2=-257.6007383\MP2/GTBas3=-257.69369\MP4/GTBas3=-257
 .7513803\HF/GTLargeXP=-256.8415982\MP2/GTLargeXP=-258.0322824\HF/GFHFB
 1=-256.861672\HF/GFHFB2=-256.865478\G4=-258.1526693\FreqCoord=-1.37891
 15399,-1.7543013481,0.,-2.1212473711,0.5658174557,0.,0.0004016554,1.98
 14460461,0.,-0.1111474519,3.8820989012,0.,1.1926913489,-1.9157818498,0
 .,2.0094146624,0.4275063883,0.,3.950188933,1.043394701,0.\PG=CS [SG(C1
 H2N4)]\NImag=0\\0.42613745,0.05763032,0.59757321,0.,0.,0.12552991,-0.1
 3212851,0.03998833,0.,0.53071511,0.09994793,-0.32533099,0.,-0.09661000
 ,0.50037968,0.,0.,-0.09789059,0.,0.,0.11596939,-0.02433250,-0.07892644
 ,0.,-0.21264119,-0.05272970,0.,0.55799556,-0.00143340,-0.15319924,0.,-
 0.01737880,-0.11222875,0.,-0.09070731,1.00866965,0.,0.,0.02708399,0.,0
 .,-0.06934124,0.,0.,0.09265798,-0.00911165,-0.00991070,0.,0.01504323,-
 0.02890535,0.,-0.07243754,0.03441574,0.,0.05942750,-0.00104062,-0.0002
 2828,0.,0.00540103,-0.01070447,0.,0.02843240,-0.46075971,0.,-0.0249465
 5,0.47474348,0.,0.,0.00783508,0.,0.,-0.01201027,0.,0.,-0.00665575,0.,0
 .,0.01355584,-0.18304980,0.01058294,0.,-0.08513237,0.12006062,0.,0.018
 96127,-0.03066934,0.,-0.00628091,-0.00109604,0.,0.39231314,-0.02875683
 ,-0.10039338,0.,0.01465379,-0.04101079,0.,0.08393527,-0.10613749,0.,0.
 00853558,-0.00006346,0.,0.00039626,0.61126467,0.,0.,-0.09087128,0.,0.,
 0.03598177,0.,0.,0.02174912,0.,0.,0.00732699,0.,0.,0.11056080,-0.07821
 406,-0.02076526,0.,-0.11549713,-0.04267035,0.,-0.25407345,0.11591612,0
 .,0.01396757,-0.00708630,0.,-0.13594452,-0.07796319,0.,0.90531167,-0.1
 2201064,-0.01310134,0.,0.05002677,-0.00528251,0.,0.08461310,-0.1889746
 2,0.,0.02120383,-0.00289655,0.,-0.07007004,-0.36357243,0.,0.12132546,0
 .65605419,0.,0.,0.01918789,0.,0.,0.02117266,0.,0.,-0.06306527,0.,0.,-0
 .00916592,0.,0.,-0.07983974,0.,0.,0.14214426,0.00069907,0.00140082,0.,
 -0.00035913,0.00090685,0.,-0.01347216,-0.01014301,0.,-0.00060819,0.000
 33609,0.,-0.00086683,-0.00080088,0.,-0.33555008,-0.08508849,0.,0.35015
 732,-0.00433676,-0.00531998,0.,0.00391887,-0.00582217,0.,0.02538269,0.
 01263016,0.,-0.00039256,-0.00009101,0.,-0.02920440,-0.00008712,0.,-0.0
 8875647,-0.08222674,0.,0.09338863,0.08091685,0.,0.,0.00912502,0.,0.,0.
 00611828,0.,0.,-0.00242881,0.,0.,-0.00088596,0.,0.,-0.00490766,0.,0.,-
 0.03043387,0.,0.,0.02341300\\-0.00022578,0.00014495,0.,-0.00004806,-0.
 00013879,0.,0.00010317,-0.00009922,0.,-0.00000924,-0.00003727,0.,0.000
 22546,0.00021428,0.,-0.00005920,-0.00010633,0.,0.00001365,0.00002237,0
 .\\\@
 Job cpu time:  0 days  3 hours 10 minutes  6.6 seconds.
 File lengths (MBytes):  RWF=    714 Int=      0 D2E=      0 Chk=     15 Scr=      1
 Normal termination of Gaussian 09 at Thu Dec  8 12:50:19 2011.
