 Entering Gaussian System, Link 0=g09
 Initial command:
 /usr/local/gaussian/g09.b01.em64t.linda/g09/l1.exe /tmp/rdj3/g09-6793/Gau-22416.inp -scrdir=/tmp/rdj3/g09-6793/
 Entering Link 1 = /usr/local/gaussian/g09.b01.em64t.linda/g09/l1.exe PID=     22417.
  
 Copyright (c) 1988,1990,1992,1993,1995,1998,2003,2009,2010,
            Gaussian, Inc.  All Rights Reserved.
  
 This is part of the Gaussian(R) 09 program.  It is based on
 the Gaussian(R) 03 system (copyright 2003, Gaussian, Inc.),
 the Gaussian(R) 98 system (copyright 1998, Gaussian, Inc.),
 the Gaussian(R) 94 system (copyright 1995, Gaussian, Inc.),
 the Gaussian 92(TM) system (copyright 1992, Gaussian, Inc.),
 the Gaussian 90(TM) system (copyright 1990, Gaussian, Inc.),
 the Gaussian 88(TM) system (copyright 1988, Gaussian, Inc.),
 the Gaussian 86(TM) system (copyright 1986, Carnegie Mellon
 University), and the Gaussian 82(TM) system (copyright 1983,
 Carnegie Mellon University). Gaussian is a federally registered
 trademark of Gaussian, Inc.
  
 This software contains proprietary and confidential information,
 including trade secrets, belonging to Gaussian, Inc.
  
 This software is provided under written license and may be
 used, copied, transmitted, or stored only in accord with that
 written license.
  
 The following legend is applicable only to US Government
 contracts under FAR:
  
                    RESTRICTED RIGHTS LEGEND
  
 Use, reproduction and disclosure by the US Government is
 subject to restrictions as set forth in subparagraphs (a)
 and (c) of the Commercial Computer Software - Restricted
 Rights clause in FAR 52.227-19.
  
 Gaussian, Inc.
 340 Quinnipiac St., Bldg. 40, Wallingford CT 06492
  
  
 ---------------------------------------------------------------
 Warning -- This program may not be used in any manner that
 competes with the business of Gaussian, Inc. or will provide
 assistance to any competitor of Gaussian, Inc.  The licensee
 of this program is prohibited from giving any competitor of
 Gaussian, Inc. access to this program.  By using this program,
 the user acknowledges that Gaussian, Inc. is engaged in the
 business of creating and licensing software in the field of
 computational chemistry and represents and warrants to the
 licensee that it is not a competitor of Gaussian, Inc. and that
 it will not use this program in any manner prohibited above.
 ---------------------------------------------------------------
  

 Cite this work as:
 Gaussian 09, Revision B.01,
 M. J. Frisch, G. W. Trucks, H. B. Schlegel, G. E. Scuseria, 
 M. A. Robb, J. R. Cheeseman, G. Scalmani, V. Barone, B. Mennucci, 
 G. A. Petersson, H. Nakatsuji, M. Caricato, X. Li, H. P. Hratchian, 
 A. F. Izmaylov, J. Bloino, G. Zheng, J. L. Sonnenberg, M. Hada, 
 M. Ehara, K. Toyota, R. Fukuda, J. Hasegawa, M. Ishida, T. Nakajima, 
 Y. Honda, O. Kitao, H. Nakai, T. Vreven, J. A. Montgomery, Jr., 
 J. E. Peralta, F. Ogliaro, M. Bearpark, J. J. Heyd, E. Brothers, 
 K. N. Kudin, V. N. Staroverov, T. Keith, R. Kobayashi, J. Normand, 
 K. Raghavachari, A. Rendell, J. C. Burant, S. S. Iyengar, J. Tomasi, 
 M. Cossi, N. Rega, J. M. Millam, M. Klene, J. E. Knox, J. B. Cross, 
 V. Bakken, C. Adamo, J. Jaramillo, R. Gomperts, R. E. Stratmann, 
 O. Yazyev, A. J. Austin, R. Cammi, C. Pomelli, J. W. Ochterski, 
 R. L. Martin, K. Morokuma, V. G. Zakrzewski, G. A. Voth, 
 P. Salvador, J. J. Dannenberg, S. Dapprich, A. D. Daniels, 
 O. Farkas, J. B. Foresman, J. V. Ortiz, J. Cioslowski, 
 and D. J. Fox, Gaussian, Inc., Wallingford CT, 2010.
 
 ******************************************
 Gaussian 09:  EM64L-G09RevB.01 12-Aug-2010
                19-Jul-2012 
 ******************************************
 %NProc=8
 Will use up to    8 processors via shared memory.
 %mem=444000000
 ------------------------------------------------------------------
 #B2PLYP=FULL/6-31G* opt=tight freq=anharm integral(grid=ultrafine)
 ------------------------------------------------------------------
 1/7=10,18=20,19=15,38=1,80=1/1,3;
 2/9=110,12=2,17=6,18=5,40=1/2;
 3/5=1,6=6,7=1,11=9,16=1,25=1,30=1,71=1,74=-47,75=-5/1,2,3;
 4//1;
 5/5=2,38=5/2;
 8/6=4,10=90/1;
 9/15=2,16=-3/6;
 10/5=1/2;
 6/7=2,8=2,9=2,10=2/1;
 7/12=2/1,2,3,16;
 1/7=10,18=20,19=15,80=1/3(2);
 2/9=110/2;
 99/8=1000/99;
 2/9=110/2;
 3/5=1,6=6,7=1,11=9,16=1,25=1,30=1,71=1,74=-47,75=-5/1,2,3;
 4/5=5,16=3/1;
 5/5=2,38=5/2;
 8/6=4,10=90/1;
 9/15=2,16=-3/6;
 10/5=1/2;
 7/12=2/1,2,3,16;
 1/7=10,18=20,19=15,80=1/3(-8);
 2/9=110/2;
 6/7=2,8=2,9=2,10=2/1;
 99/8=1000/99;
 ----------------------------------------------------------
 1H tetrazole c CH-NH-N=N-N= casno=288948 method=79 basis=1
 ----------------------------------------------------------
 Symbolic Z-matrix:
 Charge =  0 Multiplicity = 1
 N                    -1.03515   0.50502   0. 
 N                     0.04838   1.13258   0. 
 N                     1.01435   0.22395   0. 
 H                     1.96998   0.4979    0. 
 N                    -0.8321   -0.82085   0. 
 C                     0.44745  -0.97938   0. 
 H                     0.97699  -1.90657   0. 
 

 GradGradGradGradGradGradGradGradGradGradGradGradGradGradGradGradGradGrad
 Berny optimization.
 Initialization pass.
                           ----------------------------
                           !    Initial Parameters    !
                           ! (Angstroms and Degrees)  !
 --------------------------                            --------------------------
 ! Name  Definition              Value          Derivative Info.                !
 --------------------------------------------------------------------------------
 ! R1    R(1,2)                  1.2522         estimate D2E/DX2                !
 ! R2    R(1,5)                  1.3413         estimate D2E/DX2                !
 ! R3    R(2,3)                  1.3262         estimate D2E/DX2                !
 ! R4    R(3,4)                  0.9941         estimate D2E/DX2                !
 ! R5    R(3,6)                  1.3302         estimate D2E/DX2                !
 ! R6    R(5,6)                  1.2893         estimate D2E/DX2                !
 ! R7    R(6,7)                  1.0678         estimate D2E/DX2                !
 ! A1    A(2,1,5)              111.3714         estimate D2E/DX2                !
 ! A2    A(1,2,3)              106.673          estimate D2E/DX2                !
 ! A3    A(2,3,4)              120.7559         estimate D2E/DX2                !
 ! A4    A(2,3,6)              108.0227         estimate D2E/DX2                !
 ! A5    A(4,3,6)              131.2214         estimate D2E/DX2                !
 ! A6    A(1,5,6)              105.77           estimate D2E/DX2                !
 ! A7    A(3,6,5)              108.1628         estimate D2E/DX2                !
 ! A8    A(3,6,7)              125.0426         estimate D2E/DX2                !
 ! A9    A(5,6,7)              126.7945         estimate D2E/DX2                !
 ! D1    D(5,1,2,3)              0.0            estimate D2E/DX2                !
 ! D2    D(2,1,5,6)              0.0            estimate D2E/DX2                !
 ! D3    D(1,2,3,4)            180.0            estimate D2E/DX2                !
 ! D4    D(1,2,3,6)              0.0            estimate D2E/DX2                !
 ! D5    D(2,3,6,5)              0.0            estimate D2E/DX2                !
 ! D6    D(2,3,6,7)            180.0            estimate D2E/DX2                !
 ! D7    D(4,3,6,5)            180.0            estimate D2E/DX2                !
 ! D8    D(4,3,6,7)              0.0            estimate D2E/DX2                !
 ! D9    D(1,5,6,3)              0.0            estimate D2E/DX2                !
 ! D10   D(1,5,6,7)            180.0            estimate D2E/DX2                !
 --------------------------------------------------------------------------------
 Trust Radius=3.00D-01 FncErr=1.00D-07 GrdErr=1.00D-07
 Number of steps in this run=     36 maximum allowed number of steps=    100.
 GradGradGradGradGradGradGradGradGradGradGradGradGradGradGradGradGradGrad

                          Input orientation:                          
 ---------------------------------------------------------------------
 Center     Atomic      Atomic             Coordinates (Angstroms)
 Number     Number       Type             X           Y           Z
 ---------------------------------------------------------------------
      1          7           0       -1.035155    0.505017    0.000000
      2          7           0        0.048381    1.132585    0.000000
      3          7           0        1.014346    0.223952    0.000000
      4          1           0        1.969978    0.497900    0.000000
      5          7           0       -0.832095   -0.820848    0.000000
      6          6           0        0.447448   -0.979378    0.000000
      7          1           0        0.976994   -1.906573    0.000000
 ---------------------------------------------------------------------
                    Distance matrix (angstroms):
                    1          2          3          4          5
     1  N    0.000000
     2  N    1.252155   0.000000
     3  N    2.068684   1.326161   0.000000
     4  H    3.005141   2.023699   0.994122   0.000000
     5  N    1.341325   2.142694   2.121545   3.096887   0.000000
     6  C    2.097985   2.149335   1.330179   2.121426   1.289326
     7  H    3.140782   3.177861   2.130852   2.601444   2.109882
                    6          7
     6  C    0.000000
     7  H    1.067760   0.000000
 Stoichiometry    CH2N4
 Framework group  CS[SG(CH2N4)]
 Deg. of freedom    11
 Full point group                 CS      NOp   2
 Largest Abelian subgroup         CS      NOp   2
 Largest concise Abelian subgroup C1      NOp   1
                         Standard orientation:                         
 ---------------------------------------------------------------------
 Center     Atomic      Atomic             Coordinates (Angstroms)
 Number     Number       Type             X           Y           Z
 ---------------------------------------------------------------------
      1          7           0       -0.716312   -0.901934    0.000000
      2          7           0       -1.095520    0.291420    0.000000
      3          7           0        0.000000    1.038775    0.000000
      4          1           0       -0.061479    2.030994    0.000000
      5          7           0        0.622151   -0.989495    0.000000
      6          6           0        1.052813    0.225779    0.000000
      7          1           0        2.072370    0.542976    0.000000
 ---------------------------------------------------------------------
 Rotational constants (GHZ):     10.9198664     10.7343935      5.4131678
 Standard basis: 6-31G(d) (6D, 7F)
 There are    59 symmetry adapted basis functions of A'  symmetry.
 There are    20 symmetry adapted basis functions of A"  symmetry.
 Integral buffers will be    131072 words long.
 Raffenetti 1 integral format.
 Two-electron integral symmetry is turned on.
    79 basis functions,   148 primitive gaussians,    79 cartesian basis functions
    18 alpha electrons       18 beta electrons
       nuclear repulsion energy       169.8288292520 Hartrees.
 NAtoms=    7 NActive=    7 NUniq=    7 SFac= 1.00D+00 NAtFMM=   50 NAOKFM=F Big=F
 One-electron integrals computed using PRISM.
 NBasis=    79 RedAO= T  NBF=    59    20
 NBsUse=    79 1.00D-06 NBFU=    59    20
 Harris functional with IExCor=  419 diagonalized for initial guess.
 ExpMin= 1.61D-01 ExpMax= 4.17D+03 ExpMxC= 6.27D+02 IAcc=3 IRadAn=         5 AccDes= 0.00D+00
 HarFok:  IExCor=  419 AccDes= 0.00D+00 IRadAn=         5 IDoV= 1
 ScaDFX=  1.000000  1.000000  1.000000  1.000000
 FoFCou: FMM=F IPFlag=           0 FMFlag=      100000 FMFlg1=           0
         NFxFlg=           0 DoJE=T BraDBF=F KetDBF=T FulRan=T
         Omega=  0.000000  0.000000  1.000000  0.000000  0.000000 ICntrl=     500 IOpCl=  0
         NMat0=    1 NMatS0=    1 NMatT0=    0 NMatD0=    1 NMtDS0=    0 NMtDT0=    0
         I1Cent=           4 NGrid=           0.
 Petite list used in FoFCou.
 Initial guess orbital symmetries:
       Occupied  (A') (A') (A') (A') (A') (A') (A') (A') (A') (A')
                 (A') (A') (A") (A') (A") (A') (A") (A')
       Virtual   (A") (A") (A') (A') (A') (A') (A') (A') (A') (A")
                 (A') (A') (A') (A') (A') (A') (A") (A") (A') (A")
                 (A') (A") (A') (A') (A') (A') (A') (A') (A') (A")
                 (A") (A") (A') (A') (A") (A") (A') (A') (A') (A')
                 (A') (A') (A") (A") (A') (A') (A") (A") (A') (A')
                 (A") (A') (A') (A') (A') (A') (A') (A') (A') (A')
                 (A')
 The electronic state of the initial guess is 1-A'.
 Requested convergence on RMS density matrix=1.00D-08 within 128 cycles.
 Requested convergence on MAX density matrix=1.00D-06.
 Requested convergence on             energy=1.00D-06.
 No special actions if energy rises.
 Keep R1 ints in memory in canonical form, NReq=6087738.
 Integral accuracy reduced to 1.0D-05 until final iterations.
 Initial convergence to 1.0D-05 achieved.  Increase integral accuracy.
 SCF Done:  E(RB2PLYP) =  -257.746744730     A.U. after   14 cycles
             Convg  =    0.8925D-08             -V/T =  2.0053
 Range of M.O.s used for correlation:     1    79
 NBasis=    79 NAE=    18 NBE=    18 NFC=     0 NFV=     0
 NROrb=     79 NOA=    18 NOB=    18 NVA=    61 NVB=    61
 DoSCS=T DFT=T ScalE2(SS,OS)=  0.270000  0.270000
 Fully direct method using O(ONN) memory.
 JobTyp=1 Pass  1:  I=   1 to  18 NPSUse=  8 ParTrn=T ParDer=T DoDerP=T.
 Spin components of T(2) and E(2):
     alpha-alpha T2 =       0.5734514366D-01 E2=     -0.3690321335D-01
     alpha-beta  T2 =       0.2898671535D+00 E2=     -0.1897300454D+00
     beta-beta   T2 =       0.5734514366D-01 E2=     -0.3690321335D-01
 E2(B2PLYP) =    -0.2635364721D+00 E(B2PLYP) =    -0.25801028120172D+03
          IDoAtm=1111111
          Differentiating once with respect to electric field.
                with respect to dipole field.
          Differentiating once with respect to nuclear coordinates.
          Keep R1 ints in memory in canonical form, NReq=5971238.
          There are     1 degrees of freedom in the 1st order CPHF.  IDoFFX=0.
 LinEq1:  Iter=  0 NonCon=     1 RMS=3.16D-03 Max=3.55D-02
 AX will form     1 AO Fock derivatives at one time.
 LinEq1:  Iter=  1 NonCon=     1 RMS=8.03D-04 Max=7.32D-03
 LinEq1:  Iter=  2 NonCon=     1 RMS=3.25D-04 Max=5.79D-03
 LinEq1:  Iter=  3 NonCon=     1 RMS=1.62D-04 Max=2.23D-03
 LinEq1:  Iter=  4 NonCon=     1 RMS=5.43D-05 Max=8.82D-04
 LinEq1:  Iter=  5 NonCon=     1 RMS=2.80D-05 Max=3.57D-04
 LinEq1:  Iter=  6 NonCon=     1 RMS=1.34D-05 Max=1.73D-04
 LinEq1:  Iter=  7 NonCon=     1 RMS=6.42D-06 Max=6.19D-05
 LinEq1:  Iter=  8 NonCon=     1 RMS=2.12D-06 Max=2.30D-05
 LinEq1:  Iter=  9 NonCon=     1 RMS=3.32D-07 Max=2.32D-06
 LinEq1:  Iter= 10 NonCon=     1 RMS=1.83D-07 Max=2.83D-06
 LinEq1:  Iter= 11 NonCon=     1 RMS=6.64D-08 Max=7.81D-07
 LinEq1:  Iter= 12 NonCon=     1 RMS=8.63D-09 Max=7.33D-08
 LinEq1:  Iter= 13 NonCon=     1 RMS=1.32D-09 Max=1.44D-08
 LinEq1:  Iter= 14 NonCon=     1 RMS=2.25D-10 Max=2.33D-09
 LinEq1:  Iter= 15 NonCon=     0 RMS=4.18D-11 Max=3.60D-10
 Linear equations converged to 1.000D-10 1.000D-09 after    15 iterations.
 End of Minotr Frequency-dependent properties file   721 does not exist.
 End of Minotr Frequency-dependent properties file   722 does not exist.

 **********************************************************************

            Population analysis using the SCF density.

 **********************************************************************

 Orbital symmetries:
       Occupied  (A') (A') (A') (A') (A') (A') (A') (A') (A') (A')
                 (A') (A") (A') (A') (A") (A') (A") (A')
       Virtual   (A") (A") (A') (A') (A') (A') (A') (A') (A') (A")
                 (A') (A') (A') (A') (A") (A') (A') (A") (A') (A")
                 (A') (A") (A') (A') (A') (A') (A') (A') (A') (A")
                 (A") (A") (A') (A') (A") (A") (A') (A') (A') (A')
                 (A') (A') (A") (A") (A') (A') (A") (A") (A') (A')
                 (A") (A') (A') (A') (A') (A') (A') (A') (A') (A')
                 (A')
 The electronic state is 1-A'.
 Alpha  occ. eigenvalues --  -14.96545 -14.93289 -14.91330 -14.87885 -10.71829
 Alpha  occ. eigenvalues --   -1.31657  -1.08772  -1.03469  -0.78355  -0.76795
 Alpha  occ. eigenvalues --   -0.69291  -0.58622  -0.58159  -0.46323  -0.38791
 Alpha  occ. eigenvalues --   -0.37346  -0.36263  -0.35937
 Alpha virt. eigenvalues --    0.05471   0.09856   0.11598   0.17192   0.27775
 Alpha virt. eigenvalues --    0.28030   0.38112   0.40621   0.53326   0.60313
 Alpha virt. eigenvalues --    0.61454   0.69078   0.69687   0.76010   0.76607
 Alpha virt. eigenvalues --    0.77837   0.79163   0.80803   0.81910   0.89506
 Alpha virt. eigenvalues --    0.92105   0.93972   0.94254   0.97235   1.03210
 Alpha virt. eigenvalues --    1.09743   1.14446   1.18071   1.33761   1.38321
 Alpha virt. eigenvalues --    1.44849   1.48630   1.50540   1.55949   1.67816
 Alpha virt. eigenvalues --    1.69675   1.77299   2.00686   2.09046   2.18247
 Alpha virt. eigenvalues --    2.21416   2.31792   2.33869   2.39310   2.47152
 Alpha virt. eigenvalues --    2.51333   2.52887   2.60048   2.69770   2.70275
 Alpha virt. eigenvalues --    2.80501   2.82751   2.87764   3.12999   3.16355
 Alpha virt. eigenvalues --    3.20630   3.67514   3.79955   4.14752   4.22446
 Alpha virt. eigenvalues --    4.32938
          Condensed to atoms (all electrons):
              1          2          3          4          5          6
     1  N    6.664750   0.316359  -0.098525   0.006033   0.295983  -0.110766
     2  N    0.316359   6.723350   0.210864  -0.023535  -0.089019  -0.108722
     3  N   -0.098525   0.210864   6.826359   0.316765  -0.073533   0.320588
     4  H    0.006033  -0.023535   0.316765   0.326317   0.005067  -0.022911
     5  N    0.295983  -0.089019  -0.073533   0.005067   6.757331   0.457847
     6  C   -0.110766  -0.108722   0.320588  -0.022911   0.457847   4.792609
     7  H    0.004166   0.002175  -0.041485   0.001054  -0.027414   0.388320
              7
     1  N    0.004166
     2  N    0.002175
     3  N   -0.041485
     4  H    0.001054
     5  N   -0.027414
     6  C    0.388320
     7  H    0.450663
 Mulliken atomic charges:
              1
     1  N   -0.077999
     2  N   -0.031471
     3  N   -0.461032
     4  H    0.391211
     5  N   -0.326263
     6  C    0.283034
     7  H    0.222520
 Sum of Mulliken atomic charges =   0.00000
 Mulliken charges with hydrogens summed into heavy atoms:
              1
     1  N   -0.077999
     2  N   -0.031471
     3  N   -0.069822
     5  N   -0.326263
     6  C    0.505555
 Sum of Mulliken charges with hydrogens summed into heavy atoms =   0.00000
 Electronic spatial extent (au):  <R**2>=            244.0248
 Charge=              0.0000 electrons
 Dipole moment (field-independent basis, Debye):
    X=              2.5428    Y=              4.8268    Z=              0.0000  Tot=              5.4556
 Quadrupole moment (field-independent basis, Debye-Ang):
   XX=            -28.5922   YY=            -26.2102   ZZ=            -28.1056
   XY=              1.8209   XZ=              0.0000   YZ=              0.0000
 Traceless Quadrupole moment (field-independent basis, Debye-Ang):
   XX=             -0.9562   YY=              1.4258   ZZ=             -0.4696
   XY=              1.8209   XZ=              0.0000   YZ=              0.0000
 Octapole moment (field-independent basis, Debye-Ang**2):
  XXX=             11.6670  YYY=             22.0936  ZZZ=              0.0000  XYY=             -0.6306
  XXY=              4.5865  XXZ=              0.0000  XZZ=             -0.5794  YZZ=              0.5494
  YYZ=              0.0000  XYZ=              0.0000
 Hexadecapole moment (field-independent basis, Debye-Ang**3):
 XXXX=           -137.3302 YYYY=           -115.5072 ZZZZ=            -24.5207 XXXY=              6.2314
 XXXZ=              0.0000 YYYX=             -0.3553 YYYZ=              0.0000 ZZZX=              0.0000
 ZZZY=              0.0000 XXYY=            -51.5628 XXZZ=            -29.1882 YYZZ=            -27.6704
 XXYZ=              0.0000 YYXZ=              0.0000 ZZXY=             -0.0630
 N-N= 1.698288292520D+02 E-N=-9.414882947062D+02  KE= 2.563987213526D+02
 Symmetry A'   KE= 2.471071670857D+02
 Symmetry A"   KE= 9.291554266932D+00
 Calling FoFJK, ICntrl=      2127 FMM=F ISym2X=1 I1Cent= 0 IOpClX= 0 NMat=1 NMatS=1 NMatT=0.
 ***** Axes restored to original set *****
 -------------------------------------------------------------------
 Center     Atomic                   Forces (Hartrees/Bohr)
 Number     Number              X              Y              Z
 -------------------------------------------------------------------
      1        7          -0.051798987   -0.001703599    0.000000000
      2        7           0.028333009    0.049223228    0.000000000
      3        7           0.015180649   -0.004227160    0.000000000
      4        1           0.014381308    0.004553200    0.000000000
      5        7          -0.030952723   -0.023371405    0.000000000
      6        6           0.020817140   -0.017820949    0.000000000
      7        1           0.004039603   -0.006653315    0.000000000
 -------------------------------------------------------------------
 Cartesian Forces:  Max     0.051798987 RMS     0.020358005

 GradGradGradGradGradGradGradGradGradGradGradGradGradGradGradGradGradGrad
 Berny optimization.
 Internal  Forces:  Max     0.053979232 RMS     0.016024535
 Search for a local minimum.
 Step number   1 out of a maximum of   36
 All quantities printed in internal units (Hartrees-Bohrs-Radians)
 Mixed Optimization -- RFO/linear search
 Second derivative matrix not updated -- first step.
 ITU=  0
     Eigenvalues ---    0.02505   0.02639   0.02674   0.02834   0.16000
     Eigenvalues ---    0.16000   0.22605   0.24688   0.37515   0.48737
     Eigenvalues ---    0.50885   0.56605   0.58506   0.66912   0.78894
 RFO step:  Lambda=-9.58162038D-03 EMin= 2.50523105D-02
 Linear search not attempted -- first point.
 Iteration  1 RMS(Cart)=  0.02428630 RMS(Int)=  0.00004715
 Iteration  2 RMS(Cart)=  0.00003596 RMS(Int)=  0.00002848
 Iteration  3 RMS(Cart)=  0.00000000 RMS(Int)=  0.00002848
 ClnCor:  largest displacement from symmetrization is 1.11D-12 for atom     6.
 Variable       Old X    -DE/DX   Delta X   Delta X   Delta X     New X
                                 (Linear)    (Quad)   (Total)
    R1        2.36623   0.05398   0.00000   0.06681   0.06685   2.43308
    R2        2.53474   0.02603   0.00000   0.04688   0.04691   2.58165
    R3        2.50608   0.02837   0.00000   0.04625   0.04625   2.55233
    R4        1.87862   0.01508   0.00000   0.03034   0.03034   1.90896
    R5        2.51367   0.02500   0.00000   0.03852   0.03848   2.55216
    R6        2.43647   0.03614   0.00000   0.04923   0.04921   2.48568
    R7        2.01777   0.00778   0.00000   0.02022   0.02022   2.03800
    A1        1.94380  -0.00323   0.00000  -0.00074  -0.00067   1.94313
    A2        1.86179  -0.00373   0.00000  -0.00729  -0.00724   1.85455
    A3        2.10759  -0.00194   0.00000  -0.00510  -0.00508   2.10250
    A4        1.88535   0.00309   0.00000   0.00561   0.00557   1.89092
    A5        2.29025  -0.00116   0.00000  -0.00051  -0.00049   2.28976
    A6        1.84604   0.00000   0.00000  -0.00238  -0.00239   1.84364
    A7        1.88780   0.00387   0.00000   0.00480   0.00473   1.89253
    A8        2.18241  -0.00215   0.00000  -0.00364  -0.00361   2.17879
    A9        2.21298  -0.00172   0.00000  -0.00116  -0.00112   2.21186
    D1        0.00000   0.00000   0.00000   0.00000   0.00000   0.00000
    D2        0.00000   0.00000   0.00000   0.00000   0.00000   0.00000
    D3        3.14159   0.00000   0.00000   0.00000   0.00000   3.14159
    D4        0.00000   0.00000   0.00000   0.00000   0.00000   0.00000
    D5        0.00000   0.00000   0.00000   0.00000   0.00000   0.00000
    D6        3.14159   0.00000   0.00000   0.00000   0.00000   3.14159
    D7        3.14159   0.00000   0.00000   0.00000   0.00000   3.14159
    D8        0.00000   0.00000   0.00000   0.00000   0.00000   0.00000
    D9        0.00000   0.00000   0.00000   0.00000   0.00000   0.00000
   D10        3.14159   0.00000   0.00000   0.00000   0.00000   3.14159
         Item               Value     Threshold  Converged?
 Maximum Force            0.053979     0.000015     NO 
 RMS     Force            0.016025     0.000010     NO 
 Maximum Displacement     0.056249     0.000060     NO 
 RMS     Displacement     0.024276     0.000040     NO 
 Predicted change in Energy=-4.857911D-03
 GradGradGradGradGradGradGradGradGradGradGradGradGradGradGradGradGradGrad

                          Input orientation:                          
 ---------------------------------------------------------------------
 Center     Atomic      Atomic             Coordinates (Angstroms)
 Number     Number       Type             X           Y           Z
 ---------------------------------------------------------------------
      1          7           0       -1.064921    0.514004    0.000000
      2          7           0        0.048638    1.160317    0.000000
      3          7           0        1.026554    0.228707    0.000000
      4          1           0        1.997967    0.505871    0.000000
      5          7           0       -0.855967   -0.836070    0.000000
      6          6           0        0.450050   -0.992608    0.000000
      7          1           0        0.987575   -1.927567    0.000000
 ---------------------------------------------------------------------
                    Distance matrix (angstroms):
                    1          2          3          4          5
     1  N    0.000000
     2  N    1.287530   0.000000
     3  N    2.110844   1.350636   0.000000
     4  H    3.062898   2.056254   1.010179   0.000000
     5  N    1.366148   2.191773   2.162784   3.153686   0.000000
     6  C    2.136591   2.190027   1.350544   2.154411   1.315365
     7  H    3.189672   3.227481   2.156627   2.634865   2.142431
                    6          7
     6  C    0.000000
     7  H    1.078462   0.000000
 Stoichiometry    CH2N4
 Framework group  CS[SG(CH2N4)]
 Deg. of freedom    11
 Full point group                 CS      NOp   2
 Largest Abelian subgroup         CS      NOp   2
 Largest concise Abelian subgroup C1      NOp   1
                         Standard orientation:                         
 ---------------------------------------------------------------------
 Center     Atomic      Atomic             Coordinates (Angstroms)
 Number     Number       Type             X           Y           Z
 ---------------------------------------------------------------------
      1          7           0       -0.725994   -0.924546    0.000000
      2          7           0       -1.119199    0.301474    0.000000
      3          7           0        0.000000    1.057523    0.000000
      4          1           0       -0.062998    2.065736    0.000000
      5          7           0        0.637532   -1.009162    0.000000
      6          6           0        1.069763    0.233159    0.000000
      7          1           0        2.098048    0.558290    0.000000
 ---------------------------------------------------------------------
 Rotational constants (GHZ):     10.5039225     10.3249576      5.2068356
 Standard basis: 6-31G(d) (6D, 7F)
 There are    59 symmetry adapted basis functions of A'  symmetry.
 There are    20 symmetry adapted basis functions of A"  symmetry.
 Integral buffers will be    131072 words long.
 Raffenetti 1 integral format.
 Two-electron integral symmetry is turned on.
    79 basis functions,   148 primitive gaussians,    79 cartesian basis functions
    18 alpha electrons       18 beta electrons
       nuclear repulsion energy       166.5517340388 Hartrees.
 NAtoms=    7 NActive=    7 NUniq=    7 SFac= 1.00D+00 NAtFMM=   50 NAOKFM=F Big=F
 One-electron integrals computed using PRISM.
 NBasis=    79 RedAO= T  NBF=    59    20
 NBsUse=    79 1.00D-06 NBFU=    59    20
 Initial guess read from the read-write file.
 B after Tr=     0.000000    0.000000    0.000000
         Rot=    1.000000    0.000000    0.000000    0.000000 Ang=   0.00 deg.
 Initial guess orbital symmetries:
       Occupied  (A') (A') (A') (A') (A') (A') (A') (A') (A') (A')
                 (A') (A") (A') (A') (A") (A') (A") (A')
       Virtual   (A") (A") (A') (A') (A') (A') (A') (A') (A') (A")
                 (A') (A') (A') (A') (A") (A') (A') (A") (A') (A")
                 (A') (A") (A') (A') (A') (A') (A') (A') (A') (A")
                 (A") (A") (A') (A') (A") (A") (A') (A') (A') (A')
                 (A') (A') (A") (A") (A') (A') (A") (A") (A') (A')
                 (A") (A') (A') (A') (A') (A') (A') (A') (A') (A')
                 (A')
 Harris functional with IExCor=  419 diagonalized for initial guess.
 ExpMin= 1.61D-01 ExpMax= 4.17D+03 ExpMxC= 6.27D+02 IAcc=3 IRadAn=         5 AccDes= 0.00D+00
 HarFok:  IExCor=  419 AccDes= 0.00D+00 IRadAn=         5 IDoV= 1
 ScaDFX=  1.000000  1.000000  1.000000  1.000000
 FoFCou: FMM=F IPFlag=           0 FMFlag=      100000 FMFlg1=           0
         NFxFlg=           0 DoJE=T BraDBF=F KetDBF=T FulRan=T
         Omega=  0.000000  0.000000  1.000000  0.000000  0.000000 ICntrl=     500 IOpCl=  0
         NMat0=    1 NMatS0=    1 NMatT0=    0 NMatD0=    1 NMtDS0=    0 NMtDT0=    0
         I1Cent=           4 NGrid=           0.
 Petite list used in FoFCou.
 Requested convergence on RMS density matrix=1.00D-08 within 128 cycles.
 Requested convergence on MAX density matrix=1.00D-06.
 Requested convergence on             energy=1.00D-06.
 No special actions if energy rises.
 Keep R1 ints in memory in canonical form, NReq=6087745.
 Integral accuracy reduced to 1.0D-05 until final iterations.
 Initial convergence to 1.0D-05 achieved.  Increase integral accuracy.
 SCF Done:  E(RB2PLYP) =  -257.746734364     A.U. after   13 cycles
             Convg  =    0.5755D-08             -V/T =  2.0069
 Range of M.O.s used for correlation:     1    79
 NBasis=    79 NAE=    18 NBE=    18 NFC=     0 NFV=     0
 NROrb=     79 NOA=    18 NOB=    18 NVA=    61 NVB=    61
 DoSCS=T DFT=T ScalE2(SS,OS)=  0.270000  0.270000
 Fully direct method using O(ONN) memory.
 JobTyp=1 Pass  1:  I=   1 to  18 NPSUse=  8 ParTrn=T ParDer=T DoDerP=T.
 Spin components of T(2) and E(2):
     alpha-alpha T2 =       0.6042408919D-01 E2=     -0.3755650988D-01
     alpha-beta  T2 =       0.3064111420D+00 E2=     -0.1935558221D+00
     beta-beta   T2 =       0.6042408919D-01 E2=     -0.3755650988D-01
 E2(B2PLYP) =    -0.2686688418D+00 E(B2PLYP) =    -0.25801540320608D+03
          IDoAtm=1111111
          Differentiating once with respect to electric field.
                with respect to dipole field.
          Differentiating once with respect to nuclear coordinates.
          Keep R1 ints in memory in canonical form, NReq=5971245.
          There are     1 degrees of freedom in the 1st order CPHF.  IDoFFX=0.
 LinEq1:  Iter=  0 NonCon=     1 RMS=3.35D-03 Max=3.68D-02
 AX will form     1 AO Fock derivatives at one time.
 LinEq1:  Iter=  1 NonCon=     1 RMS=8.84D-04 Max=7.40D-03
 LinEq1:  Iter=  2 NonCon=     1 RMS=3.78D-04 Max=7.06D-03
 LinEq1:  Iter=  3 NonCon=     1 RMS=1.93D-04 Max=2.30D-03
 LinEq1:  Iter=  4 NonCon=     1 RMS=6.37D-05 Max=6.65D-04
 LinEq1:  Iter=  5 NonCon=     1 RMS=3.27D-05 Max=4.46D-04
 LinEq1:  Iter=  6 NonCon=     1 RMS=1.27D-05 Max=1.15D-04
 LinEq1:  Iter=  7 NonCon=     1 RMS=3.21D-06 Max=4.85D-05
 LinEq1:  Iter=  8 NonCon=     1 RMS=2.05D-06 Max=1.98D-05
 LinEq1:  Iter=  9 NonCon=     1 RMS=6.79D-07 Max=9.87D-06
 LinEq1:  Iter= 10 NonCon=     1 RMS=4.66D-07 Max=7.49D-06
 LinEq1:  Iter= 11 NonCon=     1 RMS=1.06D-07 Max=1.28D-06
 LinEq1:  Iter= 12 NonCon=     1 RMS=1.54D-08 Max=1.49D-07
 LinEq1:  Iter= 13 NonCon=     1 RMS=2.64D-09 Max=2.53D-08
 LinEq1:  Iter= 14 NonCon=     1 RMS=5.18D-10 Max=4.95D-09
 LinEq1:  Iter= 15 NonCon=     0 RMS=8.37D-11 Max=5.84D-10
 Linear equations converged to 1.000D-10 1.000D-09 after    15 iterations.
 End of Minotr Frequency-dependent properties file   721 does not exist.
 End of Minotr Frequency-dependent properties file   722 does not exist.
 Calling FoFJK, ICntrl=      2127 FMM=F ISym2X=1 I1Cent= 0 IOpClX= 0 NMat=1 NMatS=1 NMatT=0.
 ***** Axes restored to original set *****
 -------------------------------------------------------------------
 Center     Atomic                   Forces (Hartrees/Bohr)
 Number     Number              X              Y              Z
 -------------------------------------------------------------------
      1        7          -0.008117657   -0.003003789    0.000000000
      2        7           0.007075733    0.009264747    0.000000000
      3        7          -0.000667506   -0.005170569    0.000000000
      4        1          -0.000025555    0.000206648    0.000000000
      5        7          -0.001164611   -0.002863330    0.000000000
      6        6           0.003106775    0.001114571    0.000000000
      7        1          -0.000207178    0.000451722    0.000000000
 -------------------------------------------------------------------
 Cartesian Forces:  Max     0.009264747 RMS     0.003510126

 GradGradGradGradGradGradGradGradGradGradGradGradGradGradGradGradGradGrad
 Berny optimization.
 Using GEDIIS/GDIIS optimizer.
 Internal  Forces:  Max     0.009143467 RMS     0.002173662
 Search for a local minimum.
 Step number   2 out of a maximum of   36
 All quantities printed in internal units (Hartrees-Bohrs-Radians)
 Mixed Optimization -- RFO/linear search
 Update second derivatives using D2CorX and points    1    2
 DE= -5.12D-03 DEPred=-4.86D-03 R= 1.05D+00
 SS=  1.41D+00  RLast= 1.19D-01 DXNew= 5.0454D-01 3.5740D-01
 Trust test= 1.05D+00 RLast= 1.19D-01 DXMaxT set to 3.57D-01
 ITU=  1  0
 Use linear search instead of GDIIS.
     Eigenvalues ---    0.02506   0.02639   0.02675   0.02834   0.15997
     Eigenvalues ---    0.16000   0.22560   0.24575   0.37670   0.48836
     Eigenvalues ---    0.50415   0.55448   0.59868   0.67651   0.72607
 RFO step:  Lambda=-1.26445607D-04 EMin= 2.50574049D-02
 Quartic linear search produced a step of  0.12077.
 Iteration  1 RMS(Cart)=  0.00370320 RMS(Int)=  0.00001593
 Iteration  2 RMS(Cart)=  0.00001447 RMS(Int)=  0.00000832
 Iteration  3 RMS(Cart)=  0.00000000 RMS(Int)=  0.00000832
 ClnCor:  largest displacement from symmetrization is 5.39D-13 for atom     6.
 Variable       Old X    -DE/DX   Delta X   Delta X   Delta X     New X
                                 (Linear)    (Quad)   (Total)
    R1        2.43308   0.00914   0.00807   0.00675   0.01483   2.44791
    R2        2.58165   0.00245   0.00567   0.00115   0.00682   2.58847
    R3        2.55233   0.00295   0.00559   0.00106   0.00666   2.55899
    R4        1.90896   0.00003   0.00366  -0.00278   0.00088   1.90984
    R5        2.55216  -0.00143   0.00465  -0.00771  -0.00307   2.54908
    R6        2.48568   0.00176   0.00594  -0.00277   0.00316   2.48884
    R7        2.03800  -0.00049   0.00244  -0.00330  -0.00086   2.03714
    A1        1.94313  -0.00069  -0.00008   0.00240   0.00233   1.94546
    A2        1.85455  -0.00291  -0.00087  -0.00891  -0.00976   1.84479
    A3        2.10250  -0.00133  -0.00061  -0.00496  -0.00557   2.09693
    A4        1.89092   0.00228   0.00067   0.00746   0.00814   1.89906
    A5        2.28976  -0.00094  -0.00006  -0.00250  -0.00256   2.28720
    A6        1.84364   0.00008  -0.00029  -0.00099  -0.00130   1.84235
    A7        1.89253   0.00125   0.00057   0.00003   0.00059   1.89312
    A8        2.17879  -0.00067  -0.00044  -0.00027  -0.00069   2.17810
    A9        2.21186  -0.00058  -0.00014   0.00023   0.00011   2.21197
    D1        0.00000   0.00000   0.00000   0.00000   0.00000   0.00000
    D2        0.00000   0.00000   0.00000   0.00000   0.00000   0.00000
    D3        3.14159   0.00000   0.00000   0.00000   0.00000   3.14159
    D4        0.00000   0.00000   0.00000   0.00000   0.00000   0.00000
    D5        0.00000   0.00000   0.00000   0.00000   0.00000   0.00000
    D6        3.14159   0.00000   0.00000   0.00000   0.00000   3.14159
    D7        3.14159   0.00000   0.00000   0.00000   0.00000   3.14159
    D8        0.00000   0.00000   0.00000   0.00000   0.00000   0.00000
    D9        0.00000   0.00000   0.00000   0.00000   0.00000   0.00000
   D10        3.14159   0.00000   0.00000   0.00000   0.00000   3.14159
         Item               Value     Threshold  Converged?
 Maximum Force            0.009143     0.000015     NO 
 RMS     Force            0.002174     0.000010     NO 
 Maximum Displacement     0.014157     0.000060     NO 
 RMS     Displacement     0.003703     0.000040     NO 
 Predicted change in Energy=-1.122968D-04
 GradGradGradGradGradGradGradGradGradGradGradGradGradGradGradGradGradGrad

                          Input orientation:                          
 ---------------------------------------------------------------------
 Center     Atomic      Atomic             Coordinates (Angstroms)
 Number     Number       Type             X           Y           Z
 ---------------------------------------------------------------------
      1          7           0       -1.067414    0.514254    0.000000
      2          7           0        0.051011    1.167809    0.000000
      3          7           0        1.025093    0.227113    0.000000
      4          1           0        1.997297    0.503202    0.000000
      5          7           0       -0.857074   -0.839257    0.000000
      6          6           0        0.450900   -0.993494    0.000000
      7          1           0        0.990083   -1.926973    0.000000
 ---------------------------------------------------------------------
                    Distance matrix (angstroms):
                    1          2          3          4          5
     1  N    0.000000
     2  N    1.295380   0.000000
     3  N    2.112117   1.354159   0.000000
     4  H    3.064731   2.056632   1.010646   0.000000
     5  N    1.369757   2.202936   2.163261   3.154303   0.000000
     6  C    2.139762   2.197985   1.348918   2.152078   1.317037
     7  H    3.192629   3.234120   2.154370   2.630633   2.143622
                    6          7
     6  C    0.000000
     7  H    1.078008   0.000000
 Stoichiometry    CH2N4
 Framework group  CS[SG(CH2N4)]
 Deg. of freedom    11
 Full point group                 CS      NOp   2
 Largest Abelian subgroup         CS      NOp   2
 Largest concise Abelian subgroup C1      NOp   1
                         Standard orientation:                         
 ---------------------------------------------------------------------
 Center     Atomic      Atomic             Coordinates (Angstroms)
 Number     Number       Type             X           Y           Z
 ---------------------------------------------------------------------
      1          7           0       -0.724865   -0.927837    0.000000
      2          7           0       -1.126061    0.303849    0.000000
      3          7           0        0.000000    1.056000    0.000000
      4          1           0       -0.063380    2.064656    0.000000
      5          7           0        0.642445   -1.009663    0.000000
      6          6           0        1.070868    0.235744    0.000000
      7          1           0        2.097542    0.564442    0.000000
 ---------------------------------------------------------------------
 Rotational constants (GHZ):     10.4864460     10.2582454      5.1855453
 Standard basis: 6-31G(d) (6D, 7F)
 There are    59 symmetry adapted basis functions of A'  symmetry.
 There are    20 symmetry adapted basis functions of A"  symmetry.
 Integral buffers will be    131072 words long.
 Raffenetti 1 integral format.
 Two-electron integral symmetry is turned on.
    79 basis functions,   148 primitive gaussians,    79 cartesian basis functions
    18 alpha electrons       18 beta electrons
       nuclear repulsion energy       166.2035756950 Hartrees.
 NAtoms=    7 NActive=    7 NUniq=    7 SFac= 1.00D+00 NAtFMM=   50 NAOKFM=F Big=F
 One-electron integrals computed using PRISM.
 NBasis=    79 RedAO= T  NBF=    59    20
 NBsUse=    79 1.00D-06 NBFU=    59    20
 Initial guess read from the read-write file.
 B after Tr=     0.000000    0.000000    0.000000
         Rot=    1.000000    0.000000    0.000000    0.000000 Ang=   0.00 deg.
 Initial guess orbital symmetries:
       Occupied  (A') (A') (A') (A') (A') (A') (A') (A') (A') (A')
                 (A') (A') (A") (A') (A") (A') (A') (A")
       Virtual   (A") (A") (A') (A') (A') (A') (A') (A') (A') (A')
                 (A") (A') (A') (A') (A') (A") (A') (A") (A') (A")
                 (A') (A") (A') (A') (A') (A') (A') (A') (A') (A")
                 (A") (A") (A') (A') (A") (A") (A') (A') (A') (A')
                 (A') (A') (A") (A") (A') (A') (A") (A") (A') (A')
                 (A") (A') (A') (A') (A') (A') (A') (A') (A') (A')
                 (A')
 Requested convergence on RMS density matrix=1.00D-08 within 128 cycles.
 Requested convergence on MAX density matrix=1.00D-06.
 Requested convergence on             energy=1.00D-06.
 No special actions if energy rises.
 Keep R1 ints in memory in canonical form, NReq=6087745.
 SCF Done:  E(RB2PLYP) =  -257.746144902     A.U. after   11 cycles
             Convg  =    0.1537D-08             -V/T =  2.0071
 Range of M.O.s used for correlation:     1    79
 NBasis=    79 NAE=    18 NBE=    18 NFC=     0 NFV=     0
 NROrb=     79 NOA=    18 NOB=    18 NVA=    61 NVB=    61
 DoSCS=T DFT=T ScalE2(SS,OS)=  0.270000  0.270000
 Fully direct method using O(ONN) memory.
 JobTyp=1 Pass  1:  I=   1 to  18 NPSUse=  8 ParTrn=T ParDer=T DoDerP=T.
 Spin components of T(2) and E(2):
     alpha-alpha T2 =       0.6086426602D-01 E2=     -0.3765482747D-01
     alpha-beta  T2 =       0.3086514968D+00 E2=     -0.1940718969D+00
     beta-beta   T2 =       0.6086426602D-01 E2=     -0.3765482747D-01
 E2(B2PLYP) =    -0.2693815518D+00 E(B2PLYP) =    -0.25801552645343D+03
          IDoAtm=1111111
          Differentiating once with respect to electric field.
                with respect to dipole field.
          Differentiating once with respect to nuclear coordinates.
          Keep R1 ints in memory in canonical form, NReq=5971245.
          There are     1 degrees of freedom in the 1st order CPHF.  IDoFFX=0.
 LinEq1:  Iter=  0 NonCon=     1 RMS=3.36D-03 Max=3.67D-02
 AX will form     1 AO Fock derivatives at one time.
 LinEq1:  Iter=  1 NonCon=     1 RMS=8.88D-04 Max=7.14D-03
 LinEq1:  Iter=  2 NonCon=     1 RMS=3.84D-04 Max=7.40D-03
 LinEq1:  Iter=  3 NonCon=     1 RMS=1.96D-04 Max=2.12D-03
 LinEq1:  Iter=  4 NonCon=     1 RMS=6.70D-05 Max=7.06D-04
 LinEq1:  Iter=  5 NonCon=     1 RMS=3.85D-05 Max=6.70D-04
 LinEq1:  Iter=  6 NonCon=     1 RMS=1.54D-05 Max=1.50D-04
 LinEq1:  Iter=  7 NonCon=     1 RMS=8.82D-06 Max=1.28D-04
 LinEq1:  Iter=  8 NonCon=     1 RMS=2.96D-06 Max=2.87D-05
 LinEq1:  Iter=  9 NonCon=     1 RMS=1.07D-06 Max=1.36D-05
 LinEq1:  Iter= 10 NonCon=     1 RMS=6.10D-07 Max=7.77D-06
 LinEq1:  Iter= 11 NonCon=     1 RMS=1.15D-07 Max=1.42D-06
 LinEq1:  Iter= 12 NonCon=     1 RMS=1.73D-08 Max=1.84D-07
 LinEq1:  Iter= 13 NonCon=     1 RMS=3.01D-09 Max=2.68D-08
 LinEq1:  Iter= 14 NonCon=     1 RMS=5.83D-10 Max=5.07D-09
 LinEq1:  Iter= 15 NonCon=     0 RMS=9.32D-11 Max=6.46D-10
 Linear equations converged to 1.000D-10 1.000D-09 after    15 iterations.
 End of Minotr Frequency-dependent properties file   721 does not exist.
 End of Minotr Frequency-dependent properties file   722 does not exist.
 Calling FoFJK, ICntrl=      2127 FMM=F ISym2X=1 I1Cent= 0 IOpClX= 0 NMat=1 NMatS=1 NMatT=0.
 ***** Axes restored to original set *****
 -------------------------------------------------------------------
 Center     Atomic                   Forces (Hartrees/Bohr)
 Number     Number              X              Y              Z
 -------------------------------------------------------------------
      1        7          -0.003265394   -0.001582864    0.000000000
      2        7           0.002043880   -0.000521428    0.000000000
      3        7           0.000602484   -0.001279148    0.000000000
      4        1          -0.000170446   -0.000159788    0.000000000
      5        7           0.000002340    0.001300073    0.000000000
      6        6           0.000823241    0.002112132    0.000000000
      7        1          -0.000036104    0.000131022    0.000000000
 -------------------------------------------------------------------
 Cartesian Forces:  Max     0.003265394 RMS     0.001123745

 GradGradGradGradGradGradGradGradGradGradGradGradGradGradGradGradGradGrad
 Berny optimization.
 Using GEDIIS/GDIIS optimizer.
 Internal  Forces:  Max     0.002289523 RMS     0.000820026
 Search for a local minimum.
 Step number   3 out of a maximum of   36
 All quantities printed in internal units (Hartrees-Bohrs-Radians)
 Mixed Optimization -- En-DIIS/RFO-DIIS
 Update second derivatives using D2CorX and points    1    2    3
 DE= -1.23D-04 DEPred=-1.12D-04 R= 1.10D+00
 SS=  1.41D+00  RLast= 2.32D-02 DXNew= 6.0108D-01 6.9637D-02
 Trust test= 1.10D+00 RLast= 2.32D-02 DXMaxT set to 3.57D-01
 ITU=  1  1  0
 Use linear search instead of GDIIS.
     Eigenvalues ---    0.02506   0.02637   0.02675   0.02834   0.15990
     Eigenvalues ---    0.16018   0.23172   0.29031   0.37682   0.39685
     Eigenvalues ---    0.49174   0.52685   0.64073   0.66405   0.68458
 RFO step:  Lambda=-4.36934450D-05 EMin= 2.50592124D-02
 Quartic linear search produced a step of  0.04223.
 Iteration  1 RMS(Cart)=  0.00230502 RMS(Int)=  0.00000335
 Iteration  2 RMS(Cart)=  0.00000256 RMS(Int)=  0.00000155
 Iteration  3 RMS(Cart)=  0.00000000 RMS(Int)=  0.00000155
 ClnCor:  largest displacement from symmetrization is 6.40D-15 for atom     6.
 Variable       Old X    -DE/DX   Delta X   Delta X   Delta X     New X
                                 (Linear)    (Quad)   (Total)
    R1        2.44791   0.00229   0.00063   0.00533   0.00595   2.45387
    R2        2.58847  -0.00128   0.00029  -0.00107  -0.00078   2.58768
    R3        2.55899  -0.00012   0.00028   0.00091   0.00119   2.56018
    R4        1.90984  -0.00021   0.00004  -0.00017  -0.00014   1.90971
    R5        2.54908  -0.00197  -0.00013  -0.00392  -0.00406   2.54503
    R6        2.48884   0.00070   0.00013   0.00148   0.00162   2.49046
    R7        2.03714  -0.00013  -0.00004  -0.00036  -0.00040   2.03674
    A1        1.94546  -0.00174   0.00010  -0.00564  -0.00554   1.93992
    A2        1.84479   0.00102  -0.00041   0.00407   0.00366   1.84845
    A3        2.09693   0.00046  -0.00024   0.00192   0.00169   2.09862
    A4        1.89906  -0.00071   0.00034  -0.00294  -0.00260   1.89646
    A5        2.28720   0.00025  -0.00011   0.00102   0.00091   2.28811
    A6        1.84235   0.00065  -0.00005   0.00211   0.00205   1.84440
    A7        1.89312   0.00077   0.00002   0.00241   0.00243   1.89555
    A8        2.17810  -0.00042  -0.00003  -0.00150  -0.00152   2.17658
    A9        2.21197  -0.00035   0.00000  -0.00091  -0.00091   2.21106
    D1        0.00000   0.00000   0.00000   0.00000   0.00000   0.00000
    D2        0.00000   0.00000   0.00000   0.00000   0.00000   0.00000
    D3        3.14159   0.00000   0.00000   0.00000   0.00000   3.14159
    D4        0.00000   0.00000   0.00000   0.00000   0.00000   0.00000
    D5        0.00000   0.00000   0.00000   0.00000   0.00000   0.00000
    D6        3.14159   0.00000   0.00000   0.00000   0.00000   3.14159
    D7        3.14159   0.00000   0.00000   0.00000   0.00000   3.14159
    D8        0.00000   0.00000   0.00000   0.00000   0.00000   0.00000
    D9        0.00000   0.00000   0.00000   0.00000   0.00000   0.00000
   D10        3.14159   0.00000   0.00000   0.00000   0.00000   3.14159
         Item               Value     Threshold  Converged?
 Maximum Force            0.002290     0.000015     NO 
 RMS     Force            0.000820     0.000010     NO 
 Maximum Displacement     0.008045     0.000060     NO 
 RMS     Displacement     0.002305     0.000040     NO 
 Predicted change in Energy=-2.203925D-05
 GradGradGradGradGradGradGradGradGradGradGradGradGradGradGradGradGradGrad

                          Input orientation:                          
 ---------------------------------------------------------------------
 Center     Atomic      Atomic             Coordinates (Angstroms)
 Number     Number       Type             X           Y           Z
 ---------------------------------------------------------------------
      1          7           0       -1.071672    0.513987    0.000000
      2          7           0        0.051179    1.166203    0.000000
      3          7           0        1.026700    0.226092    0.000000
      4          1           0        1.999011    0.501537    0.000000
      5          7           0       -0.857430   -0.838491    0.000000
      6          6           0        0.451529   -0.991681    0.000000
      7          1           0        0.990579   -1.924992    0.000000
 ---------------------------------------------------------------------
                    Distance matrix (angstroms):
                    1          2          3          4          5
     1  N    0.000000
     2  N    1.298530   0.000000
     3  N    2.118029   1.354787   0.000000
     4  H    3.070708   2.058113   1.010573   0.000000
     5  N    1.369342   2.200993   2.164090   3.155143   0.000000
     6  C    2.141770   2.194708   1.346772   2.150442   1.317892
     7  H    3.193978   3.230783   2.151387   2.627732   2.143740
                    6          7
     6  C    0.000000
     7  H    1.077796   0.000000
 Stoichiometry    CH2N4
 Framework group  CS[SG(CH2N4)]
 Deg. of freedom    11
 Full point group                 CS      NOp   2
 Largest Abelian subgroup         CS      NOp   2
 Largest concise Abelian subgroup C1      NOp   1
                         Standard orientation:                         
 ---------------------------------------------------------------------
 Center     Atomic      Atomic             Coordinates (Angstroms)
 Number     Number       Type             X           Y           Z
 ---------------------------------------------------------------------
      1          7           0       -0.724364   -0.932560    0.000000
      2          7           0       -1.124854    0.302668    0.000000
      3          7           0        0.000000    1.057753    0.000000
      4          1           0       -0.063987    2.066298    0.000000
      5          7           0        0.642862   -1.008648    0.000000
      6          6           0        1.068915    0.238476    0.000000
      7          1           0        2.094986    0.568361    0.000000
 ---------------------------------------------------------------------
 Rotational constants (GHZ):     10.4458399     10.2845741      5.1822899
 Standard basis: 6-31G(d) (6D, 7F)
 There are    59 symmetry adapted basis functions of A'  symmetry.
 There are    20 symmetry adapted basis functions of A"  symmetry.
 Integral buffers will be    131072 words long.
 Raffenetti 1 integral format.
 Two-electron integral symmetry is turned on.
    79 basis functions,   148 primitive gaussians,    79 cartesian basis functions
    18 alpha electrons       18 beta electrons
       nuclear repulsion energy       166.1452677952 Hartrees.
 NAtoms=    7 NActive=    7 NUniq=    7 SFac= 1.00D+00 NAtFMM=   50 NAOKFM=F Big=F
 One-electron integrals computed using PRISM.
 NBasis=    79 RedAO= T  NBF=    59    20
 NBsUse=    79 1.00D-06 NBFU=    59    20
 Initial guess read from the read-write file.
 B after Tr=     0.000000    0.000000    0.000000
         Rot=    1.000000    0.000000    0.000000    0.000000 Ang=   0.00 deg.
 Initial guess orbital symmetries:
       Occupied  (A') (A') (A') (A') (A') (A') (A') (A') (A') (A')
                 (A') (A') (A") (A') (A") (A') (A') (A")
       Virtual   (A") (A") (A') (A') (A') (A') (A') (A') (A') (A')
                 (A") (A') (A') (A') (A') (A") (A') (A") (A') (A")
                 (A') (A") (A') (A') (A') (A') (A') (A') (A') (A")
                 (A") (A") (A') (A') (A") (A") (A') (A') (A') (A')
                 (A') (A') (A") (A") (A') (A') (A") (A") (A') (A')
                 (A") (A') (A') (A') (A') (A') (A') (A') (A') (A')
                 (A')
 Requested convergence on RMS density matrix=1.00D-08 within 128 cycles.
 Requested convergence on MAX density matrix=1.00D-06.
 Requested convergence on             energy=1.00D-06.
 No special actions if energy rises.
 Keep R1 ints in memory in canonical form, NReq=6087745.
 SCF Done:  E(RB2PLYP) =  -257.745996433     A.U. after   10 cycles
             Convg  =    0.4638D-08             -V/T =  2.0071
 Range of M.O.s used for correlation:     1    79
 NBasis=    79 NAE=    18 NBE=    18 NFC=     0 NFV=     0
 NROrb=     79 NOA=    18 NOB=    18 NVA=    61 NVB=    61
 DoSCS=T DFT=T ScalE2(SS,OS)=  0.270000  0.270000
 Fully direct method using O(ONN) memory.
 JobTyp=1 Pass  1:  I=   1 to  18 NPSUse=  8 ParTrn=T ParDer=T DoDerP=T.
 Spin components of T(2) and E(2):
     alpha-alpha T2 =       0.6096266276D-01 E2=     -0.3767844484D-01
     alpha-beta  T2 =       0.3091426583D+00 E2=     -0.1941836257D+00
     beta-beta   T2 =       0.6096266276D-01 E2=     -0.3767844484D-01
 E2(B2PLYP) =    -0.2695405154D+00 E(B2PLYP) =    -0.25801553694839D+03
          IDoAtm=1111111
          Differentiating once with respect to electric field.
                with respect to dipole field.
          Differentiating once with respect to nuclear coordinates.
          Keep R1 ints in memory in canonical form, NReq=5971245.
          There are     1 degrees of freedom in the 1st order CPHF.  IDoFFX=0.
 LinEq1:  Iter=  0 NonCon=     1 RMS=3.36D-03 Max=3.63D-02
 AX will form     1 AO Fock derivatives at one time.
 LinEq1:  Iter=  1 NonCon=     1 RMS=8.86D-04 Max=6.94D-03
 LinEq1:  Iter=  2 NonCon=     1 RMS=3.83D-04 Max=7.39D-03
 LinEq1:  Iter=  3 NonCon=     1 RMS=1.96D-04 Max=2.13D-03
 LinEq1:  Iter=  4 NonCon=     1 RMS=6.73D-05 Max=7.31D-04
 LinEq1:  Iter=  5 NonCon=     1 RMS=3.83D-05 Max=6.43D-04
 LinEq1:  Iter=  6 NonCon=     1 RMS=1.50D-05 Max=1.42D-04
 LinEq1:  Iter=  7 NonCon=     1 RMS=8.24D-06 Max=1.25D-04
 LinEq1:  Iter=  8 NonCon=     1 RMS=2.96D-06 Max=2.85D-05
 LinEq1:  Iter=  9 NonCon=     1 RMS=1.14D-06 Max=1.52D-05
 LinEq1:  Iter= 10 NonCon=     1 RMS=6.19D-07 Max=7.76D-06
 LinEq1:  Iter= 11 NonCon=     1 RMS=1.16D-07 Max=1.37D-06
 LinEq1:  Iter= 12 NonCon=     1 RMS=1.76D-08 Max=1.89D-07
 LinEq1:  Iter= 13 NonCon=     1 RMS=3.05D-09 Max=2.71D-08
 LinEq1:  Iter= 14 NonCon=     1 RMS=5.92D-10 Max=5.09D-09
 LinEq1:  Iter= 15 NonCon=     0 RMS=9.46D-11 Max=6.42D-10
 Linear equations converged to 1.000D-10 1.000D-09 after    15 iterations.
 End of Minotr Frequency-dependent properties file   721 does not exist.
 End of Minotr Frequency-dependent properties file   722 does not exist.
 Calling FoFJK, ICntrl=      2127 FMM=F ISym2X=1 I1Cent= 0 IOpClX= 0 NMat=1 NMatS=1 NMatT=0.
 ***** Axes restored to original set *****
 -------------------------------------------------------------------
 Center     Atomic                   Forces (Hartrees/Bohr)
 Number     Number              X              Y              Z
 -------------------------------------------------------------------
      1        7           0.001924923   -0.001658619    0.000000000
      2        7           0.000422798    0.000751990    0.000000000
      3        7          -0.001673964    0.000248532    0.000000000
      4        1          -0.000233750    0.000055738    0.000000000
      5        7          -0.000041229    0.000652006    0.000000000
      6        6          -0.000276431    0.000094714    0.000000000
      7        1          -0.000122346   -0.000144362    0.000000000
 -------------------------------------------------------------------
 Cartesian Forces:  Max     0.001924923 RMS     0.000712817

 GradGradGradGradGradGradGradGradGradGradGradGradGradGradGradGradGradGrad
 Berny optimization.
 Using GEDIIS/GDIIS optimizer.
 Internal  Forces:  Max     0.001418013 RMS     0.000569080
 Search for a local minimum.
 Step number   4 out of a maximum of   36
 All quantities printed in internal units (Hartrees-Bohrs-Radians)
 Mixed Optimization -- En-DIIS/RFO-DIIS
 Swaping is turned off.
 Update second derivatives using D2CorX and points    1    2    3    4
 DE= -1.05D-05 DEPred=-2.20D-05 R= 4.76D-01
 Trust test= 4.76D-01 RLast= 1.12D-02 DXMaxT set to 3.57D-01
 ITU=  0  1  1  0
     Eigenvalues ---    0.02506   0.02637   0.02676   0.02835   0.16003
     Eigenvalues ---    0.16019   0.23123   0.30835   0.37781   0.48719
     Eigenvalues ---    0.50744   0.52584   0.61171   0.62730   0.72957
 En-DIIS/RFO-DIIS IScMMF=        0 using points:     4    3
 RFO step:  Lambda=-1.08474949D-05.
 DidBck=T Rises=F RFO-DIIS coefs:    0.65739    0.34261
 Iteration  1 RMS(Cart)=  0.00100437 RMS(Int)=  0.00000099
 Iteration  2 RMS(Cart)=  0.00000064 RMS(Int)=  0.00000062
 ClnCor:  largest displacement from symmetrization is 2.29D-14 for atom     6.
 Variable       Old X    -DE/DX   Delta X   Delta X   Delta X     New X
                                  (DIIS)     (GDIIS)  (Total)
    R1        2.45387  -0.00049  -0.00204   0.00168  -0.00036   2.45350
    R2        2.58768  -0.00107   0.00027  -0.00197  -0.00171   2.58597
    R3        2.56018  -0.00100  -0.00041  -0.00084  -0.00124   2.55894
    R4        1.90971  -0.00021   0.00005  -0.00037  -0.00032   1.90938
    R5        2.54503   0.00009   0.00139  -0.00162  -0.00023   2.54480
    R6        2.49046  -0.00092  -0.00055  -0.00022  -0.00078   2.48968
    R7        2.03674   0.00006   0.00014  -0.00001   0.00013   2.03687
    A1        1.93992   0.00142   0.00190   0.00079   0.00268   1.94260
    A2        1.84845  -0.00134  -0.00125  -0.00136  -0.00262   1.84584
    A3        2.09862  -0.00048  -0.00058  -0.00051  -0.00109   2.09753
    A4        1.89646   0.00074   0.00089   0.00062   0.00151   1.89797
    A5        2.28811  -0.00026  -0.00031  -0.00010  -0.00042   2.28769
    A6        1.84440  -0.00059  -0.00070  -0.00059  -0.00130   1.84310
    A7        1.89555  -0.00022  -0.00083   0.00055  -0.00028   1.89527
    A8        2.17658   0.00029   0.00052   0.00034   0.00086   2.17744
    A9        2.21106  -0.00007   0.00031  -0.00089  -0.00058   2.21048
    D1        0.00000   0.00000   0.00000   0.00000   0.00000   0.00000
    D2        0.00000   0.00000   0.00000   0.00000   0.00000   0.00000
    D3        3.14159   0.00000   0.00000   0.00000   0.00000   3.14159
    D4        0.00000   0.00000   0.00000   0.00000   0.00000   0.00000
    D5        0.00000   0.00000   0.00000   0.00000   0.00000   0.00000
    D6        3.14159   0.00000   0.00000   0.00000   0.00000   3.14159
    D7        3.14159   0.00000   0.00000   0.00000   0.00000   3.14159
    D8        0.00000   0.00000   0.00000   0.00000   0.00000   0.00000
    D9        0.00000   0.00000   0.00000   0.00000   0.00000   0.00000
   D10        3.14159   0.00000   0.00000   0.00000   0.00000   3.14159
         Item               Value     Threshold  Converged?
 Maximum Force            0.001418     0.000015     NO 
 RMS     Force            0.000569     0.000010     NO 
 Maximum Displacement     0.003390     0.000060     NO 
 RMS     Displacement     0.001004     0.000040     NO 
 Predicted change in Energy=-7.096027D-06
 GradGradGradGradGradGradGradGradGradGradGradGradGradGradGradGradGradGrad

                          Input orientation:                          
 ---------------------------------------------------------------------
 Center     Atomic      Atomic             Coordinates (Angstroms)
 Number     Number       Type             X           Y           Z
 ---------------------------------------------------------------------
      1          7           0       -1.069878    0.513067    0.000000
      2          7           0        0.051764    1.166981    0.000000
      3          7           0        1.025856    0.226336    0.000000
      4          1           0        1.997981    0.501810    0.000000
      5          7           0       -0.857244   -0.838750    0.000000
      6          6           0        0.451338   -0.991611    0.000000
      7          1           0        0.990080   -1.925178    0.000000
 ---------------------------------------------------------------------
                    Distance matrix (angstroms):
                    1          2          3          4          5
     1  N    0.000000
     2  N    1.298339   0.000000
     3  N    2.115258   1.354130   0.000000
     4  H    3.067879   2.056748   1.010402   0.000000
     5  N    1.368439   2.202102   2.163441   3.154269   0.000000
     6  C    2.139663   2.195263   1.346650   2.149979   1.317480
     7  H    3.191938   3.231391   2.151812   2.627953   2.143113
                    6          7
     6  C    0.000000
     7  H    1.077864   0.000000
 Stoichiometry    CH2N4
 Framework group  CS[SG(CH2N4)]
 Deg. of freedom    11
 Full point group                 CS      NOp   2
 Largest Abelian subgroup         CS      NOp   2
 Largest concise Abelian subgroup C1      NOp   1
                         Standard orientation:                         
 ---------------------------------------------------------------------
 Center     Atomic      Atomic             Coordinates (Angstroms)
 Number     Number       Type             X           Y           Z
 ---------------------------------------------------------------------
      1          7           0       -0.723587   -0.930918    0.000000
      2          7           0       -1.125422    0.303672    0.000000
      3          7           0        0.000000    1.056728    0.000000
      4          1           0       -0.063590    2.065127    0.000000
      5          7           0        0.642618   -1.009069    0.000000
      6          6           0        1.068845    0.237561    0.000000
      7          1           0        2.095253    0.566617    0.000000
 ---------------------------------------------------------------------
 Rotational constants (GHZ):     10.4677269     10.2775626      5.1858866
 Standard basis: 6-31G(d) (6D, 7F)
 There are    59 symmetry adapted basis functions of A'  symmetry.
 There are    20 symmetry adapted basis functions of A"  symmetry.
 Integral buffers will be    131072 words long.
 Raffenetti 1 integral format.
 Two-electron integral symmetry is turned on.
    79 basis functions,   148 primitive gaussians,    79 cartesian basis functions
    18 alpha electrons       18 beta electrons
       nuclear repulsion energy       166.2021669846 Hartrees.
 NAtoms=    7 NActive=    7 NUniq=    7 SFac= 1.00D+00 NAtFMM=   50 NAOKFM=F Big=F
 One-electron integrals computed using PRISM.
 NBasis=    79 RedAO= T  NBF=    59    20
 NBsUse=    79 1.00D-06 NBFU=    59    20
 Initial guess read from the read-write file.
 B after Tr=     0.000000    0.000000    0.000000
         Rot=    1.000000    0.000000    0.000000    0.000000 Ang=   0.00 deg.
 Initial guess orbital symmetries:
       Occupied  (A') (A') (A') (A') (A') (A') (A') (A') (A') (A')
                 (A') (A') (A") (A') (A") (A') (A') (A")
       Virtual   (A") (A") (A') (A') (A') (A') (A') (A') (A') (A')
                 (A") (A') (A') (A') (A') (A") (A') (A") (A') (A")
                 (A') (A") (A') (A') (A') (A') (A') (A') (A') (A")
                 (A") (A") (A') (A') (A") (A") (A') (A') (A') (A')
                 (A') (A') (A") (A") (A') (A') (A") (A") (A') (A')
                 (A") (A') (A') (A') (A') (A') (A') (A') (A') (A')
                 (A')
 Requested convergence on RMS density matrix=1.00D-08 within 128 cycles.
 Requested convergence on MAX density matrix=1.00D-06.
 Requested convergence on             energy=1.00D-06.
 No special actions if energy rises.
 Keep R1 ints in memory in canonical form, NReq=6087745.
 SCF Done:  E(RB2PLYP) =  -257.746079094     A.U. after    9 cycles
             Convg  =    0.9044D-08             -V/T =  2.0071
 Range of M.O.s used for correlation:     1    79
 NBasis=    79 NAE=    18 NBE=    18 NFC=     0 NFV=     0
 NROrb=     79 NOA=    18 NOB=    18 NVA=    61 NVB=    61
 DoSCS=T DFT=T ScalE2(SS,OS)=  0.270000  0.270000
 Fully direct method using O(ONN) memory.
 JobTyp=1 Pass  1:  I=   1 to  18 NPSUse=  8 ParTrn=T ParDer=T DoDerP=T.
 Spin components of T(2) and E(2):
     alpha-alpha T2 =       0.6091695649D-01 E2=     -0.3767013001D-01
     alpha-beta  T2 =       0.3088800223D+00 E2=     -0.1941253229D+00
     beta-beta   T2 =       0.6091695649D-01 E2=     -0.3767013001D-01
 E2(B2PLYP) =    -0.2694655829D+00 E(B2PLYP) =    -0.25801554467733D+03
          IDoAtm=1111111
          Differentiating once with respect to electric field.
                with respect to dipole field.
          Differentiating once with respect to nuclear coordinates.
          Keep R1 ints in memory in canonical form, NReq=5971245.
          There are     1 degrees of freedom in the 1st order CPHF.  IDoFFX=0.
 LinEq1:  Iter=  0 NonCon=     1 RMS=3.35D-03 Max=3.61D-02
 AX will form     1 AO Fock derivatives at one time.
 LinEq1:  Iter=  1 NonCon=     1 RMS=8.85D-04 Max=6.94D-03
 LinEq1:  Iter=  2 NonCon=     1 RMS=3.82D-04 Max=7.38D-03
 LinEq1:  Iter=  3 NonCon=     1 RMS=1.95D-04 Max=2.12D-03
 LinEq1:  Iter=  4 NonCon=     1 RMS=6.71D-05 Max=7.14D-04
 LinEq1:  Iter=  5 NonCon=     1 RMS=3.87D-05 Max=6.83D-04
 LinEq1:  Iter=  6 NonCon=     1 RMS=1.55D-05 Max=1.52D-04
 LinEq1:  Iter=  7 NonCon=     1 RMS=8.96D-06 Max=1.28D-04
 LinEq1:  Iter=  8 NonCon=     1 RMS=2.98D-06 Max=2.86D-05
 LinEq1:  Iter=  9 NonCon=     1 RMS=1.11D-06 Max=1.42D-05
 LinEq1:  Iter= 10 NonCon=     1 RMS=6.18D-07 Max=7.75D-06
 LinEq1:  Iter= 11 NonCon=     1 RMS=1.16D-07 Max=1.39D-06
 LinEq1:  Iter= 12 NonCon=     1 RMS=1.76D-08 Max=1.89D-07
 LinEq1:  Iter= 13 NonCon=     1 RMS=3.05D-09 Max=2.67D-08
 LinEq1:  Iter= 14 NonCon=     1 RMS=5.91D-10 Max=5.19D-09
 LinEq1:  Iter= 15 NonCon=     0 RMS=9.46D-11 Max=6.34D-10
 Linear equations converged to 1.000D-10 1.000D-09 after    15 iterations.
 End of Minotr Frequency-dependent properties file   721 does not exist.
 End of Minotr Frequency-dependent properties file   722 does not exist.
 Calling FoFJK, ICntrl=      2127 FMM=F ISym2X=1 I1Cent= 0 IOpClX= 0 NMat=1 NMatS=1 NMatT=0.
 ***** Axes restored to original set *****
 -------------------------------------------------------------------
 Center     Atomic                   Forces (Hartrees/Bohr)
 Number     Number              X              Y              Z
 -------------------------------------------------------------------
      1        7           0.000008722   -0.000583484    0.000000000
      2        7           0.000172640   -0.000168815    0.000000000
      3        7          -0.000427579    0.000153671    0.000000000
      4        1          -0.000016037   -0.000026082    0.000000000
      5        7           0.000006561    0.000861369    0.000000000
      6        6           0.000280782   -0.000203164    0.000000000
      7        1          -0.000025089   -0.000033495    0.000000000
 -------------------------------------------------------------------
 Cartesian Forces:  Max     0.000861369 RMS     0.000264582

 GradGradGradGradGradGradGradGradGradGradGradGradGradGradGradGradGradGrad
 Berny optimization.
 Using GEDIIS/GDIIS optimizer.
 Internal  Forces:  Max     0.000610097 RMS     0.000154083
 Search for a local minimum.
 Step number   5 out of a maximum of   36
 All quantities printed in internal units (Hartrees-Bohrs-Radians)
 Mixed Optimization -- En-DIIS/RFO-DIIS
 Swaping is turned off.
 Update second derivatives using D2CorX and points    1    2    3    4    5
 DE= -7.73D-06 DEPred=-7.10D-06 R= 1.09D+00
 SS=  1.41D+00  RLast= 5.09D-03 DXNew= 6.0108D-01 1.5269D-02
 Trust test= 1.09D+00 RLast= 5.09D-03 DXMaxT set to 3.57D-01
 ITU=  1  0  1  1  0
     Eigenvalues ---    0.02506   0.02637   0.02676   0.02834   0.15749
     Eigenvalues ---    0.16040   0.22070   0.34317   0.37873   0.46568
     Eigenvalues ---    0.49878   0.51460   0.54769   0.65473   0.76995
 En-DIIS/RFO-DIIS IScMMF=        0 using points:     5    4    3
 RFO step:  Lambda=-1.06335332D-06.
 DidBck=F Rises=F RFO-DIIS coefs:    1.15603   -0.12234   -0.03369
 Iteration  1 RMS(Cart)=  0.00043079 RMS(Int)=  0.00000014
 Iteration  2 RMS(Cart)=  0.00000015 RMS(Int)=  0.00000005
 ClnCor:  largest displacement from symmetrization is 4.22D-14 for atom     6.
 Variable       Old X    -DE/DX   Delta X   Delta X   Delta X     New X
                                  (DIIS)     (GDIIS)  (Total)
    R1        2.45350  -0.00004   0.00014   0.00007   0.00022   2.45372
    R2        2.58597  -0.00061  -0.00029  -0.00130  -0.00159   2.58438
    R3        2.55894  -0.00023  -0.00015  -0.00042  -0.00057   2.55836
    R4        1.90938  -0.00002  -0.00006  -0.00007  -0.00012   1.90926
    R5        2.54480  -0.00011  -0.00017  -0.00026  -0.00044   2.54436
    R6        2.48968   0.00004  -0.00007   0.00009   0.00002   2.48970
    R7        2.03687   0.00002   0.00001   0.00004   0.00004   2.03691
    A1        1.94260  -0.00005   0.00023  -0.00043  -0.00019   1.94241
    A2        1.84584   0.00000  -0.00028  -0.00013  -0.00042   1.84542
    A3        2.09753  -0.00002  -0.00011  -0.00019  -0.00030   2.09722
    A4        1.89797   0.00008   0.00015   0.00063   0.00078   1.89875
    A5        2.28769  -0.00006  -0.00003  -0.00044  -0.00048   2.28721
    A6        1.84310   0.00024  -0.00013   0.00110   0.00097   1.84407
    A7        1.89527  -0.00026   0.00004  -0.00117  -0.00113   1.89414
    A8        2.17744   0.00017   0.00008   0.00087   0.00095   2.17839
    A9        2.21048   0.00009  -0.00012   0.00030   0.00018   2.21066
    D1        0.00000   0.00000   0.00000   0.00000   0.00000   0.00000
    D2        0.00000   0.00000   0.00000   0.00000   0.00000   0.00000
    D3        3.14159   0.00000   0.00000   0.00000   0.00000   3.14159
    D4        0.00000   0.00000   0.00000   0.00000   0.00000   0.00000
    D5        0.00000   0.00000   0.00000   0.00000   0.00000   0.00000
    D6        3.14159   0.00000   0.00000   0.00000   0.00000   3.14159
    D7        3.14159   0.00000   0.00000   0.00000   0.00000   3.14159
    D8        0.00000   0.00000   0.00000   0.00000   0.00000   0.00000
    D9        0.00000   0.00000   0.00000   0.00000   0.00000   0.00000
   D10        3.14159   0.00000   0.00000   0.00000   0.00000   3.14159
         Item               Value     Threshold  Converged?
 Maximum Force            0.000610     0.000015     NO 
 RMS     Force            0.000154     0.000010     NO 
 Maximum Displacement     0.001308     0.000060     NO 
 RMS     Displacement     0.000431     0.000040     NO 
 Predicted change in Energy=-9.586489D-07
 GradGradGradGradGradGradGradGradGradGradGradGradGradGradGradGradGradGrad

                          Input orientation:                          
 ---------------------------------------------------------------------
 Center     Atomic      Atomic             Coordinates (Angstroms)
 Number     Number       Type             X           Y           Z
 ---------------------------------------------------------------------
      1          7           0       -1.069802    0.512851    0.000000
      2          7           0        0.051834    1.167002    0.000000
      3          7           0        1.025465    0.226314    0.000000
      4          1           0        1.997515    0.501812    0.000000
      5          7           0       -0.856821   -0.838058    0.000000
      6          6           0        0.451679   -0.991723    0.000000
      7          1           0        0.990026   -1.925544    0.000000
 ---------------------------------------------------------------------
                    Distance matrix (angstroms):
                    1          2          3          4          5
     1  N    0.000000
     2  N    1.298453   0.000000
     3  N    2.114769   1.353828   0.000000
     4  H    3.067337   2.056247   1.010337   0.000000
     5  N    1.367596   2.201345   2.162380   3.153171   0.000000
     6  C    2.139778   2.195443   1.346419   2.149479   1.317492
     7  H    3.191968   3.231725   2.152150   2.628135   2.143238
                    6          7
     6  C    0.000000
     7  H    1.077886   0.000000
 Stoichiometry    CH2N4
 Framework group  CS[SG(CH2N4)]
 Deg. of freedom    11
 Full point group                 CS      NOp   2
 Largest Abelian subgroup         CS      NOp   2
 Largest concise Abelian subgroup C1      NOp   1
                         Standard orientation:                         
 ---------------------------------------------------------------------
 Center     Atomic      Atomic             Coordinates (Angstroms)
 Number     Number       Type             X           Y           Z
 ---------------------------------------------------------------------
      1          7           0       -0.723327   -0.930968    0.000000
      2          7           0       -1.125377    0.303672    0.000000
      3          7           0        0.000000    1.056252    0.000000
      4          1           0       -0.063615    2.064585    0.000000
      5          7           0        0.642063   -1.008607    0.000000
      6          6           0        1.069076    0.237766    0.000000
      7          1           0        2.095653    0.566368    0.000000
 ---------------------------------------------------------------------
 Rotational constants (GHZ):     10.4702201     10.2827321      5.1878146
 Standard basis: 6-31G(d) (6D, 7F)
 There are    59 symmetry adapted basis functions of A'  symmetry.
 There are    20 symmetry adapted basis functions of A"  symmetry.
 Integral buffers will be    131072 words long.
 Raffenetti 1 integral format.
 Two-electron integral symmetry is turned on.
    79 basis functions,   148 primitive gaussians,    79 cartesian basis functions
    18 alpha electrons       18 beta electrons
       nuclear repulsion energy       166.2314820794 Hartrees.
 NAtoms=    7 NActive=    7 NUniq=    7 SFac= 1.00D+00 NAtFMM=   50 NAOKFM=F Big=F
 One-electron integrals computed using PRISM.
 NBasis=    79 RedAO= T  NBF=    59    20
 NBsUse=    79 1.00D-06 NBFU=    59    20
 Initial guess read from the read-write file.
 B after Tr=     0.000000    0.000000    0.000000
         Rot=    1.000000    0.000000    0.000000    0.000000 Ang=   0.00 deg.
 Initial guess orbital symmetries:
       Occupied  (A') (A') (A') (A') (A') (A') (A') (A') (A') (A')
                 (A') (A') (A") (A') (A") (A') (A') (A")
       Virtual   (A") (A") (A') (A') (A') (A') (A') (A') (A') (A')
                 (A") (A') (A') (A') (A') (A") (A') (A") (A') (A")
                 (A') (A") (A') (A') (A') (A') (A') (A') (A') (A")
                 (A") (A") (A') (A') (A") (A") (A') (A') (A') (A')
                 (A') (A') (A") (A") (A') (A') (A") (A") (A') (A')
                 (A") (A') (A') (A') (A') (A') (A') (A') (A') (A')
                 (A')
 Requested convergence on RMS density matrix=1.00D-08 within 128 cycles.
 Requested convergence on MAX density matrix=1.00D-06.
 Requested convergence on             energy=1.00D-06.
 No special actions if energy rises.
 Keep R1 ints in memory in canonical form, NReq=6087745.
 SCF Done:  E(RB2PLYP) =  -257.746116157     A.U. after    8 cycles
             Convg  =    0.9925D-08             -V/T =  2.0071
 Range of M.O.s used for correlation:     1    79
 NBasis=    79 NAE=    18 NBE=    18 NFC=     0 NFV=     0
 NROrb=     79 NOA=    18 NOB=    18 NVA=    61 NVB=    61
 DoSCS=T DFT=T ScalE2(SS,OS)=  0.270000  0.270000
 Fully direct method using O(ONN) memory.
 JobTyp=1 Pass  1:  I=   1 to  18 NPSUse=  8 ParTrn=T ParDer=T DoDerP=T.
 Spin components of T(2) and E(2):
     alpha-alpha T2 =       0.6089678722D-01 E2=     -0.3766682318D-01
     alpha-beta  T2 =       0.3087521196D+00 E2=     -0.1940959228D+00
     beta-beta   T2 =       0.6089678722D-01 E2=     -0.3766682318D-01
 E2(B2PLYP) =    -0.2694295692D+00 E(B2PLYP) =    -0.25801554572642D+03
          IDoAtm=1111111
          Differentiating once with respect to electric field.
                with respect to dipole field.
          Differentiating once with respect to nuclear coordinates.
          Keep R1 ints in memory in canonical form, NReq=5971245.
          There are     1 degrees of freedom in the 1st order CPHF.  IDoFFX=0.
 LinEq1:  Iter=  0 NonCon=     1 RMS=3.35D-03 Max=3.60D-02
 AX will form     1 AO Fock derivatives at one time.
 LinEq1:  Iter=  1 NonCon=     1 RMS=8.84D-04 Max=6.94D-03
 LinEq1:  Iter=  2 NonCon=     1 RMS=3.81D-04 Max=7.34D-03
 LinEq1:  Iter=  3 NonCon=     1 RMS=1.95D-04 Max=2.13D-03
 LinEq1:  Iter=  4 NonCon=     1 RMS=6.68D-05 Max=7.06D-04
 LinEq1:  Iter=  5 NonCon=     1 RMS=3.84D-05 Max=6.77D-04
 LinEq1:  Iter=  6 NonCon=     1 RMS=1.54D-05 Max=1.52D-04
 LinEq1:  Iter=  7 NonCon=     1 RMS=8.89D-06 Max=1.27D-04
 LinEq1:  Iter=  8 NonCon=     1 RMS=2.97D-06 Max=2.86D-05
 LinEq1:  Iter=  9 NonCon=     1 RMS=1.09D-06 Max=1.38D-05
 LinEq1:  Iter= 10 NonCon=     1 RMS=6.14D-07 Max=7.76D-06
 LinEq1:  Iter= 11 NonCon=     1 RMS=1.15D-07 Max=1.38D-06
 LinEq1:  Iter= 12 NonCon=     1 RMS=1.75D-08 Max=1.86D-07
 LinEq1:  Iter= 13 NonCon=     1 RMS=3.02D-09 Max=2.66D-08
 LinEq1:  Iter= 14 NonCon=     1 RMS=5.88D-10 Max=5.15D-09
 LinEq1:  Iter= 15 NonCon=     0 RMS=9.40D-11 Max=6.05D-10
 Linear equations converged to 1.000D-10 1.000D-09 after    15 iterations.
 End of Minotr Frequency-dependent properties file   721 does not exist.
 End of Minotr Frequency-dependent properties file   722 does not exist.
 Calling FoFJK, ICntrl=      2127 FMM=F ISym2X=1 I1Cent= 0 IOpClX= 0 NMat=1 NMatS=1 NMatT=0.
 ***** Axes restored to original set *****
 -------------------------------------------------------------------
 Center     Atomic                   Forces (Hartrees/Bohr)
 Number     Number              X              Y              Z
 -------------------------------------------------------------------
      1        7          -0.000045983   -0.000307957    0.000000000
      2        7           0.000142420   -0.000120255    0.000000000
      3        7           0.000088067    0.000250950    0.000000000
      4        1           0.000048808    0.000007063    0.000000000
      5        7          -0.000304016    0.000232412    0.000000000
      6        6           0.000084254   -0.000079388    0.000000000
      7        1          -0.000013550    0.000017175    0.000000000
 -------------------------------------------------------------------
 Cartesian Forces:  Max     0.000307957 RMS     0.000131870

 GradGradGradGradGradGradGradGradGradGradGradGradGradGradGradGradGradGrad
 Berny optimization.
 Using GEDIIS/GDIIS optimizer.
 Internal  Forces:  Max     0.000265948 RMS     0.000091824
 Search for a local minimum.
 Step number   6 out of a maximum of   36
 All quantities printed in internal units (Hartrees-Bohrs-Radians)
 Mixed Optimization -- En-DIIS/RFO-DIIS
 Swaping is turned off.
 Update second derivatives using D2CorX and points    1    2    3    4    5
                                                      6
 DE= -1.05D-06 DEPred=-9.59D-07 R= 1.09D+00
 SS=  1.41D+00  RLast= 2.72D-03 DXNew= 6.0108D-01 8.1742D-03
 Trust test= 1.09D+00 RLast= 2.72D-03 DXMaxT set to 3.57D-01
 ITU=  1  1  0  1  1  0
     Eigenvalues ---    0.02506   0.02637   0.02676   0.02834   0.15212
     Eigenvalues ---    0.16045   0.21411   0.35005   0.37968   0.41007
[...]
   14   14   11    9           -0.000133
   14   14   11   10            0.000629
   14   14   11   11            0.000608
   14   14   12   12            0.012983
   14   14   13   12            0.000520
   14   14   13   13            0.003191
   14   14   14   12           -0.000189
   14   14   14   13            0.007907
   14   14   14   14            0.020010
   15   15    1    1           -0.871509
   15   15    2    1            0.017677
   15   15    2    2           -0.003719
   15   15    3    1           -0.002756
   15   15    3    2            0.000514
   15   15    3    3            0.012764
   15   15    4    1            0.004352
   15   15    4    2           -0.000234
   15   15    4    3           -0.014955
   15   15    4    4            0.014856
   15   15    5    1           -0.009020
   15   15    5    2            0.000172
   15   15    5    3           -0.011720
   15   15    5    4            0.011409
   15   15    5    5            0.006241
   15   15    6    1            0.005758
   15   15    6    3           -0.009198
   15   15    6    4            0.009769
   15   15    6    5            0.007012
   15   15    6    6            0.004244
   15   15    7    1            0.000063
   15   15    7    2            0.000263
   15   15    7    3            0.010518
   15   15    7    4           -0.010523
   15   15    7    5           -0.006683
   15   15    7    6           -0.005743
   15   15    7    7            0.004934
   15   15    8    1           -0.001555
   15   15    8    2            0.000182
   15   15    8    3            0.015385
   15   15    8    4           -0.015855
   15   15    8    5           -0.010713
   15   15    8    6           -0.007400
   15   15    8    7            0.008739
   15   15    8    8            0.013040
   15   15    9    1           -0.002709
   15   15    9    2            0.000059
   15   15    9    3           -0.005669
   15   15    9    4            0.004344
   15   15    9    5            0.003269
   15   15    9    6            0.002813
   15   15    9    7           -0.002935
   15   15    9    8           -0.004641
   15   15    9    9            0.000768
   15   15   10    1            0.001509
   15   15   10    2           -0.000202
   15   15   10    3            0.004096
   15   15   10    4           -0.003247
   15   15   10    5           -0.002694
   15   15   10    6           -0.001765
   15   15   10    7            0.002411
   15   15   10    8            0.004038
   15   15   10    9           -0.001217
   15   15   10   10            0.000289
   15   15   11    1           -0.000432
   15   15   11    2            0.000196
   15   15   11    3            0.008028
   15   15   11    4           -0.007440
   15   15   11    5           -0.005188
   15   15   11    6           -0.004568
   15   15   11    7            0.004811
   15   15   11    8            0.006463
   15   15   11    9           -0.002419
   15   15   11   10            0.001816
   15   15   11   11            0.003147
   15   15   12   12            0.003221
   15   15   13   12            0.002611
   15   15   13   13            0.010510
   15   15   14   12            0.006999
   15   15   14   13            0.025873
   15   15   14   14            0.063653
   15   15   15   12            0.011394
   15   15   15   13            0.046804
   15   15   15   14            0.115775
   15   15   15   15            0.212415
         x   12    1           -0.055486
         x   12    2           -0.289609
         x   12    3            0.496101
         x   12    4            0.540268
         x   12    5           -0.221204
         x   12    6           -0.288595
         x   12    7           -0.324474
         x   12    8           -0.011602
         x   12    9           -0.174969
         x   12   10            0.083263
         x   12   11           -0.316004
         x   13    1           -0.196811
         x   13    2            0.016746
         x   13    3           -0.381635
         x   13    4            0.011877
         x   13    5           -0.020553
         x   13    6           -0.792437
         x   13    7            0.161338
         x   13    8            0.027731
         x   13    9            0.215107
         x   13   10           -0.283877
         x   13   11           -0.182110
         x   14    1           -0.471813
         x   14    2            0.074341
         x   14    3            0.331031
         x   14    4            0.399560
         x   14    5            0.299650
         x   14    6            0.125452
         x   14    7            0.281449
         x   14    8            0.133140
         x   14    9            0.356769
         x   14   10           -0.242212
         x   14   11            0.337961
         x   15    1           -0.845307
         x   15    2           -0.002386
         x   15    3           -0.146857
         x   15    4           -0.214256
         x   15    5           -0.039434
         x   15    6            0.104629
         x   15    7           -0.160349
         x   15    8           -0.150142
         x   15    9           -0.240187
         x   15   10            0.284641
         x   15   11           -0.136056
         y   12    1            0.018863
         y   12    2            0.919946
         y   12    3            0.063635
         y   12    4            0.202612
         y   12    5           -0.217892
         y   12    6           -0.100012
         y   12    7           -0.047197
         y   12    8            0.069497
         y   12    9           -0.073818
         y   12   10            0.194750
         y   12   11           -0.018153
         y   13    1           -0.015982
         y   13    2           -0.021778
         y   13    3           -0.059042
         y   13    4           -0.060104
         y   13    5            0.308707
         y   13    6            0.013520
         y   13    7           -0.108031
         y   13    8            0.895534
         y   13    9           -0.090082
         y   13   10            0.136566
         y   13   11           -0.237220
         y   14    1           -0.030310
         y   14    2           -0.210650
         y   14    3           -0.091996
         y   14    4            0.114001
         y   14    5           -0.438061
         y   14    6           -0.153479
         y   14    7            0.429797
         y   14    8            0.260968
         y   14    9           -0.362602
         y   14   10            0.262068
         y   14   11            0.514592
         y   15    1           -0.059828
         y   15    2            0.047490
         y   15    3            0.642533
         y   15    4           -0.664959
         y   15    5           -0.193034
         y   15    6           -0.248832
         y   15    7            0.034655
         y   15    8            0.113640
         y   15    9            0.131338
         y   15   10           -0.055912
         y   15   11            0.074001
         z    2    1           -0.015693
         z    3    1            0.519675
         z    3    2            0.400096
         z    4    1           -0.498585
         z    4    2            0.451135
         z    4    3           -0.403645
         z    5    1           -0.331445
         z    5    2           -0.314532
         z    5    3            0.247075
         z    5    4            0.265478
         z    6    1           -0.272046
         z    6    2           -0.296804
         z    6    3            0.182722
         z    6    5           -0.206544
         z    7    1            0.265375
         z    7    2           -0.487176
         z    7    3           -0.317014
         z    7    4           -0.055156
         z    7    5            0.027444
         z    7    6           -0.267592
         z    8    1            0.397373
         z    8    2           -0.047549
         z    8    3            0.143970
         z    8    4           -0.019435
         z    8    5           -0.071150
         z    8    6            0.737606
         z    8    7           -0.046950
         z    9    1           -0.112731
         z    9    2           -0.240970
         z    9    3           -0.151614
         z    9    4            0.360245
         z    9    5            0.028899
         z    9    6           -0.074076
         z    9    7           -0.147553
         z    9    8            0.387815
         z   10    1            0.095751
         z   10    2            0.156406
         z   10    3           -0.037902
         z   10    4           -0.407170
         z   10    5           -0.123997
         z   10    6           -0.026343
         z   10    7           -0.701516
         z   10    8           -0.249039
         z   10    9            0.206313
         z   11    1            0.199146
         z   11    2           -0.346673
         z   11    3           -0.379197
         z   11    4           -0.116561
         z   11    5           -0.384316
         z   11    6           -0.152515
         z   11    7            0.014865
         z   11    8           -0.091254
         z   11    9           -0.515252
         z   11   10           -0.426584
 
***************** cut here for DiNa input *****************

 ***** Axes restored to original set *****
 -------------------------------------------------------------------
 Center     Atomic                   Forces (Hartrees/Bohr)
 Number     Number              X              Y              Z
 -------------------------------------------------------------------
      1        7          -0.000004638    0.000002158    0.000000000
      2        7           0.000007818   -0.000001235    0.000000000
      3        7           0.000000268    0.000012748    0.000000000
      4        1           0.000001697   -0.000001867    0.000000000
      5        7          -0.000001774   -0.000000066    0.000000000
      6        6          -0.000005522   -0.000013620    0.000000000
      7        1           0.000002152    0.000001882    0.000000000
 -------------------------------------------------------------------
 Cartesian Forces:  Max     0.000013620 RMS     0.000004806

 GradGradGradGradGradGradGradGradGradGradGradGradGradGradGradGradGradGrad
 Berny optimization.
 Internal  Forces:  Max     0.000009576 RMS     0.000002697
 Search for a local minimum.
 Step number   1 out of a maximum of    2
 All quantities printed in internal units (Hartrees-Bohrs-Radians)
 Second derivative matrix not updated -- analytic derivatives used.
 ITU=  0
     Eigenvalues ---    0.00793   0.02500   0.07148   0.07845   0.10382
     Eigenvalues ---    0.10793   0.19827   0.25028   0.34726   0.38807
     Eigenvalues ---    0.42258   0.46791   0.48309   0.57287   0.62738
 Angle between quadratic step and forces=  35.27 degrees.
 Linear search not attempted -- first point.
 Iteration  1 RMS(Cart)=  0.00001306 RMS(Int)=  0.00000000
 Iteration  2 RMS(Cart)=  0.00000000 RMS(Int)=  0.00000000
 ClnCor:  largest displacement from symmetrization is 1.82D-12 for atom     6.
 Variable       Old X    -DE/DX   Delta X   Delta X   Delta X     New X
                                 (Linear)    (Quad)   (Total)
    R1        2.45411   0.00000   0.00000   0.00001   0.00001   2.45412
    R2        2.58340   0.00000   0.00000   0.00001   0.00001   2.58341
    R3        2.55801   0.00000   0.00000  -0.00002  -0.00002   2.55799
    R4        1.90935   0.00000   0.00000   0.00000   0.00000   1.90936
    R5        2.54462   0.00001   0.00000   0.00003   0.00003   2.54465
    R6        2.49016   0.00000   0.00000   0.00000   0.00000   2.49016
    R7        2.03685   0.00000   0.00000   0.00000   0.00000   2.03685
    A1        1.94253   0.00000   0.00000   0.00000   0.00000   1.94253
    A2        1.84551   0.00000   0.00000   0.00001   0.00001   1.84551
    A3        2.09737   0.00000   0.00000   0.00001   0.00001   2.09739
    A4        1.89858   0.00000   0.00000   0.00000   0.00000   1.89859
    A5        2.28723   0.00000   0.00000  -0.00002  -0.00002   2.28721
    A6        1.84411   0.00000   0.00000   0.00000   0.00000   1.84412
    A7        1.89405   0.00000   0.00000  -0.00001  -0.00001   1.89404
    A8        2.17851   0.00000   0.00000  -0.00004  -0.00004   2.17848
    A9        2.21063   0.00000   0.00000   0.00004   0.00004   2.21067
    D1        0.00000   0.00000   0.00000   0.00000   0.00000   0.00000
    D2        0.00000   0.00000   0.00000   0.00000   0.00000   0.00000
    D3        3.14159   0.00000   0.00000   0.00000   0.00000   3.14159
    D4        0.00000   0.00000   0.00000   0.00000   0.00000   0.00000
    D5        0.00000   0.00000   0.00000   0.00000   0.00000   0.00000
    D6        3.14159   0.00000   0.00000   0.00000   0.00000   3.14159
    D7        3.14159   0.00000   0.00000   0.00000   0.00000   3.14159
    D8        0.00000   0.00000   0.00000   0.00000   0.00000   0.00000
    D9        0.00000   0.00000   0.00000   0.00000   0.00000   0.00000
   D10        3.14159   0.00000   0.00000   0.00000   0.00000   3.14159
         Item               Value     Threshold  Converged?
 Maximum Force            0.000010     0.000015     YES
 RMS     Force            0.000003     0.000010     YES
 Maximum Displacement     0.000043     0.000060     YES
 RMS     Displacement     0.000013     0.000040     YES
 Predicted change in Energy=-4.107679D-10
 Optimization completed.
    -- Stationary point found.
                           ----------------------------
                           !   Optimized Parameters   !
                           ! (Angstroms and Degrees)  !
 --------------------------                            --------------------------
 ! Name  Definition              Value          Derivative Info.                !
 --------------------------------------------------------------------------------
 ! R1    R(1,2)                  1.2987         -DE/DX =    0.0                 !
 ! R2    R(1,5)                  1.3671         -DE/DX =    0.0                 !
 ! R3    R(2,3)                  1.3536         -DE/DX =    0.0                 !
 ! R4    R(3,4)                  1.0104         -DE/DX =    0.0                 !
 ! R5    R(3,6)                  1.3466         -DE/DX =    0.0                 !
 ! R6    R(5,6)                  1.3177         -DE/DX =    0.0                 !
 ! R7    R(6,7)                  1.0779         -DE/DX =    0.0                 !
 ! A1    A(2,1,5)              111.2988         -DE/DX =    0.0                 !
 ! A2    A(1,2,3)              105.7397         -DE/DX =    0.0                 !
 ! A3    A(2,3,4)              120.1706         -DE/DX =    0.0                 !
 ! A4    A(2,3,6)              108.7807         -DE/DX =    0.0                 !
 ! A5    A(4,3,6)              131.0487         -DE/DX =    0.0                 !
 ! A6    A(1,5,6)              105.6599         -DE/DX =    0.0                 !
 ! A7    A(3,6,5)              108.5209         -DE/DX =    0.0                 !
 ! A8    A(3,6,7)              124.8195         -DE/DX =    0.0                 !
 ! A9    A(5,6,7)              126.6596         -DE/DX =    0.0                 !
 ! D1    D(5,1,2,3)              0.0            -DE/DX =    0.0                 !
 ! D2    D(2,1,5,6)              0.0            -DE/DX =    0.0                 !
 ! D3    D(1,2,3,4)            180.0            -DE/DX =    0.0                 !
 ! D4    D(1,2,3,6)              0.0            -DE/DX =    0.0                 !
 ! D5    D(2,3,6,5)              0.0            -DE/DX =    0.0                 !
 ! D6    D(2,3,6,7)            180.0            -DE/DX =    0.0                 !
 ! D7    D(4,3,6,5)            180.0            -DE/DX =    0.0                 !
 ! D8    D(4,3,6,7)              0.0            -DE/DX =    0.0                 !
 ! D9    D(1,5,6,3)              0.0            -DE/DX =    0.0                 !
 ! D10   D(1,5,6,7)            180.0            -DE/DX =    0.0                 !
 --------------------------------------------------------------------------------
 GradGradGradGradGradGradGradGradGradGradGradGradGradGradGradGradGradGrad

 1\1\GINC-N354\Freq\RB2PLYP-Full\6-31G(d)\C1H2N4\RDJ3\19-Jul-2012\0\\#N
  Geom=AllCheck Guess=TCheck SCRF=Check GenChk RB2PLYP-Full/6-31G(d) Fr
 eq\\1H tetrazole c CH-NH-N=N-N= casno=288948 method=79 basis=1\\0,1\N,
 -1.0698424106,0.5125367618,0.\N,0.0519309814,1.1668592937,0.\N,1.02556
 56157,0.226446189,0.\H,1.997663575,0.5019574589,0.\N,-0.8570245849,-0.
 8378710486,0.\C,0.4517005238,-0.9917043538,0.\H,0.9899027107,-1.925569
 7808,0.\\Version=EM64L-G09RevB.01\State=1-A'\HF=-257.7461148\MP2=-258.
 015546\RMSD=1.426e-09\RMSF=4.806e-06\ZeroPoint=0.0470723\Thermal=0.050
 5497\Dipole=2.0544311,-0.5646847,0.\DipoleDeriv=-0.1618343,0.0671433,0
 .,-0.0176234,0.2037424,0.,0.,0.,-0.1558433,0.2617179,-0.2372807,0.,-0.
 2423521,-0.3145499,0.,0.,0.,-0.0956604,-0.5341533,-0.0132527,0.,0.0516
 524,-0.0654783,0.,0.,0.,-0.1678926,0.2716887,0.03529,0.,0.0231424,0.21
 72482,0.,0.,0.,0.3557278,-0.271807,0.0726034,0.,-0.0364657,-0.4071769,
 0.,0.,0.,-0.2063217,0.3492129,0.0422194,0.,0.1896074,0.2812719,0.,0.,0
 .,0.106172,0.0851751,0.0332773,0.,0.032039,0.0849426,0.,0.,0.,0.163818
 2\Polar=37.3593964,-1.0532189,37.0114259,0.,0.,15.4527864\Quadrupole=1
 .6561291,-1.2301002,-0.4260289,-0.8172997,0.,0.\PG=CS [SG(C1H2N4)]\NIm
 ag=0\\0.59047128,-0.02091641,0.40709539,0.,0.,0.12311508,-0.27172621,-
 0.13148737,0.,0.45120224,-0.05847972,-0.16365904,0.,0.06575791,0.55770
 881,0.,0.,-0.09575199,0.,0.,0.11328190,-0.15671868,-0.02636555,0.,-0.1
 3814090,0.03492033,0.,0.95499792,0.04343448,-0.01366665,0.,0.07617657,
 -0.19769978,0.,0.17800483,0.63507137,0.,0.,0.02598645,0.,0.,-0.0668141
 0,0.,0.,0.08848846,-0.00306362,0.00215150,0.,-0.01288656,-0.01262556,0
 .,-0.43414912,-0.10672935,0.,0.44725257,0.01171246,-0.00656669,0.,0.02
 319512,0.01946792,0.,-0.11437379,-0.10573227,0.,0.11060038,0.09093554,
 0.,0.,0.00805024,0.,0.,-0.01244921,0.,0.,-0.00610911,0.,0.,0.01365714,
 -0.10770565,0.05282361,0.,-0.01628494,-0.00020885,0.,-0.08706170,-0.10
 344505,0.,0.00125600,-0.00706721,0.,0.60399719,0.00115881,-0.17768799,
 0.,-0.09712520,-0.10742779,0.,0.00528657,0.00208385,0.,0.00318255,-0.0
 0790601,0.,0.03933587,0.39931155,0.,0.,-0.08926793,0.,0.,0.03534019,0.
 ,0.,0.02031254,0.,0.,0.00761830,0.,0.,0.10862444,-0.04553470,0.1205858
 6,0.,-0.00731846,-0.02429093,0.,-0.15452121,-0.06752605,0.,0.00184596,
 -0.02444438,0.,-0.38766211,0.02034283,0.,0.72738358,0.02631287,-0.0462
 8768,0.,0.06491335,-0.10662186,0.,-0.09309032,-0.30479252,0.,0.0037079
 0,0.01043073,0.,0.01904910,-0.11518075,0.,-0.15999666,0.86004686,0.,0.
 ,0.01882268,0.,0.,0.02002552,0.,0.,-0.05829443,0.,0.,-0.01008570,0.,0.
 ,-0.07710608,0.,0.,0.13491266,-0.00572242,0.00320835,0.,-0.00484516,-0
 .00507319,0.,0.01559369,-0.01991544,0.,-0.00025522,0.00037741,0.,-0.00
 653878,0.02781857,0.,-0.13419307,0.13910376,0.,0.13596098,-0.00322249,
 0.00077265,0.,-0.00143039,-0.00176827,0.,0.01561793,-0.01526399,0.,-0.
 00028743,-0.00062921,0.,-0.00048748,0.00680714,0.,0.13532933,-0.297594
 78,0.,-0.14551947,0.30767646,0.,0.,0.00904547,0.,0.,0.00636768,0.,0.,-
 0.00356980,0.,0.,-0.00068166,0.,0.,-0.00552146,0.,0.,-0.02827465,0.,0.
 ,0.02263443\\0.00000464,-0.00000216,0.,-0.00000782,0.00000124,0.,-0.00
 000027,-0.00001275,0.,-0.00000170,0.00000187,0.,0.00000177,0.00000007,
 0.,0.00000552,0.00001362,0.,-0.00000215,-0.00000188,0.\\\@


 GARLIC THEN HAVE POWER TO SAVE FROM DEATH
 BEAR WITH IT THOUGH IT MAKETH UNSAVORY BREATH,
 AND SCORN NOT GARLIC LIKE SOME THAT THINK
 IT ONLY MAKETH MEN WINK AND DRINK AND STINK.
   --  SIR JOHN HARRINGTON,
       "THE ENGLISHMAN'S DOCTOR", 1609
 Job cpu time:  0 days  6 hours 36 minutes 58.3 seconds.
 File lengths (MBytes):  RWF=    367 Int=      0 D2E=      0 Chk=     39 Scr=      1
 Normal termination of Gaussian 09 at Thu Jul 19 13:46:04 2012.
