 Entering Gaussian System, Link 0=g98
 Initial command:
 /usr/local/apps/g98a6/g98/l1.exe /wrk/rdj3/Gau-15286.inp -scrdir=/wrk/rdj3/
 Entering Link 1 = /usr/local/apps/g98a6/g98/l1.exe PID=     15392.
  
 Copyright (c) 1988,1990,1992,1993,1995,1998 Gaussian, Inc.
                  All Rights Reserved.
  
 This is part of the Gaussian(R) 98 program.  It is based on
 the Gaussian 94(TM) system (copyright 1995 Gaussian, Inc.),
 the Gaussian 92(TM) system (copyright 1992 Gaussian, Inc.),
 the Gaussian 90(TM) system (copyright 1990 Gaussian, Inc.),
 the Gaussian 88(TM) system (copyright 1988 Gaussian, Inc.),
 the Gaussian 86(TM) system (copyright 1986 Carnegie Mellon
 University), and the Gaussian 82(TM) system (copyright 1983
 Carnegie Mellon University). Gaussian is a federally registered
 trademark of Gaussian, Inc.
  
 This software contains proprietary and confidential information,
 including trade secrets, belonging to Gaussian, Inc.
  
 This software is provided under written license and may be
 used, copied, transmitted, or stored only in accord with that
 written license.
  
 The following legend is applicable only to US Government
 contracts under DFARS:
  
                    RESTRICTED RIGHTS LEGEND
  
 Use, duplication or disclosure by the US Government is subject
 to restrictions as set forth in subparagraph (c)(1)(ii) of the
 Rights in Technical Data and Computer Software clause at DFARS
 252.227-7013.
  
 Gaussian, Inc.
 Carnegie Office Park, Building 6, Pittsburgh, PA 15106 USA
  
 The following legend is applicable only to US Government
 contracts under FAR:
  
                    RESTRICTED RIGHTS LEGEND
  
 Use, reproduction and disclosure by the US Government is subject
 to restrictions as set forth in subparagraph (c) of the
 Commercial Computer Software - Restricted Rights clause at FAR
 52.227-19.
  
 Gaussian, Inc.
 Carnegie Office Park, Building 6, Pittsburgh, PA 15106 USA
  
  
 ---------------------------------------------------------------
 Warning -- This program may not be used in any manner that
 competes with the business of Gaussian, Inc. or will provide
 assistance to any competitor of Gaussian, Inc.  The licensee
 of this program is prohibited from giving any competitor of
 Gaussian, Inc. access to this program.  By using this program,
 the user acknowledges that Gaussian, Inc. is engaged in the
 business of creating and licensing software in the field of
 computational chemistry and represents and warrants to the
 licensee that it is not a competitor of Gaussian, Inc. and that
 it will not use this program in any manner prohibited above.
 ---------------------------------------------------------------
  

 Cite this work as:
 Gaussian 98, Revision A.6,
 M. J. Frisch, G. W. Trucks, H. B. Schlegel, G. E. Scuseria, 
 M. A. Robb, J. R. Cheeseman, V. G. Zakrzewski, J. A. Montgomery, Jr., 
 R. E. Stratmann, J. C. Burant, S. Dapprich, J. M. Millam, 
 A. D. Daniels, K. N. Kudin, M. C. Strain, O. Farkas, J. Tomasi, 
 V. Barone, M. Cossi, R. Cammi, B. Mennucci, C. Pomelli, C. Adamo, 
 S. Clifford, J. Ochterski, G. A. Petersson, P. Y. Ayala, Q. Cui, 
 K. Morokuma, D. K. Malick, A. D. Rabuck, K. Raghavachari, 
 J. B. Foresman, J. Cioslowski, J. V. Ortiz, B. B. Stefanov, G. Liu, 
 A. Liashenko, P. Piskorz, I. Komaromi, R. Gomperts, R. L. Martin, 
 D. J. Fox, T. Keith, M. A. Al-Laham, C. Y. Peng, A. Nanayakkara, 
 C. Gonzalez, M. Challacombe, P. M. W. Gill, B. Johnson, W. Chen, 
 M. W. Wong, J. L. Andres, C. Gonzalez, M. Head-Gordon, 
 E. S. Replogle, and J. A. Pople, 
 Gaussian, Inc., Pittsburgh PA, 1998.

 **********************************************
 Gaussian 98:  IBM-RS6000-G98RevA.6 19-Oct-1998
                  27-Oct-2000 
 **********************************************
 %mem=24000000
 -----------------------
 #B3LYP/LANL2DZ opt freq
 -----------------------
 1/14=-1,18=20,26=3,38=1/1,3;
 2/9=110,17=6,18=5/2;
 3/5=6,6=3,11=2,16=1,25=1,30=1/1,2,3;
 4/11=1/1;
 5/5=2,38=4,42=-5/2;
 6/7=2,8=2,9=2,10=2,28=1/1;
 7//1,2,3,16;
 1/14=-1,18=20/3(1);
 99//99;
 2/9=110/2;
 3/5=6,6=3,11=2,16=1,25=1,30=1/1,2,3;
 4/5=5,11=1,16=2/1;
 5/5=2,38=4,42=-5/2;
 7//1,2,3,16;
 1/14=-1,18=20/3(-5);
 2/9=110/2;
 6/7=2,8=2,9=2,10=2,19=2,28=1/1;
 99/9=1/99;
 ----------------------------------------
 1H tetrazole c CH-NH-N=N-N= casno=288948
 ----------------------------------------
 Symbolic Z-matrix:
 Charge =  0 Multiplicity = 1
 7                    -1.12329  -0.25456   0. 
 7                    -0.67158   0.91328   0. 
 7                     0.65055   0.80984   0. 
 1                     1.224     1.62189   0. 
 7                    -0.13465  -1.16105   0. 
 6                     0.96218  -0.48332   0. 
 1                     1.95569  -0.87454   0. 

 GradGradGradGradGradGradGradGradGradGradGradGradGradGradGradGradGradGrad
 Berny optimization.
 Initialization pass.
                         ----------------------------
                         !    Initial Parameters    !
                         ! (Angstroms and Degrees)  !
 ------------------------                            -------------------------
 ! Name  Definition              Value          Derivative Info.             !
 -----------------------------------------------------------------------------
 ! R1    R(1,2)                  1.2522         estimate D2E/DX2             !
 ! R2    R(1,5)                  1.3413         estimate D2E/DX2             !
 ! R3    R(2,3)                  1.3262         estimate D2E/DX2             !
 ! R4    R(3,4)                  0.9941         estimate D2E/DX2             !
 ! R5    R(3,6)                  1.3302         estimate D2E/DX2             !
 ! R6    R(5,6)                  1.2893         estimate D2E/DX2             !
 ! R7    R(6,7)                  1.0678         estimate D2E/DX2             !
 ! A1    A(2,1,5)              111.3714         estimate D2E/DX2             !
 ! A2    A(1,2,3)              106.673          estimate D2E/DX2             !
 ! A3    A(2,3,4)              120.7559         estimate D2E/DX2             !
 ! A4    A(2,3,6)              108.0227         estimate D2E/DX2             !
 ! A5    A(4,3,6)              131.2214         estimate D2E/DX2             !
 ! A6    A(1,5,6)              105.77           estimate D2E/DX2             !
 ! A7    A(3,6,5)              108.1628         estimate D2E/DX2             !
 ! A8    A(3,6,7)              125.0426         estimate D2E/DX2             !
 ! A9    A(5,6,7)              126.7945         estimate D2E/DX2             !
 ! D1    D(5,1,2,3)              0.             estimate D2E/DX2             !
 ! D2    D(2,1,5,6)              0.             estimate D2E/DX2             !
 ! D3    D(1,2,3,4)            180.             estimate D2E/DX2             !
 ! D4    D(1,2,3,6)              0.             estimate D2E/DX2             !
 ! D5    D(2,3,6,5)              0.             estimate D2E/DX2             !
 ! D6    D(2,3,6,7)            180.             estimate D2E/DX2             !
 ! D7    D(4,3,6,5)            180.             estimate D2E/DX2             !
 ! D8    D(4,3,6,7)              0.             estimate D2E/DX2             !
 ! D9    D(1,5,6,3)              0.             estimate D2E/DX2             !
 ! D10   D(1,5,6,7)            180.             estimate D2E/DX2             !
 -----------------------------------------------------------------------------
 Trust Radius=3.00D-01 FncErr=1.00D-07 GrdErr=1.00D-06
 Number of steps in this run=  36 maximum allowed number of steps= 100.
 GradGradGradGradGradGradGradGradGradGradGradGradGradGradGradGradGradGrad

                          Input orientation:                          
 ---------------------------------------------------------------------
 Center     Atomic     Atomic              Coordinates (Angstroms)
 Number     Number      Type              X           Y           Z
 ---------------------------------------------------------------------
    1          7             0       -1.123293   -0.254560    0.000000
    2          7             0       -0.671576    0.913277    0.000000
    3          7             0        0.650545    0.809842    0.000000
    4          1             0        1.224004    1.621891    0.000000
    5          7             0       -0.134646   -1.161053    0.000000
    6          6             0        0.962183   -0.483316    0.000000
    7          1             0        1.955691   -0.874535    0.000000
 ---------------------------------------------------------------------
                    Distance matrix (angstroms):
                    1          2          3          4          5
     1  N    0.000000
     2  N    1.252155   0.000000
     3  N    2.068684   1.326161   0.000000
     4  H    3.005141   2.023699   0.994122   0.000000
     5  N    1.341325   2.142694   2.121545   3.096887   0.000000
     6  C    2.097985   2.149335   1.330179   2.121426   1.289326
     7  H    3.140782   3.177861   2.130852   2.601444   2.109882
                    6          7
     6  C    0.000000
     7  H    1.067760   0.000000
 Stoichiometry    CH2N4
 Framework group  CS[SG(CH2N4)]
 Deg. of freedom   11
 Full point group                 CS      NOp   2
 Largest Abelian subgroup         CS      NOp   2
 Largest concise Abelian subgroup C1      NOp   1
                         Standard orientation:                         
 ---------------------------------------------------------------------
 Center     Atomic     Atomic              Coordinates (Angstroms)
 Number     Number      Type              X           Y           Z
 ---------------------------------------------------------------------
    1          7             0       -0.716312   -0.901934    0.000000
    2          7             0       -1.095520    0.291420    0.000000
    3          7             0        0.000000    1.038775    0.000000
    4          1             0       -0.061479    2.030994    0.000000
    5          7             0        0.622151   -0.989495    0.000000
    6          6             0        1.052813    0.225779    0.000000
    7          1             0        2.072370    0.542976    0.000000
 ---------------------------------------------------------------------
 Rotational constants (GHZ):     10.9198679     10.7343949      5.4131685
 Isotopes: N-14,N-14,N-14,H-1,N-14,C-12,H-1
 Standard basis: LANL2DZ (5D, 7F)
 There are    39 symmetry adapted basis functions of A'  symmetry.
 There are    10 symmetry adapted basis functions of A"  symmetry.
 Crude estimate of integral set expansion from redundant integrals=1.000.
 Integral buffers will be    262144 words long.
 Raffenetti 2 integral format.
 Two-electron integral symmetry is turned on.
    49 basis functions      133 primitive gaussians
    18 alpha electrons       18 beta electrons
       nuclear repulsion energy       169.8288422228 Hartrees.
 One-electron integrals computed using PRISM.
   1 Symmetry operations used in ECPInt.
 ECPInt:  NShTT=     435 NPrTT=    3632 LenC2=     436 LenP2D=    2877.
 LDataN:  DoStor=F MaxTD1= 2 Len=   12
 LDataN:  DoStor=T MaxTD1= 2 Len=   12
 NBasis=    49 RedAO= T  NBF=    39    10
 NBsUse=    49 1.00D-04 NBFU=    39    10
 Projected Huckel Guess.
 Initial guess orbital symmetries:
       Occupied  (A') (A') (A') (A') (A') (A') (A') (A') (A') (A')
                 (A') (A") (A') (A") (A') (A") (A') (A')
       Virtual   (A") (A") (A') (A') (A') (A') (A') (A') (A') (A')
                 (A') (A') (A') (A') (A') (A') (A') (A') (A') (A')
                 (A') (A') (A') (A') (A') (A') (A") (A") (A") (A")
                 (A")
 Requested convergence on RMS density matrix=1.00D-08 within  64 cycles.
 Requested convergence on MAX density matrix=1.00D-06.
 Keep R1 and R2 integrals in memory in canonical form, NReq=     1914429.
 Integral accuracy reduced to 1.0D-05 until final iterations.
 Initial convergence to 1.0D-05 achieved.  Increase integral accuracy.
 SCF Done:  E(RB+HF-LYP) =  -258.163752812     A.U. after   17 cycles
             Convg  =    0.5668D-08             -V/T =  2.0019
             S**2   =   0.0000

 **********************************************************************

            Population analysis using the SCF density.

 **********************************************************************

 Orbital Symmetries:
       Occupied  (A') (A') (A') (A') (A') (A') (A') (A') (A') (A')
                 (A') (A") (A') (A') (A") (A") (A') (A')
       Virtual   (A") (A") (A') (A') (A') (A') (A') (A") (A') (A')
                 (A') (A") (A') (A') (A") (A') (A') (A') (A") (A')
                 (A") (A') (A') (A') (A') (A') (A') (A') (A') (A')
                 (A')
  The electronic state is 1-A'.
 Alpha  occ. eigenvalues --  -14.45462 -14.42994 -14.40756 -14.38016 -10.29728
 Alpha  occ. eigenvalues --   -1.22687  -0.99484  -0.94984  -0.71276  -0.70166
 Alpha  occ. eigenvalues --   -0.63052  -0.53619  -0.52705  -0.38818  -0.35948
 Alpha  occ. eigenvalues --   -0.34020  -0.30787  -0.28578
 Alpha virt. eigenvalues --   -0.03439   0.00533   0.05850   0.11656   0.15249
 Alpha virt. eigenvalues --    0.17053   0.25732   0.27012   0.30903   0.34561
 Alpha virt. eigenvalues --    0.37038   0.45910   0.46544   0.49236   0.49294
 Alpha virt. eigenvalues --    0.49521   0.53763   0.54567   0.58347   0.60635
 Alpha virt. eigenvalues --    0.61891   0.65930   0.74695   0.79072   0.84191
 Alpha virt. eigenvalues --    1.02035   1.06074   1.25606   1.34211   1.51431
 Alpha virt. eigenvalues --    1.56640
          Condensed to atoms (all electrons):
              1          2          3          4          5          6
  1  N    6.602973   0.392376  -0.091063   0.016602   0.362569  -0.218208
  2  N    0.392376   6.710227   0.209793  -0.013119  -0.140530  -0.153444
  3  N   -0.091063   0.209793   6.785091   0.202623  -0.080395   0.296678
  4  H    0.016602  -0.013119   0.202623   0.485217   0.010043  -0.062222
  5  N    0.362569  -0.140530  -0.080395   0.010043   6.444223   0.481452
  6  C   -0.218208  -0.153444   0.296678  -0.062222   0.481452   5.519074
  7  H    0.005222   0.001527  -0.014329   0.003004  -0.010397   0.333171
              7
  1  N    0.005222
  2  N    0.001527
  3  N   -0.014329
  4  H    0.003004
  5  N   -0.010397
  6  C    0.333171
  7  H    0.390488
 Total atomic charges:
              1
  1  N   -0.070471
  2  N   -0.006832
  3  N   -0.308397
  4  H    0.357852
  5  N   -0.066965
  6  C   -0.196501
  7  H    0.291314
 Sum of Mulliken charges=   0.00000
 Atomic charges with hydrogens summed into heavy atoms:
              1
  1  N   -0.070471
  2  N   -0.006832
  3  N    0.049455
  4  H    0.000000
  5  N   -0.066965
  6  C    0.094813
  7  H    0.000000
 Sum of Mulliken charges=   0.00000
 Electronic spatial extent (au):  <R**2>=   246.1691
 Charge=     0.0000 electrons
 Dipole moment (Debye):
    X=     2.7487    Y=     5.2349    Z=     0.0000  Tot=     5.9126
 Quadrupole moment (Debye-Ang):
   XX=   -30.1179   YY=   -27.5858   ZZ=   -28.0892
   XY=     1.9378   XZ=     0.0000   YZ=     0.0000
 Octapole moment (Debye-Ang**2):
  XXX=    12.9801  YYY=    23.8341  ZZZ=     0.0000  XYY=    -0.5218
  XXY=     5.1722  XXZ=     0.0000  XZZ=    -0.8643  YZZ=     0.5112
  YYZ=     0.0000  XYZ=     0.0000
 Hexadecapole moment (Debye-Ang**3):
 XXXX=  -140.6702 YYYY=  -119.7623 ZZZZ=   -25.2459 XXXY=     7.0878
 XXXZ=     0.0000 YYYX=    -0.3354 YYYZ=     0.0000 ZZZX=     0.0000
 ZZZY=     0.0000 XXYY=   -53.4056 XXZZ=   -29.8358 YYZZ=   -28.1685
 XXYZ=     0.0000 YYXZ=     0.0000 ZZXY=    -0.0854
 N-N= 1.698288422228D+02 E-N=-9.421257979566D+02  KE= 2.576853400191D+02
 Symmetry A'   KE= 2.480373672424D+02
 Symmetry A"   KE= 9.647972776680D+00
   2 Symmetry operations used in ECPInt.
 ECPInt:  NShTT=     435 NPrTT=    3632 LenC2=     436 LenP2D=    2877.
 LDataN:  DoStor=F MaxTD1= 3 Len=   28
 LDataN:  DoStor=T MaxTD1= 3 Len=   28
 ***** Axes restored to original set *****
 -------------------------------------------------------------------
 Center     Atomic                   Forces (Hartrees/Bohr)
 Number     Number              X              Y              Z
 -------------------------------------------------------------------
    1          7          -0.087379225   -0.052215517    0.000000000
    2          7          -0.027344800    0.096523881    0.000000000
    3          7           0.044257855    0.026059738    0.000000000
    4          1           0.007620972    0.012334319    0.000000000
    5          7          -0.010460420   -0.070200687    0.000000000
    6          6           0.067790822   -0.009176611    0.000000000
    7          1           0.005514796   -0.003325123    0.000000000
 -------------------------------------------------------------------
 Cartesian Forces:  Max     0.096523881 RMS     0.039661125

 GradGradGradGradGradGradGradGradGradGradGradGradGradGradGradGradGradGrad
 Berny optimization.
 Internal  Forces:  Max     0.094731359 RMS     0.030848184
 Search for a local minimum.
 Step number   1 out of a maximum of  36
 All quantities printed in internal units (Hartrees-Bohrs-Radians)
 Second derivative matrix not updated -- first step.
     Eigenvalues ---    0.02505   0.02639   0.02674   0.02834   0.16000
     Eigenvalues ---    0.16000   0.22605   0.24688   0.37515   0.48737
     Eigenvalues ---    0.50885   0.56605   0.58506   0.66912   0.78894
     Eigenvalues --- 1000.000001000.000001000.000001000.000001000.00000
     Eigenvalues --- 1000.000001000.000001000.000001000.000001000.00000
     Eigenvalues --- 1000.00000
 RFO step:  Lambda=-3.48413522D-02.
 Linear search not attempted -- first point.
 Iteration  1 RMS(Cart)=  0.04503934 RMS(Int)=  0.00030388
 Iteration  2 RMS(Cart)=  0.00026063 RMS(Int)=  0.00012795
 Iteration  3 RMS(Cart)=  0.00000007 RMS(Int)=  0.00012795
 Variable       Old X    -DE/DX   Delta X   Delta X   Delta X     New X
                                 (Linear)    (Quad)   (Total)
    R1        2.36623   0.09473   0.00000   0.11351   0.11368   2.47991
    R2        2.53474   0.05974   0.00000   0.10173   0.10186   2.63660
    R3        2.50608   0.06597   0.00000   0.10341   0.10339   2.60947
    R4        1.87862   0.01447   0.00000   0.02771   0.02771   1.90633
    R5        2.51367   0.04991   0.00000   0.07497   0.07478   2.58846
    R6        2.43647   0.06954   0.00000   0.09187   0.09178   2.52825
    R7        2.01777   0.00635   0.00000   0.01549   0.01549   2.03326
    A1        1.94380  -0.01243   0.00000  -0.02644  -0.02609   1.91771
    A2        1.86179  -0.00254   0.00000   0.00228   0.00244   1.86424
    A3        2.10759  -0.00351   0.00000  -0.00946  -0.00935   2.09823
    A4        1.88535   0.00534   0.00000   0.01031   0.01009   1.89544
    A5        2.29025  -0.00183   0.00000  -0.00085  -0.00074   2.28951
    A6        1.84604   0.00734   0.00000   0.02205   0.02204   1.86808
    A7        1.88780   0.00230   0.00000  -0.00820  -0.00848   1.87932
    A8        2.18241  -0.00007   0.00000   0.00964   0.00978   2.19218
    A9        2.21298  -0.00223   0.00000  -0.00144  -0.00130   2.21169
    D1        0.00000   0.00000   0.00000   0.00000   0.00000   0.00000
    D2        0.00000   0.00000   0.00000   0.00000   0.00000   0.00000
    D3        3.14159   0.00000   0.00000   0.00000   0.00000   3.14159
    D4        0.00000   0.00000   0.00000   0.00000   0.00000   0.00000
    D5        0.00000   0.00000   0.00000   0.00000   0.00000   0.00000
    D6        3.14159   0.00000   0.00000   0.00000   0.00000   3.14159
    D7        3.14159   0.00000   0.00000   0.00000   0.00000   3.14159
    D8        0.00000   0.00000   0.00000   0.00000   0.00000   0.00000
    D9        0.00000   0.00000   0.00000   0.00000   0.00000   0.00000
   D10        3.14159   0.00000   0.00000   0.00000   0.00000   3.14159
         Item               Value     Threshold  Converged?
 Maximum Force            0.094731     0.000450     NO 
 RMS     Force            0.030848     0.000300     NO 
 Maximum Displacement     0.127313     0.001800     NO 
 RMS     Displacement     0.045057     0.001200     NO 
 Predicted change in Energy=-1.654599D-02
 GradGradGradGradGradGradGradGradGradGradGradGradGradGradGradGradGradGrad

                          Input orientation:                          
 ---------------------------------------------------------------------
 Center     Atomic     Atomic              Coordinates (Angstroms)
 Number     Number      Type              X           Y           Z
 ---------------------------------------------------------------------
    1          7             0       -1.190664   -0.272579    0.000000
    2          7             0       -0.707268    0.947459    0.000000
    3          7             0        0.668760    0.831878    0.000000
    4          1             0        1.247684    1.658012    0.000000
    5          7             0       -0.145551   -1.196915    0.000000
    6          6             0        0.995480   -0.498338    0.000000
    7          1             0        1.994466   -0.897972    0.000000
 ---------------------------------------------------------------------
                    Distance matrix (angstroms):
                    1          2          3          4          5
     1  N    0.000000
     2  N    1.312313   0.000000
     3  N    2.162703   1.380874   0.000000
     4  H    3.110100   2.080077   1.008786   0.000000
     5  N    1.395227   2.216724   2.186116   3.176745   0.000000
     6  C    2.197770   2.233759   1.369752   2.171048   1.337895
     7  H    3.245947   3.271848   2.179422   2.662844   2.160796
                    6          7
     6  C    0.000000
     7  H    1.075956   0.000000
 Stoichiometry    CH2N4
 Framework group  CS[SG(CH2N4)]
 Deg. of freedom   11
 Full point group                 CS      NOp   2
 Largest Abelian subgroup         CS      NOp   2
 Largest concise Abelian subgroup C1      NOp   1
                         Standard orientation:                         
 ---------------------------------------------------------------------
 Center     Atomic     Atomic              Coordinates (Angstroms)
 Number     Number      Type              X           Y           Z
 ---------------------------------------------------------------------
    1          7             0       -0.742540   -0.955422    0.000000
    2          7             0       -1.139257    0.295490    0.000000
    3          7             0        0.000000    1.075814    0.000000
    4          1             0       -0.073686    2.081905    0.000000
    5          7             0        0.651582   -1.010941    0.000000
    6          6             0        1.094072    0.251662    0.000000
    7          1             0        2.120754    0.573538    0.000000
 ---------------------------------------------------------------------
 Rotational constants (GHZ):     10.1509146      9.9521851      5.0252838
 Isotopes: N-14,N-14,N-14,H-1,N-14,C-12,H-1
 Standard basis: LANL2DZ (5D, 7F)
 There are    39 symmetry adapted basis functions of A'  symmetry.
 There are    10 symmetry adapted basis functions of A"  symmetry.
 Crude estimate of integral set expansion from redundant integrals=1.000.
 Integral buffers will be    262144 words long.
 Raffenetti 2 integral format.
 Two-electron integral symmetry is turned on.
    49 basis functions      133 primitive gaussians
    18 alpha electrons       18 beta electrons
       nuclear repulsion energy       163.6788637801 Hartrees.
 One-electron integrals computed using PRISM.
   1 Symmetry operations used in ECPInt.
 ECPInt:  NShTT=     435 NPrTT=    3632 LenC2=     436 LenP2D=    2838.
 LDataN:  DoStor=F MaxTD1= 2 Len=   12
 LDataN:  DoStor=T MaxTD1= 2 Len=   12
 NBasis=    49 RedAO= T  NBF=    39    10
 NBsUse=    49 1.00D-04 NBFU=    39    10
 Initial guess read from the read-write file:
 Initial guess orbital symmetries:
       Occupied  (A') (A') (A') (A') (A') (A') (A') (A') (A') (A')
                 (A') (A") (A') (A') (A") (A") (A') (A')
       Virtual   (A") (A") (A') (A') (A') (A') (A') (A") (A') (A')
                 (A') (A") (A') (A') (A") (A') (A') (A') (A") (A')
                 (A") (A') (A') (A') (A') (A') (A') (A') (A') (A')
                 (A')
 Requested convergence on RMS density matrix=1.00D-08 within  64 cycles.
 Requested convergence on MAX density matrix=1.00D-06.
 Keep R1 and R2 integrals in memory in canonical form, NReq=     1914429.
 Integral accuracy reduced to 1.0D-05 until final iterations.
 Initial convergence to 1.0D-05 achieved.  Increase integral accuracy.
 SCF Done:  E(RB+HF-LYP) =  -258.182302487     A.U. after   14 cycles
             Convg  =    0.8891D-08             -V/T =  2.0047
             S**2   =   0.0000
   2 Symmetry operations used in ECPInt.
 ECPInt:  NShTT=     435 NPrTT=    3632 LenC2=     436 LenP2D=    2838.
 LDataN:  DoStor=F MaxTD1= 3 Len=   28
 LDataN:  DoStor=T MaxTD1= 3 Len=   28
 ***** Axes restored to original set *****
 -------------------------------------------------------------------
 Center     Atomic                   Forces (Hartrees/Bohr)
 Number     Number              X              Y              Z
 -------------------------------------------------------------------
    1          7          -0.004490371   -0.008230654    0.000000000
    2          7          -0.005929634    0.025296836    0.000000000
    3          7           0.007401711   -0.005573034    0.000000000
    4          1          -0.000240293    0.002195307    0.000000000
    5          7           0.004434779   -0.017835906    0.000000000
    6          6          -0.001209333    0.005185780    0.000000000
    7          1           0.000033140   -0.001038330    0.000000000
 -------------------------------------------------------------------
 Cartesian Forces:  Max     0.025296836 RMS     0.007624958

 GradGradGradGradGradGradGradGradGradGradGradGradGradGradGradGradGradGrad
 Berny optimization.
 Internal  Forces:  Max     0.017306024 RMS     0.005294252
 Search for a local minimum.
 Step number   2 out of a maximum of  36
 All quantities printed in internal units (Hartrees-Bohrs-Radians)
 Update second derivatives using information from points  1  2
 Trust test= 1.12D+00 RLast= 2.25D-01 DXMaxT set to 4.24D-01
     Eigenvalues ---    0.02505   0.02634   0.02675   0.02833   0.15974
     Eigenvalues ---    0.16001   0.22634   0.24861   0.37533   0.48695
     Eigenvalues ---    0.50589   0.56118   0.58038   0.68638   0.74245
     Eigenvalues --- 1000.000001000.000001000.000001000.000001000.00000
     Eigenvalues --- 1000.000001000.000001000.000001000.000001000.00000
     Eigenvalues --- 1000.00000
 RFO step:  Lambda=-1.56220140D-03.
 Quartic linear search produced a step of  0.15792.
 Iteration  1 RMS(Cart)=  0.01487846 RMS(Int)=  0.00020604
 Iteration  2 RMS(Cart)=  0.00021136 RMS(Int)=  0.00004138
 Iteration  3 RMS(Cart)=  0.00000002 RMS(Int)=  0.00004138
 Variable       Old X    -DE/DX   Delta X   Delta X   Delta X     New X
                                 (Linear)    (Quad)   (Total)
    R1        2.47991   0.01731   0.01795   0.01503   0.03304   2.51295
    R2        2.63660   0.00969   0.01609   0.01195   0.02807   2.66466
    R3        2.60947   0.00703   0.01633   0.00414   0.02047   2.62995
    R4        1.90633   0.00166   0.00438   0.00154   0.00591   1.91224
    R5        2.58846   0.00326   0.01181  -0.00284   0.00892   2.59738
    R6        2.52825   0.00358   0.01449  -0.00412   0.01033   2.53858
    R7        2.03326   0.00042   0.00245   0.00006   0.00251   2.03577
    A1        1.91771   0.00622  -0.00412   0.03974   0.03572   1.95343
    A2        1.86424  -0.00931   0.00039  -0.03697  -0.03650   1.82774
    A3        2.09823  -0.00333  -0.00148  -0.01615  -0.01760   2.08063
    A4        1.89544   0.00388   0.00159   0.01266   0.01421   1.90965
    A5        2.28951  -0.00055  -0.00012   0.00349   0.00340   2.29291
    A6        1.86808  -0.00697   0.00348  -0.03687  -0.03343   1.83465
    A7        1.87932   0.00618  -0.00134   0.02144   0.02000   1.89932
    A8        2.19218  -0.00212   0.00154  -0.00399  -0.00240   2.18978
    A9        2.21169  -0.00405  -0.00020  -0.01744  -0.01760   2.19409
    D1        0.00000   0.00000   0.00000   0.00000   0.00000   0.00000
    D2        0.00000   0.00000   0.00000   0.00000   0.00000   0.00000
    D3        3.14159   0.00000   0.00000   0.00000   0.00000   3.14159
    D4        0.00000   0.00000   0.00000   0.00000   0.00000   0.00000
    D5        0.00000   0.00000   0.00000   0.00000   0.00000   0.00000
    D6        3.14159   0.00000   0.00000   0.00000   0.00000   3.14159
    D7        3.14159   0.00000   0.00000   0.00000   0.00000   3.14159
    D8        0.00000   0.00000   0.00000   0.00000   0.00000   0.00000
    D9        0.00000   0.00000   0.00000   0.00000   0.00000   0.00000
   D10        3.14159   0.00000   0.00000   0.00000   0.00000   3.14159
         Item               Value     Threshold  Converged?
 Maximum Force            0.017306     0.000450     NO 
 RMS     Force            0.005294     0.000300     NO 
 Maximum Displacement     0.049805     0.001800     NO 
 RMS     Displacement     0.014923     0.001200     NO 
 Predicted change in Energy=-1.161567D-03
 GradGradGradGradGradGradGradGradGradGradGradGradGradGradGradGradGradGrad

                          Input orientation:                          
 ---------------------------------------------------------------------
 Center     Atomic     Atomic              Coordinates (Angstroms)
 Number     Number      Type              X           Y           Z
 ---------------------------------------------------------------------
    1          7             0       -1.170353   -0.271019    0.000000
    2          7             0       -0.705472    0.974873    0.000000
    3          7             0        0.679256    0.835670    0.000000
    4          1             0        1.258971    1.665069    0.000000
    5          7             0       -0.128830   -1.221574    0.000000
    6          6             0        1.004185   -0.499843    0.000000
    7          1             0        2.004490   -0.899754    0.000000
 ---------------------------------------------------------------------
                    Distance matrix (angstroms):
                    1          2          3          4          5
     1  N    0.000000
     2  N    1.329797   0.000000
     3  N    2.155416   1.391708   0.000000
     4  H    3.106453   2.082164   1.011915   0.000000
     5  N    1.410080   2.270879   2.210261   3.202920   0.000000
     6  C    2.186544   2.257812   1.374472   2.179853   1.343360
     7  H    3.236500   3.295166   2.183561   2.670977   2.157457
                    6          7
     6  C    0.000000
     7  H    1.077283   0.000000
 Stoichiometry    CH2N4
 Framework group  CS[SG(CH2N4)]
 Deg. of freedom   11
 Full point group                 CS      NOp   2
 Largest Abelian subgroup         CS      NOp   2
 Largest concise Abelian subgroup C1      NOp   1
                         Standard orientation:                         
 ---------------------------------------------------------------------
 Center     Atomic     Atomic              Coordinates (Angstroms)
 Number     Number      Type              X           Y           Z
 ---------------------------------------------------------------------
    1          7             0       -0.737941   -0.948262    0.000000
    2          7             0       -1.162602    0.311906    0.000000
    3          7             0        0.000000    1.076895    0.000000
    4          1             0       -0.072938    2.086178    0.000000
    5          7             0        0.669801   -1.029434    0.000000
    6          6             0        1.094222    0.245118    0.000000
    7          1             0        2.122801    0.565373    0.000000
 ---------------------------------------------------------------------
 Rotational constants (GHZ):     10.1003828      9.7154887      4.9520989
 Isotopes: N-14,N-14,N-14,H-1,N-14,C-12,H-1
 Standard basis: LANL2DZ (5D, 7F)
 There are    39 symmetry adapted basis functions of A'  symmetry.
 There are    10 symmetry adapted basis functions of A"  symmetry.
 Crude estimate of integral set expansion from redundant integrals=1.000.
 Integral buffers will be    262144 words long.
 Raffenetti 2 integral format.
 Two-electron integral symmetry is turned on.
    49 basis functions      133 primitive gaussians
    18 alpha electrons       18 beta electrons
       nuclear repulsion energy       162.4950920686 Hartrees.
 One-electron integrals computed using PRISM.
   1 Symmetry operations used in ECPInt.
 ECPInt:  NShTT=     435 NPrTT=    3632 LenC2=     436 LenP2D=    2834.
 LDataN:  DoStor=F MaxTD1= 2 Len=   12
 LDataN:  DoStor=T MaxTD1= 2 Len=   12
 NBasis=    49 RedAO= T  NBF=    39    10
 NBsUse=    49 1.00D-04 NBFU=    39    10
 Initial guess read from the read-write file:
 Initial guess orbital symmetries:
       Occupied  (A') (A') (A') (A') (A') (A') (A') (A') (A') (A')
                 (A') (A') (A") (A') (A") (A") (A') (A')
       Virtual   (A") (A") (A') (A') (A') (A') (A') (A") (A') (A')
                 (A') (A') (A') (A") (A') (A") (A') (A') (A') (A")
                 (A") (A') (A') (A') (A') (A') (A') (A') (A') (A')
                 (A')
 Requested convergence on RMS density matrix=1.00D-08 within  64 cycles.
 Requested convergence on MAX density matrix=1.00D-06.
 Keep R1 and R2 integrals in memory in canonical form, NReq=     1914429.
 Integral accuracy reduced to 1.0D-05 until final iterations.
 Initial convergence to 1.0D-05 achieved.  Increase integral accuracy.
 SCF Done:  E(RB+HF-LYP) =  -258.182798352     A.U. after   13 cycles
             Convg  =    0.5326D-08             -V/T =  2.0052
             S**2   =   0.0000
   2 Symmetry operations used in ECPInt.
 ECPInt:  NShTT=     435 NPrTT=    3632 LenC2=     436 LenP2D=    2834.
 LDataN:  DoStor=F MaxTD1= 3 Len=   28
 LDataN:  DoStor=T MaxTD1= 3 Len=   28
 ***** Axes restored to original set *****
 -------------------------------------------------------------------
 Center     Atomic                   Forces (Hartrees/Bohr)
 Number     Number              X              Y              Z
 -------------------------------------------------------------------
    1          7          -0.012775334   -0.002968827    0.000000000
    2          7           0.002876945   -0.007692325    0.000000000
    3          7           0.007429434   -0.003204794    0.000000000
    4          1           0.000494996   -0.001165937    0.000000000
    5          7           0.001381536    0.008466265    0.000000000
    6          6           0.000462860    0.006077406    0.000000000
    7          1           0.000129563    0.000488212    0.000000000
 -------------------------------------------------------------------
 Cartesian Forces:  Max     0.012775334 RMS     0.004458987

 GradGradGradGradGradGradGradGradGradGradGradGradGradGradGradGradGradGrad
 Berny optimization.
 Internal  Forces:  Max     0.012344288 RMS     0.004038206
 Search for a local minimum.
 Step number   3 out of a maximum of  36
 All quantities printed in internal units (Hartrees-Bohrs-Radians)
 Update second derivatives using information from points  1  2  3
 Trust test= 4.27D-01 RLast= 8.65D-02 DXMaxT set to 4.24D-01
     Eigenvalues ---    0.02507   0.02635   0.02674   0.02830   0.15953
     Eigenvalues ---    0.16012   0.22507   0.34833   0.37709   0.42657
     Eigenvalues ---    0.48918   0.53176   0.63910   0.67150   0.75431
     Eigenvalues --- 1000.000001000.000001000.000001000.000001000.00000
     Eigenvalues --- 1000.000001000.000001000.000001000.000001000.00000
     Eigenvalues --- 1000.00000
 RFO step:  Lambda=-3.73971218D-04.
 Quartic linear search produced a step of -0.35246.
 Iteration  1 RMS(Cart)=  0.00810887 RMS(Int)=  0.00005783
 Iteration  2 RMS(Cart)=  0.00004586 RMS(Int)=  0.00001455
 Iteration  3 RMS(Cart)=  0.00000000 RMS(Int)=  0.00001455
 Variable       Old X    -DE/DX   Delta X   Delta X   Delta X     New X
                                 (Linear)    (Quad)   (Total)
    R1        2.51295   0.00001  -0.01165   0.01585   0.00421   2.51716
    R2        2.66466  -0.00021  -0.00989   0.01274   0.00287   2.66754
    R3        2.62995   0.00435  -0.00722   0.01378   0.00655   2.63650
    R4        1.91224  -0.00067  -0.00208   0.00158  -0.00050   1.91174
    R5        2.59738  -0.00966  -0.00314  -0.00812  -0.01128   2.58610
    R6        2.53858   0.00168  -0.00364   0.00528   0.00164   2.54022
    R7        2.03577  -0.00006  -0.00088   0.00082  -0.00006   2.03571
    A1        1.95343  -0.01234  -0.01259  -0.01256  -0.02511   1.92832
    A2        1.82774   0.00837   0.01286   0.00525   0.01810   1.84584
    A3        2.08063   0.00252   0.00620   0.00052   0.00674   2.08737
    A4        1.90965  -0.00300  -0.00501  -0.00271  -0.00775   1.90190
    A5        2.29291   0.00047  -0.00120   0.00219   0.00101   2.29391
    A6        1.83465   0.00822   0.01178   0.00429   0.01610   1.85075
    A7        1.89932  -0.00125  -0.00705   0.00573  -0.00134   1.89798
    A8        2.18978   0.00011   0.00085  -0.00139  -0.00054   2.18925
    A9        2.19409   0.00114   0.00620  -0.00433   0.00188   2.19596
    D1        0.00000   0.00000   0.00000   0.00000   0.00000   0.00000
    D2        0.00000   0.00000   0.00000   0.00000   0.00000   0.00000
    D3        3.14159   0.00000   0.00000   0.00000   0.00000   3.14159
    D4        0.00000   0.00000   0.00000   0.00000   0.00000   0.00000
    D5        0.00000   0.00000   0.00000   0.00000   0.00000   0.00000
    D6        3.14159   0.00000   0.00000   0.00000   0.00000   3.14159
    D7        3.14159   0.00000   0.00000   0.00000   0.00000   3.14159
    D8        0.00000   0.00000   0.00000   0.00000   0.00000   0.00000
    D9        0.00000   0.00000   0.00000   0.00000   0.00000   0.00000
   D10        3.14159   0.00000   0.00000   0.00000   0.00000   3.14159
         Item               Value     Threshold  Converged?
 Maximum Force            0.012344     0.000450     NO 
 RMS     Force            0.004038     0.000300     NO 
 Maximum Displacement     0.027635     0.001800     NO 
 RMS     Displacement     0.008112     0.001200     NO 
 Predicted change in Energy=-3.928287D-04
 GradGradGradGradGradGradGradGradGradGradGradGradGradGradGradGradGradGrad

                          Input orientation:                          
 ---------------------------------------------------------------------
 Center     Atomic     Atomic              Coordinates (Angstroms)
 Number     Number      Type              X           Y           Z
 ---------------------------------------------------------------------
    1          7             0       -1.185276   -0.275672    0.000000
    2          7             0       -0.704453    0.966544    0.000000
    3          7             0        0.684527    0.835223    0.000000
    4          1             0        1.264766    1.663932    0.000000
    5          7             0       -0.130409   -1.213684    0.000000
    6          6             0        1.005618   -0.495079    0.000000
    7          1             0        2.005377   -0.896267    0.000000
 ---------------------------------------------------------------------
                    Distance matrix (angstroms):
                    1          2          3          4          5
     1  N    0.000000
     2  N    1.332025   0.000000
     3  N    2.174915   1.395175   0.000000
     4  H    3.124863   2.089061   1.011650   0.000000
     5  N    1.411600   2.254534   2.205027   3.197998   0.000000
     6  C    2.201853   2.249597   1.368504   2.174508   1.344228
     7  H    3.250447   3.288350   2.177775   2.665168   2.159244
                    6          7
     6  C    0.000000
     7  H    1.077251   0.000000
 Stoichiometry    CH2N4
 Framework group  CS[SG(CH2N4)]
 Deg. of freedom   11
 Full point group                 CS      NOp   2
 Largest Abelian subgroup         CS      NOp   2
 Largest concise Abelian subgroup C1      NOp   1
                         Standard orientation:                         
 ---------------------------------------------------------------------
 Center     Atomic     Atomic              Coordinates (Angstroms)
 Number     Number      Type              X           Y           Z
 ---------------------------------------------------------------------
    1          7             0       -0.740669   -0.963873    0.000000
    2          7             0       -1.157019    0.301410    0.000000
    3          7             0        0.000000    1.081039    0.000000
    4          1             0       -0.077179    2.089740    0.000000
    5          7             0        0.669823   -1.019790    0.000000
    6          6             0        1.092127    0.256380    0.000000
    7          1             0        2.119468    0.580480    0.000000
 ---------------------------------------------------------------------
 Rotational constants (GHZ):      9.9820555      9.8117911      4.9480955
 Isotopes: N-14,N-14,N-14,H-1,N-14,C-12,H-1
 Standard basis: LANL2DZ (5D, 7F)
 There are    39 symmetry adapted basis functions of A'  symmetry.
 There are    10 symmetry adapted basis functions of A"  symmetry.
 Crude estimate of integral set expansion from redundant integrals=1.000.
 Integral buffers will be    262144 words long.
 Raffenetti 2 integral format.
 Two-electron integral symmetry is turned on.
    49 basis functions      133 primitive gaussians
    18 alpha electrons       18 beta electrons
       nuclear repulsion energy       162.4187175908 Hartrees.
 One-electron integrals computed using PRISM.
   1 Symmetry operations used in ECPInt.
 ECPInt:  NShTT=     435 NPrTT=    3632 LenC2=     436 LenP2D=    2835.
 LDataN:  DoStor=F MaxTD1= 2 Len=   12
 LDataN:  DoStor=T MaxTD1= 2 Len=   12
 NBasis=    49 RedAO= T  NBF=    39    10
 NBsUse=    49 1.00D-04 NBFU=    39    10
 Initial guess read from the read-write file:
 Initial guess orbital symmetries:
       Occupied  (A') (A') (A') (A') (A') (A') (A') (A') (A') (A')
                 (A') (A') (A") (A') (A") (A") (A') (A')
       Virtual   (A") (A") (A') (A') (A') (A') (A') (A") (A') (A')
                 (A') (A') (A') (A") (A') (A") (A') (A') (A') (A")
                 (A") (A') (A') (A') (A') (A') (A') (A') (A') (A')
                 (A')
 Requested convergence on RMS density matrix=1.00D-08 within  64 cycles.
 Requested convergence on MAX density matrix=1.00D-06.
 Keep R1 and R2 integrals in memory in canonical form, NReq=     1914429.
 Integral accuracy reduced to 1.0D-05 until final iterations.
 Initial convergence to 1.0D-05 achieved.  Increase integral accuracy.
 SCF Done:  E(RB+HF-LYP) =  -258.183149975     A.U. after   13 cycles
             Convg  =    0.2327D-08             -V/T =  2.0052
             S**2   =   0.0000
   2 Symmetry operations used in ECPInt.
 ECPInt:  NShTT=     435 NPrTT=    3632 LenC2=     436 LenP2D=    2835.
 LDataN:  DoStor=F MaxTD1= 3 Len=   28
 LDataN:  DoStor=T MaxTD1= 3 Len=   28
 ***** Axes restored to original set *****
 -------------------------------------------------------------------
 Center     Atomic                   Forces (Hartrees/Bohr)
 Number     Number              X              Y              Z
 -------------------------------------------------------------------
    1          7           0.002713672    0.000961706    0.000000000
    2          7          -0.000868856    0.000211565    0.000000000
    3          7          -0.000225421   -0.003260104    0.000000000
    4          1          -0.000564743   -0.000379154    0.000000000
    5          7           0.000967664    0.000971783    0.000000000
    6          6          -0.001812005    0.001693096    0.000000000
    7          1          -0.000210312   -0.000198891    0.000000000
 -------------------------------------------------------------------
 Cartesian Forces:  Max     0.003260104 RMS     0.001161789

 GradGradGradGradGradGradGradGradGradGradGradGradGradGradGradGradGradGrad
 Berny optimization.
 Internal  Forces:  Max     0.002283307 RMS     0.000891709
 Search for a local minimum.
 Step number   4 out of a maximum of  36
 All quantities printed in internal units (Hartrees-Bohrs-Radians)
 Update second derivatives using information from points  1  2  3  4
 Trust test= 8.95D-01 RLast= 3.91D-02 DXMaxT set to 4.24D-01
     Eigenvalues ---    0.02506   0.02633   0.02677   0.02831   0.15881
     Eigenvalues ---    0.16011   0.23010   0.35080   0.37634   0.48678
     Eigenvalues ---    0.49707   0.54187   0.58928   0.72148   0.74464
     Eigenvalues --- 1000.000001000.000001000.000001000.000001000.00000
     Eigenvalues --- 1000.000001000.000001000.000001000.000001000.00000
     Eigenvalues --- 1000.00000
 RFO step:  Lambda=-2.91351614D-05.
 Quartic linear search produced a step of -0.08724.
 Iteration  1 RMS(Cart)=  0.00174198 RMS(Int)=  0.00000221
 Iteration  2 RMS(Cart)=  0.00000137 RMS(Int)=  0.00000169
 Iteration  3 RMS(Cart)=  0.00000000 RMS(Int)=  0.00000169
 Variable       Old X    -DE/DX   Delta X   Delta X   Delta X     New X
                                 (Linear)    (Quad)   (Total)
    R1        2.51716  -0.00158  -0.00037  -0.00178  -0.00215   2.51501
    R2        2.66754  -0.00089  -0.00025  -0.00146  -0.00172   2.66582
    R3        2.63650  -0.00063  -0.00057  -0.00034  -0.00091   2.63558
    R4        1.91174  -0.00063   0.00004  -0.00127  -0.00123   1.91051
    R5        2.58610  -0.00228   0.00098  -0.00497  -0.00399   2.58211
    R6        2.54022  -0.00220  -0.00014  -0.00261  -0.00275   2.53747
    R7        2.03571  -0.00012   0.00001  -0.00030  -0.00029   2.03542
    A1        1.92832   0.00114   0.00219  -0.00028   0.00191   1.93022
    A2        1.84584  -0.00171  -0.00158  -0.00195  -0.00353   1.84231
    A3        2.08737  -0.00077  -0.00059  -0.00177  -0.00237   2.08501
    A4        1.90190   0.00107   0.00068   0.00234   0.00302   1.90492
    A5        2.29391  -0.00030  -0.00009  -0.00057  -0.00066   2.29325
    A6        1.85075  -0.00057  -0.00140   0.00113  -0.00028   1.85046
    A7        1.89798   0.00007   0.00012  -0.00124  -0.00112   1.89686
    A8        2.18925   0.00023   0.00005   0.00170   0.00174   2.19099
    A9        2.19596  -0.00030  -0.00016  -0.00046  -0.00062   2.19534
    D1        0.00000   0.00000   0.00000   0.00000   0.00000   0.00000
    D2        0.00000   0.00000   0.00000   0.00000   0.00000   0.00000
    D3        3.14159   0.00000   0.00000   0.00000   0.00000   3.14159
    D4        0.00000   0.00000   0.00000   0.00000   0.00000   0.00000
    D5        0.00000   0.00000   0.00000   0.00000   0.00000   0.00000
    D6        3.14159   0.00000   0.00000   0.00000   0.00000   3.14159
    D7        3.14159   0.00000   0.00000   0.00000   0.00000   3.14159
    D8        0.00000   0.00000   0.00000   0.00000   0.00000   0.00000
    D9        0.00000   0.00000   0.00000   0.00000   0.00000   0.00000
   D10        3.14159   0.00000   0.00000   0.00000   0.00000   3.14159
         Item               Value     Threshold  Converged?
 Maximum Force            0.002283     0.000450     NO 
 RMS     Force            0.000892     0.000300     NO 
 Maximum Displacement     0.004078     0.001800     NO 
 RMS     Displacement     0.001742     0.001200     NO 
 Predicted change in Energy=-1.781054D-05
 GradGradGradGradGradGradGradGradGradGradGradGradGradGradGradGradGradGrad

                          Input orientation:                          
 ---------------------------------------------------------------------
 Center     Atomic     Atomic              Coordinates (Angstroms)
 Number     Number      Type              X           Y           Z
 ---------------------------------------------------------------------
    1          7             0       -1.181856   -0.274099    0.000000
    2          7             0       -0.703420    0.967819    0.000000
    3          7             0        0.684822    0.833848    0.000000
    4          1             0        1.264338    1.662268    0.000000
    5          7             0       -0.127964   -1.211842    0.000000
    6          6             0        1.006856   -0.494055    0.000000
    7          1             0        2.006208   -0.895845    0.000000
 ---------------------------------------------------------------------
                    Distance matrix (angstroms):
                    1          2          3          4          5
     1  N    0.000000
     2  N    1.330887   0.000000
     3  N    2.170722   1.394691   0.000000
     4  H    3.119837   2.086703   1.010999   0.000000
     5  N    1.410692   2.254345   2.201243   3.193590   0.000000
     6  C    2.199737   2.249915   1.366394   2.171642   1.342771
     7  H    3.248126   3.288666   2.176671   2.663515   2.157439
                    6          7
     6  C    0.000000
     7  H    1.077097   0.000000
 Stoichiometry    CH2N4
 Framework group  CS[SG(CH2N4)]
 Deg. of freedom   11
 Full point group                 CS      NOp   2
 Largest Abelian subgroup         CS      NOp   2
 Largest concise Abelian subgroup C1      NOp   1
                         Standard orientation:                         
 ---------------------------------------------------------------------
 Center     Atomic     Atomic              Coordinates (Angstroms)
 Number     Number      Type              X           Y           Z
 ---------------------------------------------------------------------
    1          7             0       -0.739468   -0.962354    0.000000
    2          7             0       -1.157879    0.301051    0.000000
    3          7             0        0.000000    1.078534    0.000000
    4          1             0       -0.077880    2.086528    0.000000
    5          7             0        0.670117   -1.018229    0.000000
    6          6             0        1.091598    0.256679    0.000000
    7          1             0        2.118902    0.580386    0.000000
 ---------------------------------------------------------------------
 Rotational constants (GHZ):     10.0172508      9.8128490      4.9569982
 Isotopes: N-14,N-14,N-14,H-1,N-14,C-12,H-1
 Standard basis: LANL2DZ (5D, 7F)
 There are    39 symmetry adapted basis functions of A'  symmetry.
 There are    10 symmetry adapted basis functions of A"  symmetry.
 Crude estimate of integral set expansion from redundant integrals=1.000.
 Integral buffers will be    262144 words long.
 Raffenetti 2 integral format.
 Two-electron integral symmetry is turned on.
    49 basis functions      133 primitive gaussians
    18 alpha electrons       18 beta electrons
       nuclear repulsion energy       162.5625115825 Hartrees.
 One-electron integrals computed using PRISM.
   1 Symmetry operations used in ECPInt.
 ECPInt:  NShTT=     435 NPrTT=    3632 LenC2=     436 LenP2D=    2835.
 LDataN:  DoStor=F MaxTD1= 2 Len=   12
 LDataN:  DoStor=T MaxTD1= 2 Len=   12
 NBasis=    49 RedAO= T  NBF=    39    10
 NBsUse=    49 1.00D-04 NBFU=    39    10
 Initial guess read from the read-write file:
 Initial guess orbital symmetries:
       Occupied  (A') (A') (A') (A') (A') (A') (A') (A') (A') (A')
                 (A') (A') (A") (A') (A") (A") (A') (A')
       Virtual   (A") (A") (A') (A') (A') (A') (A') (A") (A') (A')
                 (A') (A') (A') (A") (A') (A") (A') (A') (A') (A")
                 (A") (A') (A') (A') (A') (A') (A') (A') (A') (A')
                 (A')
 Requested convergence on RMS density matrix=1.00D-08 within  64 cycles.
 Requested convergence on MAX density matrix=1.00D-06.
 Keep R1 and R2 integrals in memory in canonical form, NReq=     1914429.
 SCF Done:  E(RB+HF-LYP) =  -258.183169457     A.U. after   10 cycles
             Convg  =    0.4098D-08             -V/T =  2.0052
             S**2   =   0.0000
   2 Symmetry operations used in ECPInt.
 ECPInt:  NShTT=     435 NPrTT=    3632 LenC2=     436 LenP2D=    2835.
 LDataN:  DoStor=F MaxTD1= 3 Len=   28
 LDataN:  DoStor=T MaxTD1= 3 Len=   28
 ***** Axes restored to original set *****
 -------------------------------------------------------------------
 Center     Atomic                   Forces (Hartrees/Bohr)
 Number     Number              X              Y              Z
 -------------------------------------------------------------------
    1          7           0.000641814   -0.000085417    0.000000000
    2          7          -0.000190975   -0.000233543    0.000000000
    3          7           0.000777091   -0.000587566    0.000000000
    4          1          -0.000096181    0.000035818    0.000000000
    5          7          -0.000229270   -0.000158692    0.000000000
    6          6          -0.000822450    0.001129760    0.000000000
    7          1          -0.000080029   -0.000100360    0.000000000
 -------------------------------------------------------------------
 Cartesian Forces:  Max     0.001129760 RMS     0.000409232

 GradGradGradGradGradGradGradGradGradGradGradGradGradGradGradGradGradGrad
 Berny optimization.
 Internal  Forces:  Max     0.000788736 RMS     0.000247565
 Search for a local minimum.
 Step number   5 out of a maximum of  36
 All quantities printed in internal units (Hartrees-Bohrs-Radians)
 Update second derivatives using information from points  1  2  3  4  5

 Trust test= 1.09D+00 RLast= 8.34D-03 DXMaxT set to 4.24D-01
     Eigenvalues ---    0.02507   0.02633   0.02676   0.02831   0.15302
     Eigenvalues ---    0.16011   0.27007   0.34068   0.37504   0.42671
     Eigenvalues ---    0.48930   0.52133   0.54391   0.73542   0.76064
     Eigenvalues --- 1000.000001000.000001000.000001000.000001000.00000
     Eigenvalues --- 1000.000001000.000001000.000001000.000001000.00000
     Eigenvalues --- 1000.00000
 RFO step:  Lambda=-5.00091621D-06.
 Quartic linear search produced a step of  0.10298.
 Iteration  1 RMS(Cart)=  0.00080521 RMS(Int)=  0.00000048
 Iteration  2 RMS(Cart)=  0.00000050 RMS(Int)=  0.00000014
 Variable       Old X    -DE/DX   Delta X   Delta X   Delta X     New X
                                 (Linear)    (Quad)   (Total)
    R1        2.51501  -0.00016  -0.00022  -0.00016  -0.00039   2.51463
    R2        2.66582  -0.00053  -0.00018  -0.00099  -0.00117   2.66465
    R3        2.63558   0.00006  -0.00009   0.00029   0.00020   2.63578
    R4        1.91051  -0.00003  -0.00013  -0.00011  -0.00023   1.91028
    R5        2.58211  -0.00079  -0.00041  -0.00182  -0.00223   2.57988
    R6        2.53747  -0.00005  -0.00028  -0.00015  -0.00044   2.53703
    R7        2.03542  -0.00004  -0.00003  -0.00010  -0.00013   2.03529
    A1        1.93022   0.00016   0.00020   0.00043   0.00063   1.93085
    A2        1.84231  -0.00002  -0.00036   0.00032  -0.00005   1.84226
    A3        2.08501   0.00005  -0.00024   0.00004  -0.00020   2.08481
    A4        1.90492  -0.00029   0.00031  -0.00143  -0.00112   1.90380
    A5        2.29325   0.00024  -0.00007   0.00139   0.00132   2.29457
    A6        1.85046  -0.00034  -0.00003  -0.00137  -0.00140   1.84906
    A7        1.89686   0.00048  -0.00012   0.00206   0.00194   1.89880
    A8        2.19099  -0.00012   0.00018  -0.00012   0.00006   2.19105
    A9        2.19534  -0.00036  -0.00006  -0.00194  -0.00200   2.19334
    D1        0.00000   0.00000   0.00000   0.00000   0.00000   0.00000
    D2        0.00000   0.00000   0.00000   0.00000   0.00000   0.00000
    D3        3.14159   0.00000   0.00000   0.00000   0.00000   3.14159
    D4        0.00000   0.00000   0.00000   0.00000   0.00000   0.00000
    D5        0.00000   0.00000   0.00000   0.00000   0.00000   0.00000
    D6        3.14159   0.00000   0.00000   0.00000   0.00000   3.14159
    D7        3.14159   0.00000   0.00000   0.00000   0.00000   3.14159
    D8        0.00000   0.00000   0.00000   0.00000   0.00000   0.00000
    D9        0.00000   0.00000   0.00000   0.00000   0.00000   0.00000
   D10        3.14159   0.00000   0.00000   0.00000   0.00000   3.14159
         Item               Value     Threshold  Converged?
 Maximum Force            0.000789     0.000450     NO 
 RMS     Force            0.000248     0.000300     YES
 Maximum Displacement     0.002344     0.001800     NO 
 RMS     Displacement     0.000805     0.001200     YES
 Predicted change in Energy=-2.671442D-06
 GradGradGradGradGradGradGradGradGradGradGradGradGradGradGradGradGradGrad

                          Input orientation:                          
 ---------------------------------------------------------------------
 Center     Atomic     Atomic              Coordinates (Angstroms)
 Number     Number      Type              X           Y           Z
 ---------------------------------------------------------------------
    1          7             0       -1.181309   -0.274831    0.000000
    2          7             0       -0.703380    0.967063    0.000000
    3          7             0        0.685006    0.833502    0.000000
    4          1             0        1.264034    1.662114    0.000000
    5          7             0       -0.128139   -1.212454    0.000000
    6          6             0        1.005678   -0.493514    0.000000
    7          1             0        2.004613   -0.896152    0.000000
 ---------------------------------------------------------------------
                    Distance matrix (angstroms):
                    1          2          3          4          5
     1  N    0.000000
     2  N    1.330683   0.000000
     3  N    2.170607   1.394796   0.000000
     4  H    3.119528   2.086579   1.010876   0.000000
     5  N    1.410073   2.254151   2.201622   3.193945   0.000000
     6  C    2.197893   2.248147   1.365212   2.171055   1.342540
     7  H    3.245942   3.287065   2.175561   2.663303   2.156079
                    6          7
     6  C    0.000000
     7  H    1.077028   0.000000
 Stoichiometry    CH2N4
 Framework group  CS[SG(CH2N4)]
 Deg. of freedom   11
 Full point group                 CS      NOp   2
 Largest Abelian subgroup         CS      NOp   2
 Largest concise Abelian subgroup C1      NOp   1
                         Standard orientation:                         
 ---------------------------------------------------------------------
 Center     Atomic     Atomic              Coordinates (Angstroms)
 Number     Number      Type              X           Y           Z
 ---------------------------------------------------------------------
    1          7             0       -0.738541   -0.962325    0.000000
    2          7             0       -1.157578    0.300657    0.000000
    3          7             0        0.000000    1.078775    0.000000
    4          1             0       -0.078576    2.086593    0.000000
    5          7             0        0.670421   -1.018288    0.000000
    6          6             0        1.090144    0.256955    0.000000
    7          1             0        2.117601    0.579944    0.000000
 ---------------------------------------------------------------------
 Rotational constants (GHZ):     10.0168119      9.8247627      4.9599289
 Isotopes: N-14,N-14,N-14,H-1,N-14,C-12,H-1
 Standard basis: LANL2DZ (5D, 7F)
 There are    39 symmetry adapted basis functions of A'  symmetry.
 There are    10 symmetry adapted basis functions of A"  symmetry.
 Crude estimate of integral set expansion from redundant integrals=1.000.
 Integral buffers will be    262144 words long.
 Raffenetti 2 integral format.
 Two-electron integral symmetry is turned on.
    49 basis functions      133 primitive gaussians
    18 alpha electrons       18 beta electrons
       nuclear repulsion energy       162.6093598072 Hartrees.
 One-electron integrals computed using PRISM.
   1 Symmetry operations used in ECPInt.
 ECPInt:  NShTT=     435 NPrTT=    3632 LenC2=     436 LenP2D=    2835.
 LDataN:  DoStor=F MaxTD1= 2 Len=   12
 LDataN:  DoStor=T MaxTD1= 2 Len=   12
 NBasis=    49 RedAO= T  NBF=    39    10
 NBsUse=    49 1.00D-04 NBFU=    39    10
 Initial guess read from the read-write file:
 Initial guess orbital symmetries:
       Occupied  (A') (A') (A') (A') (A') (A') (A') (A') (A') (A')
                 (A') (A') (A") (A') (A") (A") (A') (A')
       Virtual   (A") (A") (A') (A') (A') (A') (A') (A") (A') (A')
                 (A') (A') (A') (A") (A') (A") (A') (A') (A') (A")
                 (A") (A') (A') (A') (A') (A') (A') (A') (A') (A')
                 (A')
 Requested convergence on RMS density matrix=1.00D-08 within  64 cycles.
 Requested convergence on MAX density matrix=1.00D-06.
 Keep R1 and R2 integrals in memory in canonical form, NReq=     1914429.
 SCF Done:  E(RB+HF-LYP) =  -258.183171717     A.U. after    9 cycles
             Convg  =    0.5614D-08             -V/T =  2.0051
             S**2   =   0.0000
   2 Symmetry operations used in ECPInt.
 ECPInt:  NShTT=     435 NPrTT=    3632 LenC2=     436 LenP2D=    2835.
 LDataN:  DoStor=F MaxTD1= 3 Len=   28
 LDataN:  DoStor=T MaxTD1= 3 Len=   28
 ***** Axes restored to original set *****
 -------------------------------------------------------------------
 Center     Atomic                   Forces (Hartrees/Bohr)
 Number     Number              X              Y              Z
 -------------------------------------------------------------------
    1          7          -0.000017802   -0.000002744    0.000000000
    2          7          -0.000459806    0.000050806    0.000000000
    3          7           0.000264823   -0.000234940    0.000000000
    4          1           0.000008591    0.000052262    0.000000000
    5          7          -0.000277451    0.000071436    0.000000000
    6          6           0.000468440    0.000120587    0.000000000
    7          1           0.000013203   -0.000057407    0.000000000
 -------------------------------------------------------------------
 Cartesian Forces:  Max     0.000468440 RMS     0.000177548

 GradGradGradGradGradGradGradGradGradGradGradGradGradGradGradGradGradGrad
 Berny optimization.
 Internal  Forces:  Max     0.000439479 RMS     0.000122588
 Search for a local minimum.
 Step number   6 out of a maximum of  36
 All quantities printed in internal units (Hartrees-Bohrs-Radians)
 Update second derivatives using information from points  1  2  3  4  5
                                                        6
 Trust test= 8.46D-01 RLast= 4.47D-03 DXMaxT set to 4.24D-01
     Eigenvalues ---    0.02507   0.02633   0.02677   0.02831   0.13804
     Eigenvalues ---    0.16011   0.29951   0.35350   0.37599   0.40507
     Eigenvalues ---    0.49115   0.53068   0.57473   0.73298   0.79349
     Eigenvalues --- 1000.000001000.000001000.000001000.000001000.00000
     Eigenvalues --- 1000.000001000.000001000.000001000.000001000.00000
     Eigenvalues --- 1000.00000
 RFO step:  Lambda=-6.11009081D-07.
 Quartic linear search produced a step of -0.13269.
 Iteration  1 RMS(Cart)=  0.00024518 RMS(Int)=  0.00000005
 Iteration  2 RMS(Cart)=  0.00000004 RMS(Int)=  0.00000003
 Variable       Old X    -DE/DX   Delta X   Delta X   Delta X     New X
                                 (Linear)    (Quad)   (Total)
    R1        2.51463  -0.00007   0.00005  -0.00004   0.00001   2.51463
    R2        2.66465  -0.00001   0.00016  -0.00022  -0.00007   2.66458
    R3        2.63578   0.00044  -0.00003   0.00078   0.00076   2.63654
    R4        1.91028   0.00005   0.00003   0.00005   0.00008   1.91036
    R5        2.57988  -0.00003   0.00030  -0.00057  -0.00028   2.57960
    R6        2.53703   0.00027   0.00006   0.00027   0.00033   2.53736
    R7        2.03529   0.00003   0.00002   0.00005   0.00007   2.03536
    A1        1.93085  -0.00002  -0.00008   0.00009   0.00000   1.93085
    A2        1.84226  -0.00004   0.00001  -0.00029  -0.00029   1.84197
    A3        2.08481  -0.00006   0.00003  -0.00045  -0.00042   2.08439
    A4        1.90380   0.00008   0.00015   0.00017   0.00032   1.90412
    A5        2.29457  -0.00001  -0.00018   0.00028   0.00010   2.29468
    A6        1.84906   0.00019   0.00019   0.00016   0.00035   1.84941
    A7        1.89880  -0.00020  -0.00026  -0.00012  -0.00038   1.89842
    A8        2.19105   0.00015  -0.00001   0.00060   0.00060   2.19164
    A9        2.19334   0.00006   0.00027  -0.00048  -0.00022   2.19312
    D1        0.00000   0.00000   0.00000   0.00000   0.00000   0.00000
    D2        0.00000   0.00000   0.00000   0.00000   0.00000   0.00000
    D3        3.14159   0.00000   0.00000   0.00000   0.00000   3.14159
    D4        0.00000   0.00000   0.00000   0.00000   0.00000   0.00000
    D5        0.00000   0.00000   0.00000   0.00000   0.00000   0.00000
    D6        3.14159   0.00000   0.00000   0.00000   0.00000   3.14159
    D7        3.14159   0.00000   0.00000   0.00000   0.00000   3.14159
    D8        0.00000   0.00000   0.00000   0.00000   0.00000   0.00000
    D9        0.00000   0.00000   0.00000   0.00000   0.00000   0.00000
   D10        3.14159   0.00000   0.00000   0.00000   0.00000   3.14159
         Item               Value     Threshold  Converged?
 Maximum Force            0.000439     0.000450     YES
 RMS     Force            0.000123     0.000300     YES
 Maximum Displacement     0.000651     0.001800     YES
 RMS     Displacement     0.000245     0.001200     YES
 Predicted change in Energy=-3.597168D-07
 Optimization completed.
    -- Stationary point found.
                         ----------------------------
                         !   Optimized Parameters   !
                         ! (Angstroms and Degrees)  !
 ------------------------                            -------------------------
 ! Name  Definition              Value          Derivative Info.             !
 -----------------------------------------------------------------------------
 ! R1    R(1,2)                  1.3307         -DE/DX =   -0.0001           !
 ! R2    R(1,5)                  1.4101         -DE/DX =    0.               !
 ! R3    R(2,3)                  1.3948         -DE/DX =    0.0004           !
 ! R4    R(3,4)                  1.0109         -DE/DX =    0.               !
 ! R5    R(3,6)                  1.3652         -DE/DX =    0.               !
 ! R6    R(5,6)                  1.3425         -DE/DX =    0.0003           !
 ! R7    R(6,7)                  1.077          -DE/DX =    0.               !
 ! A1    A(2,1,5)              110.6296         -DE/DX =    0.               !
 ! A2    A(1,2,3)              105.5538         -DE/DX =    0.               !
 ! A3    A(2,3,4)              119.4507         -DE/DX =   -0.0001           !
 ! A4    A(2,3,6)              109.0799         -DE/DX =    0.0001           !
 ! A5    A(4,3,6)              131.4695         -DE/DX =    0.               !
 ! A6    A(1,5,6)              105.9435         -DE/DX =    0.0002           !
 ! A7    A(3,6,5)              108.7933         -DE/DX =   -0.0002           !
 ! A8    A(3,6,7)              125.5377         -DE/DX =    0.0001           !
 ! A9    A(5,6,7)              125.669          -DE/DX =    0.0001           !
 ! D1    D(5,1,2,3)              0.             -DE/DX =    0.               !
 ! D2    D(2,1,5,6)              0.             -DE/DX =    0.               !
 ! D3    D(1,2,3,4)            180.             -DE/DX =    0.               !
 ! D4    D(1,2,3,6)              0.             -DE/DX =    0.               !
 ! D5    D(2,3,6,5)              0.             -DE/DX =    0.               !
 ! D6    D(2,3,6,7)            180.             -DE/DX =    0.               !
 ! D7    D(4,3,6,5)            180.             -DE/DX =    0.               !
 ! D8    D(4,3,6,7)              0.             -DE/DX =    0.               !
 ! D9    D(1,5,6,3)              0.             -DE/DX =    0.               !
 ! D10   D(1,5,6,7)            180.             -DE/DX =    0.               !
 -----------------------------------------------------------------------------
 GradGradGradGradGradGradGradGradGradGradGradGradGradGradGradGradGradGrad

                          Input orientation:                          
 ---------------------------------------------------------------------
 Center     Atomic     Atomic              Coordinates (Angstroms)
 Number     Number      Type              X           Y           Z
 ---------------------------------------------------------------------
    1          7             0       -1.181530   -0.274771    0.000000
    2          7             0       -0.703601    0.967123    0.000000
    3          7             0        0.684785    0.833562    0.000000
    4          1             0        1.263812    1.662174    0.000000
    5          7             0       -0.128360   -1.212394    0.000000
    6          6             0        1.005456   -0.493454    0.000000
    7          1             0        2.004392   -0.896092    0.000000
 ---------------------------------------------------------------------
                    Distance matrix (angstroms):
                    1          2          3          4          5
     1  N    0.000000
     2  N    1.330683   0.000000
     3  N    2.170607   1.394796   0.000000
     4  H    3.119528   2.086579   1.010876   0.000000
     5  N    1.410073   2.254151   2.201622   3.193945   0.000000
     6  C    2.197893   2.248147   1.365212   2.171055   1.342540
     7  H    3.245942   3.287065   2.175561   2.663303   2.156079
                    6          7
     6  C    0.000000
     7  H    1.077028   0.000000
 Stoichiometry    CH2N4
 Framework group  CS[SG(CH2N4)]
 Deg. of freedom   11
 Full point group                 CS      NOp   2
 Largest Abelian subgroup         CS      NOp   2
 Largest concise Abelian subgroup C1      NOp   1
                         Standard orientation:                         
 ---------------------------------------------------------------------
 Center     Atomic     Atomic              Coordinates (Angstroms)
 Number     Number      Type              X           Y           Z
 ---------------------------------------------------------------------
    1          7             0       -0.738541   -0.962325    0.000000
    2          7             0       -1.157578    0.300657    0.000000
    3          7             0        0.000000    1.078775    0.000000
    4          1             0       -0.078576    2.086593    0.000000
    5          7             0        0.670421   -1.018288    0.000000
    6          6             0        1.090144    0.256955    0.000000
    7          1             0        2.117601    0.579944    0.000000
 ---------------------------------------------------------------------
 Rotational constants (GHZ):     10.0168119      9.8247627      4.9599289
 Isotopes: N-14,N-14,N-14,H-1,N-14,C-12,H-1

 **********************************************************************

            Population analysis using the SCF density.

 **********************************************************************

 Orbital Symmetries:
       Occupied  (A') (A') (A') (A') (A') (A') (A') (A') (A') (A')
                 (A') (A') (A") (A') (A") (A") (A') (A')
       Virtual   (A") (A") (A') (A') (A') (A') (A') (A") (A') (A')
                 (A') (A') (A') (A") (A') (A") (A') (A') (A') (A")
                 (A") (A') (A') (A') (A') (A') (A') (A') (A') (A')
                 (A')
  The electronic state is 1-A'.
 Alpha  occ. eigenvalues --  -14.45710 -14.43948 -14.42036 -14.39139 -10.30800
 Alpha  occ. eigenvalues --   -1.16184  -0.96515  -0.92240  -0.69764  -0.68128
 Alpha  occ. eigenvalues --   -0.61379  -0.51555  -0.50443  -0.38358  -0.34785
 Alpha  occ. eigenvalues --   -0.32952  -0.31698  -0.30447
 Alpha virt. eigenvalues --   -0.05633  -0.01842   0.05138   0.09736   0.12968
 Alpha virt. eigenvalues --    0.14183   0.20545   0.27523   0.28329   0.30672
 Alpha virt. eigenvalues --    0.35296   0.44841   0.45164   0.46415   0.48506
 Alpha virt. eigenvalues --    0.49765   0.51300   0.52822   0.57315   0.57799
 Alpha virt. eigenvalues --    0.61260   0.66040   0.72904   0.78231   0.82540
 Alpha virt. eigenvalues --    0.99854   1.04548   1.24642   1.33455   1.49885
 Alpha virt. eigenvalues --    1.54387
          Condensed to atoms (all electrons):
              1          2          3          4          5          6
  1  N    6.668769   0.318303  -0.071872   0.012922   0.320203  -0.178144
  2  N    0.318303   6.750499   0.197071  -0.011692  -0.110181  -0.137751
  3  N   -0.071872   0.197071   6.808065   0.214110  -0.073272   0.286863
  4  H    0.012922  -0.011692   0.214110   0.463908   0.008469  -0.046722
  5  N    0.320203  -0.110181  -0.073272   0.008469   6.520959   0.446346
  6  C   -0.178144  -0.137751   0.286863  -0.046722   0.446346   5.414532
  7  H    0.004438   0.001499  -0.013745   0.002645  -0.011494   0.332808
              7
  1  N    0.004438
  2  N    0.001499
  3  N   -0.013745
  4  H    0.002645
  5  N   -0.011494
  6  C    0.332808
  7  H    0.391659
 Total atomic charges:
              1
  1  N   -0.074619
  2  N   -0.007749
  3  N   -0.347219
  4  H    0.356359
  5  N   -0.101030
  6  C   -0.117932
  7  H    0.292190
 Sum of Mulliken charges=   0.00000
 Atomic charges with hydrogens summed into heavy atoms:
              1
  1  N   -0.074619
  2  N   -0.007749
  3  N    0.009140
  4  H    0.000000
  5  N   -0.101030
  6  C    0.174258
  7  H    0.000000
 Sum of Mulliken charges=   0.00000
 Electronic spatial extent (au):  <R**2>=   262.5653
 Charge=     0.0000 electrons
 Dipole moment (Debye):
    X=     2.7240    Y=     5.2204    Z=     0.0000  Tot=     5.8884
 Quadrupole moment (Debye-Ang):
   XX=   -29.9449   YY=   -27.5216   ZZ=   -28.7725
   XY=     2.1342   XZ=     0.0000   YZ=     0.0000
 Octapole moment (Debye-Ang**2):
  XXX=    13.7372  YYY=    24.9211  ZZZ=     0.0000  XYY=    -0.7086
  XXY=     5.6297  XXZ=     0.0000  XZZ=    -0.8211  YZZ=     0.4830
  YYZ=     0.0000  XYZ=     0.0000
 Hexadecapole moment (Debye-Ang**3):
 XXXX=  -150.6230 YYYY=  -128.1611 ZZZZ=   -26.4799 XXXY=     8.2669
 XXXZ=     0.0000 YYYX=    -0.8249 YYYZ=     0.0000 ZZZX=     0.0000
 ZZZY=     0.0000 XXYY=   -57.2961 XXZZ=   -32.2220 YYZZ=   -30.4006
 XXYZ=     0.0000 YYXZ=     0.0000 ZZXY=    -0.1420
 N-N= 1.626093598072D+02 E-N=-9.273521460682D+02  KE= 2.568609609528D+02
 Symmetry A'   KE= 2.473676157693D+02
 Symmetry A"   KE= 9.493345183485D+00
 1\1\GINC-INDIUM\FOpt\RB3LYP\LANL2DZ\C1H2N4\RDJ3\27-Oct-2000\0\\#B3LYP/
 LANL2DZ OPT FREQ\\1H tetrazole c CH-NH-N=N-N= casno=288948\\0,1\N,-1.1
 815302168,-0.2747708081,0.\N,-0.7036011123,0.9671233534,0.\N,0.6847850
 63,0.8335620081,0.\H,1.2638123945,1.6621737109,0.\N,-0.128359792,-1.21
 2393868,0.\C,1.0054563834,-0.4934543663,0.\H,2.0043917115,-0.896092311
 2,0.\\Version=IBM-RS6000-G98RevA.6\State=1-A'\HF=-258.1831717\RMSD=5.6
 14e-09\RMSF=1.775e-04\Dipole=2.1318515,0.9067007,0.\PG=CS [SG(C1H2N4)]
 \\@


     ON THE SURVIVAL OF THE FITTEST -
 "STRONG REPRESENTATIVES FROM EACH PAST ERA THRIVE TODAY,
 SUCH AS PROGRAMMING IN THE THIRTY YEAR OLD LANGUAGE KNOWN
 AS FORTRAN, AND EVEN IN THE ANCIENT SCRIPT KNOWN AS DIRECT
 MACHINE CODE. SOME PEOPLE MIGHT LOOK ON SUCH RELICS AS LIVING
 FOSSILS; OTHERS WOULD POINT OUT THAT EVEN A VERY OLD SPECIES
 MIGHT STILL BE FILLING A PARTICULAR ECOLOGICAL NICHE."
     -- ALAN KAY, SCI.AM. SEPTEMBER 1984
 Job cpu time:  0 days  0 hours  4 minutes 33.4 seconds.
 File lengths (MBytes):  RWF=   12 Int=    0 D2E=    0 Chk=    8 Scr=    1
 Normal termination of Gaussian 98.
 Link1:  Proceeding to internal job step number  2.
 -------------------------------------------------
 #N Geom=AllCheck Guess=TCheck RB3LYP/LANL2DZ Freq
 -------------------------------------------------
 1/10=4,29=7,30=1,38=1/1,3;
 2//2;
 3/5=6,6=3,11=2,16=1,25=1,30=1/1,2,3;
 4/5=101,7=1,11=1/1;
 5/5=2,42=-5/2;
 8/6=4,11=11/1;
 11/6=1,8=1,9=11,15=111,16=11/1,2,10;
 10/6=1/2;
 6/7=2,8=2,9=2,10=2,18=1,28=1/1;
 7/8=1,10=1,25=1/1,2,3,16;
 1/10=4,30=1/3;
 99//99;
 ----------------------------------------
 1H tetrazole c CH-NH-N=N-N= casno=288948
 ----------------------------------------
 Redundant internal coordinates taken from checkpointfile:
 /wrk/rdj3/Gau-15392.chk
 Charge =  0 Multiplicity = 1
 N,0,-1.1815302168,-0.2747708081,0.
 N,0,-0.7036011123,0.9671233534,0.
 N,0,0.684785063,0.8335620081,0.
 H,0,1.2638123945,1.6621737109,0.
 N,0,-0.128359792,-1.212393868,0.
 C,0,1.0054563834,-0.4934543663,0.
 H,0,2.0043917115,-0.8960923112,0.
 Recover connectivity data from disk.

 GradGradGradGradGradGradGradGradGradGradGradGradGradGradGradGradGradGrad
 Berny optimization.
 Initialization pass.
                         ----------------------------
                         !    Initial Parameters    !
                         ! (Angstroms and Degrees)  !
 ------------------------                            -------------------------
 ! Name  Definition              Value          Derivative Info.             !
 -----------------------------------------------------------------------------
 ! R1    R(1,2)                  1.3307         calculate D2E/DX2 analyticall!
 ! R2    R(1,5)                  1.4101         calculate D2E/DX2 analyticall!
 ! R3    R(2,3)                  1.3948         calculate D2E/DX2 analyticall!
 ! R4    R(3,4)                  1.0109         calculate D2E/DX2 analyticall!
 ! R5    R(3,6)                  1.3652         calculate D2E/DX2 analyticall!
 ! R6    R(5,6)                  1.3425         calculate D2E/DX2 analyticall!
 ! R7    R(6,7)                  1.077          calculate D2E/DX2 analyticall!
 ! A1    A(2,1,5)              110.6296         calculate D2E/DX2 analyticall!
 ! A2    A(1,2,3)              105.5538         calculate D2E/DX2 analyticall!
 ! A3    A(2,3,4)              119.4507         calculate D2E/DX2 analyticall!
 ! A4    A(2,3,6)              109.0799         calculate D2E/DX2 analyticall!
 ! A5    A(4,3,6)              131.4695         calculate D2E/DX2 analyticall!
 ! A6    A(1,5,6)              105.9435         calculate D2E/DX2 analyticall!
 ! A7    A(3,6,5)              108.7933         calculate D2E/DX2 analyticall!
 ! A8    A(3,6,7)              125.5377         calculate D2E/DX2 analyticall!
 ! A9    A(5,6,7)              125.669          calculate D2E/DX2 analyticall!
 ! D1    D(5,1,2,3)              0.             calculate D2E/DX2 analyticall!
 ! D2    D(2,1,5,6)              0.             calculate D2E/DX2 analyticall!
 ! D3    D(1,2,3,4)            180.             calculate D2E/DX2 analyticall!
 ! D4    D(1,2,3,6)              0.             calculate D2E/DX2 analyticall!
 ! D5    D(2,3,6,5)              0.             calculate D2E/DX2 analyticall!
 ! D6    D(2,3,6,7)            180.             calculate D2E/DX2 analyticall!
 ! D7    D(4,3,6,5)            180.             calculate D2E/DX2 analyticall!
 ! D8    D(4,3,6,7)              0.             calculate D2E/DX2 analyticall!
 ! D9    D(1,5,6,3)              0.             calculate D2E/DX2 analyticall!
 ! D10   D(1,5,6,7)            180.             calculate D2E/DX2 analyticall!
 -----------------------------------------------------------------------------
 Trust Radius=3.00D-01 FncErr=1.00D-07 GrdErr=1.00D-07
 Number of steps in this run=  36 maximum allowed number of steps= 100.
 GradGradGradGradGradGradGradGradGradGradGradGradGradGradGradGradGradGrad

                          Input orientation:                          
 ---------------------------------------------------------------------
 Center     Atomic     Atomic              Coordinates (Angstroms)
 Number     Number      Type              X           Y           Z
 ---------------------------------------------------------------------
    1          7             0       -1.181530   -0.274771    0.000000
    2          7             0       -0.703601    0.967123    0.000000
    3          7             0        0.684785    0.833562    0.000000
    4          1             0        1.263812    1.662174    0.000000
    5          7             0       -0.128360   -1.212394    0.000000
[...]
 Frc consts  --     1.0218                 3.0694                 0.3692
 IR Inten    --    10.2405                 0.6778               151.4349
 Raman Activ --     0.0000                 0.0000                 0.0000
 Depolar     --     0.0000                 0.0000                 0.0000
 Atom AN      X      Y      Z        X      Y      Z        X      Y      Z
   1   7     0.00   0.00  -0.04     0.00   0.00   0.55     0.00   0.00  -0.03
   2   7     0.00   0.00   0.25     0.00   0.00  -0.39     0.00   0.00   0.03
   3   7     0.00   0.00  -0.31     0.00   0.00   0.10     0.00   0.00   0.08
   4   1     0.00   0.00  -0.15     0.00   0.00  -0.10     0.00   0.00  -0.99
   5   7     0.00   0.00  -0.15     0.00   0.00  -0.48     0.00   0.00  -0.02
   6   6     0.00   0.00   0.24     0.00   0.00   0.22     0.00   0.00   0.02
   7   1     0.00   0.00   0.86     0.00   0.00   0.50     0.00   0.00  -0.03
                     4                      5                      6
                    A"                     ?A                     A'
 Frequencies --   857.4273               884.3124               962.0355
 Red. masses --     1.4252                 7.2567                 5.7087
 Frc consts  --     0.6173                 3.3435                 3.1129
 IR Inten    --    20.2743                 8.1927                18.0932
 Raman Activ --     0.0000                 0.0000                 0.0000
 Depolar     --     0.0000                 0.0000                 0.0000
 Atom AN      X      Y      Z        X      Y      Z        X      Y      Z
   1   7     0.00   0.00   0.01    -0.34   0.16   0.00     0.04  -0.05   0.00
   2   7     0.00   0.00  -0.01    -0.05   0.13   0.00     0.39   0.24   0.00
   3   7     0.00   0.00   0.05    -0.14  -0.11   0.00    -0.24  -0.27   0.00
   4   1     0.00   0.00  -0.05     0.03  -0.10   0.00    -0.56  -0.31   0.00
   5   7     0.00   0.00   0.03     0.51  -0.15   0.00    -0.14   0.06   0.00
   6   6     0.00   0.00  -0.18     0.04  -0.08   0.00     0.00   0.01   0.00
   7   1     0.00   0.00   0.98    -0.19   0.69   0.00    -0.15   0.45   0.00
                     7                      8                      9
                    A'                     A'                     A'
 Frequencies --   992.7918              1023.7444              1134.9887
 Red. masses --     7.2243                 5.9353                 2.1113
 Frc consts  --     4.1953                 3.6650                 1.6025
 IR Inten    --     6.8568                13.5148                15.1975
 Raman Activ --     0.0000                 0.0000                 0.0000
 Depolar     --     0.0000                 0.0000                 0.0000
 Atom AN      X      Y      Z        X      Y      Z        X      Y      Z
   1   7     0.38   0.09   0.00    -0.23  -0.16   0.00     0.06   0.20   0.00
   2   7     0.01   0.18   0.00     0.35  -0.11   0.00     0.00  -0.07   0.00
   3   7    -0.12   0.16   0.00    -0.01   0.37   0.00    -0.14   0.01   0.00
   4   1     0.43   0.21   0.00    -0.57   0.34   0.00    -0.55  -0.02   0.00
   5   7     0.06  -0.35   0.00     0.06  -0.09   0.00     0.02   0.01   0.00
   6   6    -0.37  -0.12   0.00    -0.15   0.00   0.00     0.08  -0.12   0.00
   7   1    -0.49   0.18   0.00    -0.03  -0.41   0.00     0.27  -0.73   0.00
                    10                     11                     12
                    A'                     A'                     A'
 Frequencies --  1181.4418              1230.8749              1386.1703
 Red. masses --     4.1594                 2.7933                 2.8954
 Frc consts  --     3.4206                 2.4934                 3.2778
 IR Inten    --    12.4606                 1.6347                 4.3156
 Raman Activ --     0.0000                 0.0000                 0.0000
 Depolar     --     0.0000                 0.0000                 0.0000
 Atom AN      X      Y      Z        X      Y      Z        X      Y      Z
   1   7    -0.03   0.31   0.00    -0.02   0.03   0.00     0.01  -0.01   0.00
   2   7     0.13  -0.29   0.00     0.08  -0.03   0.00     0.03  -0.08   0.00
   3   7     0.13  -0.07   0.00     0.02  -0.11   0.00    -0.14   0.14   0.00
   4   1    -0.09  -0.11   0.00     0.69  -0.07   0.00     0.57   0.22   0.00
   5   7    -0.10  -0.06   0.00     0.10   0.23   0.00    -0.05   0.12   0.00
   6   6    -0.11   0.07   0.00    -0.25  -0.08   0.00     0.14  -0.28   0.00
   7   1    -0.35   0.78   0.00    -0.13  -0.59   0.00    -0.14   0.67   0.00
                    13                     14                     15
                    A'                     A'                     A'
 Frequencies --  1467.4713              3339.2006              3698.4052
 Red. masses --     2.0789                 1.1022                 1.0852
 Frc consts  --     2.6377                 7.2409                 8.7454
 IR Inten    --    34.1979                 3.5084               104.8419
 Raman Activ --     0.0000                 0.0000                 0.0000
 Depolar     --     0.0000                 0.0000                 0.0000
 Atom AN      X      Y      Z        X      Y      Z        X      Y      Z
   1   7     0.04  -0.03   0.00     0.00   0.00   0.00     0.00   0.00   0.00
   2   7    -0.07   0.05   0.00     0.00   0.00   0.00     0.00   0.00   0.00
   3   7     0.15   0.01   0.00     0.00   0.00   0.00     0.01  -0.08   0.00
   4   1    -0.86  -0.07   0.00     0.01   0.03   0.00    -0.08   0.99   0.00
   5   7     0.04   0.11   0.00     0.00   0.00   0.00     0.00   0.00   0.00
   6   6    -0.09  -0.18   0.00     0.09   0.03   0.00    -0.01   0.00   0.00
   7   1    -0.27   0.29   0.00    -0.95  -0.30   0.00     0.02   0.00   0.00

 -------------------
 - Thermochemistry -
 -------------------
 Temperature   298.150 Kelvin.  Pressure   1.00000 Atm.
 Atom  1 has atomic number  7 and mass  14.00307
 Atom  2 has atomic number  7 and mass  14.00307
 Atom  3 has atomic number  7 and mass  14.00307
 Atom  4 has atomic number  1 and mass   1.00783
 Atom  5 has atomic number  7 and mass  14.00307
 Atom  6 has atomic number  6 and mass  12.00000
 Atom  7 has atomic number  1 and mass   1.00783
 Molecular mass:    70.02795 amu.
 Principal axes and moments of inertia in atomic units:
                           1         2         3
     EIGENVALUES --   180.17121 183.69310 363.86432
           X            0.99197   0.12647   0.00000
           Y           -0.12647   0.99197   0.00000
           Z            0.00000   0.00000   1.00000
 THIS MOLECULE IS AN ASYMMETRIC TOP.
 ROTATIONAL SYMMETRY NUMBER  1.
 ROTATIONAL TEMPERATURES (KELVIN)      0.48073     0.47151     0.23804
 ROTATIONAL CONSTANTS (GHZ)           10.01681     9.82476     4.95993
 Zero-point vibrational energy     121204.1 (Joules/Mol)
                                   28.96847 (Kcal/Mol)
 VIBRATIONAL TEMPERATURES:    943.15  1011.13  1074.14  1233.64  1272.32
          (KELVIN)           1384.15  1428.40  1472.93  1632.99  1699.82
                             1770.94  1994.38  2111.35  4804.34  5321.15
 
 Zero-point correction=                           0.046164 (Hartree/Particle)
 Thermal correction to Energy=                    0.049638
 Thermal correction to Enthalpy=                  0.050582
 Thermal correction to Gibbs Free Energy=         0.020007
 Sum of electronic and zero-point Energies=           -258.137008
 Sum of electronic and thermal Energies=              -258.133533
 Sum of electronic and thermal Enthalpies=            -258.132589
 Sum of electronic and thermal Free Energies=         -258.163165
 
                     E (Thermal)             CV                S
                      KCAL/MOL        CAL/MOL-KELVIN    CAL/MOL-KELVIN
 TOTAL                   31.149             11.535             64.353
 ELECTRONIC               0.000              0.000              0.000
 TRANSLATIONAL            0.889              2.981             38.656
 ROTATIONAL               0.889              2.981             24.003
 VIBRATIONAL             29.371              5.573              1.694
                       Q            LOG10(Q)             LN(Q)
 TOTAL BOT       0.627607D-09         -9.202312        -21.189107
 TOTAL V=0       0.107547D+13         12.031597         27.703775
 VIB (BOT)       0.693605D-21        -21.158888        -48.720140
 VIB (V=0)       0.118856D+01          0.075021          0.172742
 ELECTRONIC      0.100000D+01          0.000000          0.000000
 TRANSLATIONAL   0.230339D+08          7.362368         16.952478
 ROTATIONAL      0.392833D+05          4.594208         10.578555
 ***** Axes restored to original set *****
 -------------------------------------------------------------------
 Center     Atomic                   Forces (Hartrees/Bohr)
 Number     Number              X              Y              Z
 -------------------------------------------------------------------
    1          7          -0.000017769   -0.000002727    0.000000000
    2          7          -0.000459751    0.000050750    0.000000000
    3          7           0.000264759   -0.000234869    0.000000000
    4          1           0.000008593    0.000052238    0.000000000
    5          7          -0.000277563    0.000071401    0.000000000
    6          6           0.000468491    0.000120638    0.000000000
    7          1           0.000013240   -0.000057432    0.000000000
 -------------------------------------------------------------------
 Cartesian Forces:  Max     0.000468491 RMS     0.000177547

 GradGradGradGradGradGradGradGradGradGradGradGradGradGradGradGradGradGrad
 Berny optimization.
 Internal  Forces:  Max     0.000439423 RMS     0.000122588
 Search for a local minimum.
 Step number   1 out of a maximum of  36
 All quantities printed in internal units (Hartrees-Bohrs-Radians)
 Second derivative matrix not updated -- analytic derivatives used.
     Eigenvalues ---    0.01189   0.02633   0.07185   0.07680   0.09954
     Eigenvalues ---    0.10901   0.16862   0.20176   0.31360   0.36829
     Eigenvalues ---    0.39111   0.43604   0.48661   0.53479   0.60183
     Eigenvalues --- 1000.000001000.000001000.000001000.000001000.00000
     Eigenvalues --- 1000.000001000.000001000.000001000.000001000.00000
     Eigenvalues --- 1000.00000
 Angle between quadratic step and forces=  32.06 degrees.
 Linear search not attempted -- first point.
 Iteration  1 RMS(Cart)=  0.00040071 RMS(Int)=  0.00000013
 Iteration  2 RMS(Cart)=  0.00000012 RMS(Int)=  0.00000000
 Variable       Old X    -DE/DX   Delta X   Delta X   Delta X     New X
                                 (Linear)    (Quad)   (Total)
    R1        2.51463  -0.00007   0.00000  -0.00021  -0.00021   2.51442
    R2        2.66465  -0.00001   0.00000  -0.00061  -0.00061   2.66404
    R3        2.63578   0.00044   0.00000   0.00157   0.00157   2.63735
    R4        1.91028   0.00005   0.00000   0.00011   0.00011   1.91039
    R5        2.57988  -0.00003   0.00000  -0.00035  -0.00035   2.57952
    R6        2.53703   0.00027   0.00000   0.00083   0.00083   2.53786
    R7        2.03529   0.00003   0.00000   0.00006   0.00006   2.03535
    A1        1.93085  -0.00002   0.00000   0.00031   0.00031   1.93116
    A2        1.84226  -0.00004   0.00000  -0.00042  -0.00042   1.84184
    A3        2.08481  -0.00006   0.00000  -0.00053  -0.00053   2.08428
    A4        1.90380   0.00008   0.00000   0.00016   0.00016   1.90397
    A5        2.29457  -0.00001   0.00000   0.00037   0.00037   2.29494
    A6        1.84906   0.00019   0.00000   0.00039   0.00039   1.84946
    A7        1.89880  -0.00020   0.00000  -0.00044  -0.00044   1.89836
    A8        2.19105   0.00015   0.00000   0.00090   0.00090   2.19195
    A9        2.19334   0.00006   0.00000  -0.00046  -0.00046   2.19288
    D1        0.00000   0.00000   0.00000   0.00000   0.00000   0.00000
    D2        0.00000   0.00000   0.00000   0.00000   0.00000   0.00000
    D3        3.14159   0.00000   0.00000   0.00000   0.00000   3.14159
    D4        0.00000   0.00000   0.00000   0.00000   0.00000   0.00000
    D5        0.00000   0.00000   0.00000   0.00000   0.00000   0.00000
    D6        3.14159   0.00000   0.00000   0.00000   0.00000   3.14159
    D7        3.14159   0.00000   0.00000   0.00000   0.00000   3.14159
    D8        0.00000   0.00000   0.00000   0.00000   0.00000   0.00000
    D9        0.00000   0.00000   0.00000   0.00000   0.00000   0.00000
   D10        3.14159   0.00000   0.00000   0.00000   0.00000   3.14159
         Item               Value     Threshold  Converged?
 Maximum Force            0.000439     0.000450     YES
 RMS     Force            0.000123     0.000300     YES
 Maximum Displacement     0.001129     0.001800     YES
 RMS     Displacement     0.000401     0.001200     YES
 Predicted change in Energy=-6.377899D-07
 Optimization completed.
    -- Stationary point found.
                         ----------------------------
                         !   Optimized Parameters   !
                         ! (Angstroms and Degrees)  !
 ------------------------                            -------------------------
 ! Name  Definition              Value          Derivative Info.             !
 -----------------------------------------------------------------------------
 ! R1    R(1,2)                  1.3307         -DE/DX =   -0.0001           !
 ! R2    R(1,5)                  1.4101         -DE/DX =    0.               !
 ! R3    R(2,3)                  1.3948         -DE/DX =    0.0004           !
 ! R4    R(3,4)                  1.0109         -DE/DX =    0.               !
 ! R5    R(3,6)                  1.3652         -DE/DX =    0.               !
 ! R6    R(5,6)                  1.3425         -DE/DX =    0.0003           !
 ! R7    R(6,7)                  1.077          -DE/DX =    0.               !
 ! A1    A(2,1,5)              110.6296         -DE/DX =    0.               !
 ! A2    A(1,2,3)              105.5538         -DE/DX =    0.               !
 ! A3    A(2,3,4)              119.4507         -DE/DX =   -0.0001           !
 ! A4    A(2,3,6)              109.0799         -DE/DX =    0.0001           !
 ! A5    A(4,3,6)              131.4695         -DE/DX =    0.               !
 ! A6    A(1,5,6)              105.9435         -DE/DX =    0.0002           !
 ! A7    A(3,6,5)              108.7933         -DE/DX =   -0.0002           !
 ! A8    A(3,6,7)              125.5377         -DE/DX =    0.0001           !
 ! A9    A(5,6,7)              125.669          -DE/DX =    0.0001           !
 ! D1    D(5,1,2,3)              0.             -DE/DX =    0.               !
 ! D2    D(2,1,5,6)              0.             -DE/DX =    0.               !
 ! D3    D(1,2,3,4)            180.             -DE/DX =    0.               !
 ! D4    D(1,2,3,6)              0.             -DE/DX =    0.               !
 ! D5    D(2,3,6,5)              0.             -DE/DX =    0.               !
 ! D6    D(2,3,6,7)            180.             -DE/DX =    0.               !
 ! D7    D(4,3,6,5)            180.             -DE/DX =    0.               !
 ! D8    D(4,3,6,7)              0.             -DE/DX =    0.               !
 ! D9    D(1,5,6,3)              0.             -DE/DX =    0.               !
 ! D10   D(1,5,6,7)            180.             -DE/DX =    0.               !
 -----------------------------------------------------------------------------
 GradGradGradGradGradGradGradGradGradGradGradGradGradGradGradGradGradGrad

 1\1\GINC-INDIUM\Freq\RB3LYP\LANL2DZ\C1H2N4\RDJ3\27-Oct-2000\0\\#N GEOM
 =ALLCHECK GUESS=TCHECK RB3LYP/LANL2DZ FREQ\\1H tetrazole c CH-NH-N=N-N
 = casno=288948\\0,1\N,-1.1815302168,-0.2747708081,0.\N,-0.7036011123,0
 .9671233534,0.\N,0.684785063,0.8335620081,0.\H,1.2638123945,1.66217371
 09,0.\N,-0.128359792,-1.212393868,0.\C,1.0054563834,-0.4934543663,0.\H
 ,2.0043917115,-0.8960923112,0.\\Version=IBM-RS6000-G98RevA.6\State=1-A
 '\HF=-258.1831717\RMSD=7.291e-09\RMSF=1.775e-04\Dipole=2.1318504,0.906
 7016,0.\DipoleDeriv=0.0842403,-0.1214522,-0.0021074,-0.1787472,0.03362
 71,0.0000316,0.0034117,0.0025292,-0.1706994,0.3204852,0.1931336,0.0016
 2,0.1720961,-0.2848507,0.0014438,-0.0005867,-0.0001762,-0.0915686,-0.4
 408258,-0.273292,0.0002158,-0.2031011,-0.3067674,-0.0005904,-0.0016331
 ,-0.0009965,-0.2004146,0.2399375,0.0360295,-0.0008101,0.039403,0.27256
 2,-0.0009485,0.0002563,0.0000997,0.404009,-0.3998994,0.141548,0.001183
 6,-0.0198495,-0.2292342,-0.0015583,-0.0015341,-0.0011815,-0.1855781,0.
 126965,0.010956,0.0001383,0.1859941,0.3659391,0.0015382,-0.0000207,-0.
 0002764,0.0267578,0.0690975,0.0130769,-0.0002402,0.0042046,0.1487243,0
 .0000837,0.0001066,0.0000017,0.2174939\Polar=40.5256539,0.0235421,38.7
 693673,-0.0374483,-0.0208508,15.3451592\PG=CS [SG(C1H2N4)]\NImag=0\\0.
 46922475,0.08491715,0.37358470,-0.00020619,0.00006298,0.11170663,-0.10
 668404,-0.09412743,0.00013994,0.34769083,-0.02234203,-0.24895538,0.000
 11722,-0.03587529,0.51481832,0.00001996,-0.00000843,-0.08604557,-0.000
 01689,-0.00001144,0.10339917,-0.11189864,-0.09072192,0.00001029,-0.159
 90745,0.00599400,-0.00001344,0.59545499,-0.02884207,-0.05899904,-0.000
 08280,0.04662995,-0.10803004,0.00002250,0.22315847,0.89730530,0.000104
 89,-0.00000872,0.02239326,-0.00007345,-0.00006777,-0.06760388,0.000002
 25,0.00002413,0.11320766,-0.00951136,-0.00044646,-0.00006968,-0.005818
 13,-0.03300003,0.00001766,-0.19730469,-0.18956870,0.00002998,0.1997673
 2,0.00865224,0.00194217,-0.00008310,0.00701514,0.01146049,0.00002120,-
 0.19395575,-0.35003240,0.00003413,0.19879904,0.34578023,-0.00001467,-0
 .00000210,0.00715306,0.00001142,0.00001059,-0.00822993,0.00000094,-0.0
 0000344,-0.01914639,-0.00000555,-0.00000612,0.01901899,-0.12372233,0.0
 4773607,0.00009401,-0.01173491,0.07747436,-0.00001804,0.00122360,-0.10
 384276,-0.00005828,-0.00134026,0.00006419,0.00001081,0.41926393,-0.008
 02383,-0.08727495,-0.00021103,-0.01410532,-0.11353947,0.00001680,-0.00
 404060,-0.08619369,0.00008723,0.00872849,-0.00485067,-0.00000734,0.104
 96174,0.45178455,0.00009730,-0.00003446,-0.08282729,-0.00006193,-0.000
 05326,0.03164914,0.00000004,0.00003936,0.02145824,0.00002926,0.0000344
 8,0.00756073,-0.00004571,0.00010314,0.10382671,-0.11603098,0.05311426,
 0.00006510,-0.06409522,0.01213620,-0.00000097,-0.13419137,0.05953726,-
 0.00001207,0.01471853,-0.02143777,-0.00000176,-0.27105738,-0.09920271,
 -0.00003349,0.90500036,-0.02885020,0.02111755,0.00018540,0.09266694,-0
 .05059084,-0.00003709,0.02735648,-0.28764679,-0.00006615,0.01572907,-0
 .00395365,0.00000816,-0.10702451,-0.17217864,-0.00008400,-0.11750745,0
 .59158609,0.00000506,-0.00000831,0.01905597,-0.00000356,-0.00000013,0.
 02173113,0.00000030,0.00000108,-0.06926142,0.00000003,0.00000117,-0.00
 549372,0.00001102,0.00001575,-0.07742910,-0.00001432,-0.00000942,0.141
 43342,-0.00137739,-0.00047168,-0.00003347,0.00054893,-0.00438720,0.000
 01171,0.00662355,-0.00707214,0.00000668,-0.00051141,0.00086291,-0.0000
 0118,-0.01263265,0.01168222,0.00001454,-0.33434395,0.11762969,0.000001
 47,0.34169292,-0.00551126,-0.00141505,0.00001134,-0.00220399,-0.005163
 07,-0.00000354,0.03220933,-0.00640334,-0.00000285,-0.00024140,-0.00034
 618,0.00000024,-0.01936909,0.01225287,-0.00000527,0.11336021,-0.098333
 71,-0.00000013,-0.11824381,0.09940848,-0.00000636,-0.00000094,0.008563
 94,0.00000447,0.00000481,0.00509994,-0.00000039,-0.00000085,-0.0010474
 7,-0.00000170,-0.00000177,-0.00086274,0.00000620,-0.00000455,-0.004238
 43,-0.00000249,0.00000309,-0.03003628,0.00000025,0.00000021,0.02252103
 \\0.00001777,0.00000273,0.,0.00045975,-0.00005075,0.,-0.00026476,0.000
 23487,0.,-0.00000859,-0.00005224,0.,0.00027756,-0.00007140,0.,-0.00046
 849,-0.00012064,0.,-0.00001324,0.00005743,0.\\\@


 Sometimes the fool who rushes in gets the job done.
                                    -- Al Bernstein
 Job cpu time:  0 days  0 hours  2 minutes 13.7 seconds.
 File lengths (MBytes):  RWF=   12 Int=    0 D2E=    0 Chk=    8 Scr=    1
 Normal termination of Gaussian 98.
