 Entering Link 1 = c:\pub\G98W\l1.exe PID=     74732.
  
 Copyright (c) 1988,1990,1992,1993,1995,1998 Gaussian, Inc.
                  All Rights Reserved.
  
 This is part of the Gaussian(R) 98 program.  It is based on
 the Gaussian 94(TM) system (copyright 1995 Gaussian, Inc.),
 the Gaussian 92(TM) system (copyright 1992 Gaussian, Inc.),
 the Gaussian 90(TM) system (copyright 1990 Gaussian, Inc.),
 the Gaussian 88(TM) system (copyright 1988 Gaussian, Inc.),
 the Gaussian 86(TM) system (copyright 1986 Carnegie Mellon
 University), and the Gaussian 82(TM) system (copyright 1983
 Carnegie Mellon University). Gaussian is a federally registered
 trademark of Gaussian, Inc.
  
 This software contains proprietary and confidential information,
 including trade secrets, belonging to Gaussian, Inc.
  
 This software is provided under written license and may be
 used, copied, transmitted, or stored only in accord with that
 written license.
  
 The following legend is applicable only to US Government
 contracts under DFARS:
  
                    RESTRICTED RIGHTS LEGEND
  
 Use, duplication or disclosure by the US Government is subject
 to restrictions as set forth in subparagraph (c)(1)(ii) of the
 Rights in Technical Data and Computer Software clause at DFARS
 252.227-7013.
  
 Gaussian, Inc.
 Carnegie Office Park, Building 6, Pittsburgh, PA 15106 USA
  
 The following legend is applicable only to US Government
 contracts under FAR:
  
                    RESTRICTED RIGHTS LEGEND
  
 Use, reproduction and disclosure by the US Government is subject
 to restrictions as set forth in subparagraph (c) of the
 Commercial Computer Software - Restricted Rights clause at FAR
 52.227-19.
  
 Gaussian, Inc.
 Carnegie Office Park, Building 6, Pittsburgh, PA 15106 USA
  
  
 ---------------------------------------------------------------
 Warning -- This program may not be used in any manner that
 competes with the business of Gaussian, Inc. or will provide
 assistance to any competitor of Gaussian, Inc.  The licensee
 of this program is prohibited from giving any competitor of
 Gaussian, Inc. access to this program.  By using this program,
 the user acknowledges that Gaussian, Inc. is engaged in the
 business of creating and licensing software in the field of
 computational chemistry and represents and warrants to the
 licensee that it is not a competitor of Gaussian, Inc. and that
 it will not use this program in any manner prohibited above.
 ---------------------------------------------------------------
  

 Cite this work as:
 Gaussian 98, Revision A.7,
 M. J. Frisch, G. W. Trucks, H. B. Schlegel, G. E. Scuseria, 
 M. A. Robb, J. R. Cheeseman, V. G. Zakrzewski, J. A. Montgomery, Jr., 
 R. E. Stratmann, J. C. Burant, S. Dapprich, J. M. Millam, 
 A. D. Daniels, K. N. Kudin, M. C. Strain, O. Farkas, J. Tomasi, 
 V. Barone, M. Cossi, R. Cammi, B. Mennucci, C. Pomelli, C. Adamo, 
 S. Clifford, J. Ochterski, G. A. Petersson, P. Y. Ayala, Q. Cui, 
 K. Morokuma, D. K. Malick, A. D. Rabuck, K. Raghavachari, 
 J. B. Foresman, J. Cioslowski, J. V. Ortiz, A. G. Baboul, 
 B. B. Stefanov, G. Liu, A. Liashenko, P. Piskorz, I. Komaromi, 
 R. Gomperts, R. L. Martin, D. J. Fox, T. Keith, M. A. Al-Laham, 
 C. Y. Peng, A. Nanayakkara, C. Gonzalez, M. Challacombe, 
 P. M. W. Gill, B. Johnson, W. Chen, M. W. Wong, J. L. Andres, 
 C. Gonzalez, M. Head-Gordon, E. S. Replogle, and J. A. Pople, 
 Gaussian, Inc., Pittsburgh PA, 1998.

 *********************************************
 Gaussian 98:  x86-Win32-G98RevA.7 11-Apr-1999
                  17-Jan-2004 
 *********************************************
 %mem=56000000
 Default route:  MaxDisk=40000MB
 ----------------------------
 #B3LYP/6-31G(2df,p) opt freq
 ----------------------------
 1/14=-1,18=20,26=3,38=1/1,3;
 2/9=110,17=6,18=5/2;
 3/5=1,6=6,7=104,11=2,25=1,30=1/1,2,3;
 4//1;
 5/5=2,38=4,42=-5/2;
 6/7=2,8=2,9=2,10=2,28=1/1;
 7//1,2,3,16;
 1/14=-1,18=20/3(1);
 99//99;
 2/9=110/2;
 3/5=1,6=6,7=104,11=2,25=1,30=1/1,2,3;
 4/5=5,16=2/1;
 5/5=2,38=4,42=-5/2;
 7//1,2,3,16;
 1/14=-1,18=20/3(-5);
 2/9=110/2;
 6/7=2,8=2,9=2,10=2,19=2,28=1/1;
 99/9=1/99;
 -----------------------------------
 1htz casno=288948 method=8 basis=19
 -----------------------------------
 Symbolic Z-matrix:
 Charge =  0 Multiplicity = 1
 N                    -0.71631  -0.90193   0. 
 N                    -1.09552   0.29142   0. 
 N                     0.        1.03878   0. 
 H                    -0.06148   2.03099   0. 
 N                     0.62215  -0.9895    0. 
 C                     1.05281   0.22578   0. 
 H                     2.07237   0.54298   0. 

 GradGradGradGradGradGradGradGradGradGradGradGradGradGradGradGradGradGrad
 Berny optimization.
 Initialization pass.
                         ----------------------------
                         !    Initial Parameters    !
                         ! (Angstroms and Degrees)  !
 ------------------------                            -------------------------
 ! Name  Definition              Value          Derivative Info.             !
 -----------------------------------------------------------------------------
 ! R1    R(1,2)                  1.2522         estimate D2E/DX2             !
 ! R2    R(1,5)                  1.3413         estimate D2E/DX2             !
 ! R3    R(2,3)                  1.3262         estimate D2E/DX2             !
 ! R4    R(3,4)                  0.9941         estimate D2E/DX2             !
 ! R5    R(3,6)                  1.3302         estimate D2E/DX2             !
 ! R6    R(5,6)                  1.2893         estimate D2E/DX2             !
 ! R7    R(6,7)                  1.0678         estimate D2E/DX2             !
 ! A1    A(2,1,5)              111.3714         estimate D2E/DX2             !
 ! A2    A(1,2,3)              106.673          estimate D2E/DX2             !
 ! A3    A(2,3,4)              120.7559         estimate D2E/DX2             !
 ! A4    A(2,3,6)              108.0227         estimate D2E/DX2             !
 ! A5    A(4,3,6)              131.2214         estimate D2E/DX2             !
 ! A6    A(1,5,6)              105.7701         estimate D2E/DX2             !
 ! A7    A(3,6,5)              108.1628         estimate D2E/DX2             !
 ! A8    A(3,6,7)              125.0426         estimate D2E/DX2             !
 ! A9    A(5,6,7)              126.7946         estimate D2E/DX2             !
 ! D1    D(5,1,2,3)              0.             estimate D2E/DX2             !
 ! D2    D(2,1,5,6)              0.             estimate D2E/DX2             !
 ! D3    D(1,2,3,4)            180.             estimate D2E/DX2             !
 ! D4    D(1,2,3,6)              0.             estimate D2E/DX2             !
 ! D5    D(2,3,6,5)              0.             estimate D2E/DX2             !
 ! D6    D(2,3,6,7)            180.             estimate D2E/DX2             !
 ! D7    D(4,3,6,5)            180.             estimate D2E/DX2             !
 ! D8    D(4,3,6,7)              0.             estimate D2E/DX2             !
 ! D9    D(1,5,6,3)              0.             estimate D2E/DX2             !
 ! D10   D(1,5,6,7)            180.             estimate D2E/DX2             !
 -----------------------------------------------------------------------------
 Trust Radius=3.00D-01 FncErr=1.00D-07 GrdErr=1.00D-06
 Number of steps in this run=  36 maximum allowed number of steps= 100.
 GradGradGradGradGradGradGradGradGradGradGradGradGradGradGradGradGradGrad

                          Input orientation:                          
 ---------------------------------------------------------------------
 Center     Atomic     Atomic              Coordinates (Angstroms)
 Number     Number      Type              X           Y           Z
 ---------------------------------------------------------------------
    1          7             0       -0.716312   -0.901934    0.000000
    2          7             0       -1.095520    0.291420    0.000000
    3          7             0        0.000000    1.038775    0.000000
    4          1             0       -0.061479    2.030994    0.000000
    5          7             0        0.622151   -0.989495    0.000000
    6          6             0        1.052813    0.225779    0.000000
    7          1             0        2.072370    0.542976    0.000000
 ---------------------------------------------------------------------
                    Distance matrix (angstroms):
                    1          2          3          4          5
     1  N    0.000000
     2  N    1.252155   0.000000
     3  N    2.068684   1.326161   0.000000
     4  H    3.005141   2.023699   0.994122   0.000000
     5  N    1.341324   2.142694   2.121544   3.096886   0.000000
     6  C    2.097985   2.149336   1.330180   2.121426   1.289326
     7  H    3.140782   3.177862   2.130853   2.601444   2.109882
                    6          7
     6  C    0.000000
     7  H    1.067760   0.000000
 Stoichiometry    CH2N4
 Framework group  CS[SG(CH2N4)]
 Deg. of freedom   11
 Full point group                 CS      NOp   2
 Largest Abelian subgroup         CS      NOp   2
 Largest concise Abelian subgroup C1      NOp   1
                         Standard orientation:                         
 ---------------------------------------------------------------------
 Center     Atomic     Atomic              Coordinates (Angstroms)
 Number     Number      Type              X           Y           Z
 ---------------------------------------------------------------------
    1          7             0       -0.716312   -0.901934    0.000000
    2          7             0       -1.095520    0.291420    0.000000
    3          7             0        0.000000    1.038775    0.000000
    4          1             0       -0.061479    2.030994    0.000000
    5          7             0        0.622151   -0.989495    0.000000
    6          6             0        1.052813    0.225779    0.000000
    7          1             0        2.072370    0.542976    0.000000
 ---------------------------------------------------------------------
 Rotational constants (GHZ):     10.9198663     10.7343948      5.4131681
 Isotopes: N-14,N-14,N-14,H-1,N-14,C-12,H-1
 Standard basis: 6-31G(2df,p) (6D, 7F)
 There are   103 symmetry adapted basis functions of A'  symmetry.
 There are    47 symmetry adapted basis functions of A"  symmetry.
 Crude estimate of integral set expansion from redundant integrals=1.000.
 Integral buffers will be    262144 words long.
 Raffenetti 2 integral format.
 Two-electron integral symmetry is turned on.
   150 basis functions      234 primitive gaussians
    18 alpha electrons       18 beta electrons
       nuclear repulsion energy       169.8288360377 Hartrees.
 One-electron integrals computed using PRISM.
 NBasis=   150 RedAO= T  NBF=   103    47
 NBsUse=   150 1.00D-04 NBFU=   103    47
 Projected INDO Guess.
 Initial guess orbital symmetries:
       Occupied  (A') (A') (A') (A') (A') (A') (A') (A') (A') (A')
                 (A') (A") (A') (A') (A") (A") (A') (A')
       Virtual   (A") (A') (A") (A') (A') (A') (A') (A') (A') (A')
                 (A') (A') (A') (A') (A') (A') (A') (A') (A') (A')
                 (A') (A') (A') (A') (A') (A') (A') (A') (A') (A')
                 (A') (A') (A') (A') (A') (A') (A') (A') (A') (A')
                 (A') (A') (A') (A') (A') (A') (A') (A') (A') (A')
                 (A') (A') (A') (A') (A') (A') (A') (A') (A') (A')
                 (A') (A') (A') (A') (A') (A') (A') (A') (A') (A')
                 (A') (A') (A') (A') (A') (A') (A') (A') (A') (A')
                 (A') (A') (A') (A') (A') (A') (A') (A') (A') (A')
                 (A") (A") (A") (A") (A") (A") (A") (A") (A") (A")
                 (A") (A") (A") (A") (A") (A") (A") (A") (A") (A")
                 (A") (A") (A") (A") (A") (A") (A") (A") (A") (A")
                 (A") (A") (A") (A") (A") (A") (A") (A") (A") (A")
                 (A") (A")
 Requested convergence on RMS density matrix=1.00D-08 within  64 cycles.
 Requested convergence on MAX density matrix=1.00D-06.
 Integral accuracy reduced to 1.0D-05 until final iterations.
 Initial convergence to 1.0D-05 achieved.  Increase integral accuracy.
 SCF Done:  E(RB+HF-LYP) =  -258.263989437     A.U. after   15 cycles
             Convg  =    0.4491D-08             -V/T =  2.0054
             S**2   =   0.0000

 **********************************************************************

            Population analysis using the SCF density.

 **********************************************************************

 Orbital Symmetries:
       Occupied  (A') (A') (A') (A') (A') (A') (A') (A') (A') (A')
                 (A') (A") (A') (A') (A") (A") (A') (A')
       Virtual   (A") (A") (A') (A') (A') (A') (A') (A') (A') (A')
                 (A") (A') (A') (A') (A') (A") (A') (A') (A") (A")
                 (A') (A') (A") (A') (A") (A') (A') (A") (A") (A')
                 (A') (A") (A") (A') (A') (A') (A') (A") (A") (A')
                 (A') (A") (A') (A') (A') (A") (A') (A') (A") (A')
                 (A') (A') (A') (A') (A') (A") (A') (A') (A") (A')
                 (A') (A") (A') (A") (A') (A") (A') (A") (A') (A')
                 (A") (A') (A') (A") (A') (A") (A') (A') (A") (A')
                 (A') (A') (A") (A') (A') (A") (A') (A') (A") (A")
                 (A") (A') (A') (A") (A") (A") (A') (A") (A") (A')
                 (A') (A") (A") (A') (A') (A") (A") (A') (A") (A')
                 (A") (A') (A') (A') (A') (A') (A') (A') (A") (A')
                 (A') (A') (A') (A') (A') (A') (A') (A') (A') (A')
                 (A') (A')
  The electronic state is 1-A'.
 Alpha  occ. eigenvalues --  -14.43924 -14.40278 -14.38506 -14.35486 -10.26957
 Alpha  occ. eigenvalues --   -1.16528  -0.95606  -0.90551  -0.68608  -0.67275
 Alpha  occ. eigenvalues --   -0.60519  -0.51003  -0.50484  -0.38364  -0.33580
 Alpha  occ. eigenvalues --   -0.31529  -0.30073  -0.28577
 Alpha virt. eigenvalues --   -0.01142   0.02573   0.06033   0.11351   0.19252
 Alpha virt. eigenvalues --    0.20601   0.27374   0.30159   0.39263   0.44191
 Alpha virt. eigenvalues --    0.45642   0.47799   0.51838   0.55395   0.57020
 Alpha virt. eigenvalues --    0.60291   0.60989   0.62103   0.65258   0.66731
 Alpha virt. eigenvalues --    0.72513   0.73325   0.76271   0.76882   0.78522
 Alpha virt. eigenvalues --    0.84100   0.86258   0.86764   0.87846   0.90503
 Alpha virt. eigenvalues --    0.95665   1.06939   1.07815   1.08001   1.22289
 Alpha virt. eigenvalues --    1.25768   1.27595   1.35525   1.37164   1.41418
 Alpha virt. eigenvalues --    1.44424   1.49733   1.53423   1.59966   1.62709
 Alpha virt. eigenvalues --    1.63122   1.66773   1.69712   1.79391   1.79471
 Alpha virt. eigenvalues --    1.92625   1.94225   2.02271   2.10334   2.17018
 Alpha virt. eigenvalues --    2.21807   2.32998   2.45185   2.57274   2.79720
 Alpha virt. eigenvalues --    2.88936   2.89610   2.93716   2.98906   3.06054
 Alpha virt. eigenvalues --    3.10485   3.11871   3.18885   3.22413   3.29763
 Alpha virt. eigenvalues --    3.33854   3.35397   3.37721   3.41569   3.46168
 Alpha virt. eigenvalues --    3.49643   3.58420   3.61254   3.72083   3.72187
 Alpha virt. eigenvalues --    3.78793   3.85628   3.94304   3.94558   4.02339
 Alpha virt. eigenvalues --    4.04511   4.04759   4.06637   4.13442   4.17487
 Alpha virt. eigenvalues --    4.19901   4.23485   4.27612   4.31506   4.39612
 Alpha virt. eigenvalues --    4.45336   4.48047   4.50562   4.53343   4.53642
 Alpha virt. eigenvalues --    4.56486   4.56567   4.59739   4.60678   4.65498
 Alpha virt. eigenvalues --    4.81357   4.83919   4.87942   4.88525   4.97746
 Alpha virt. eigenvalues --    5.00325   5.05069   5.06881   5.20175   5.26207
 Alpha virt. eigenvalues --    5.35493   5.46347   5.52143   5.56023   5.59593
 Alpha virt. eigenvalues --    5.74651   5.81502   6.28532   6.45361   8.11297
 Alpha virt. eigenvalues --   10.34870  11.25580  11.27310  11.35388  11.45848
 Alpha virt. eigenvalues --   16.01249  19.11710
          Condensed to atoms (all electrons):
              1          2          3          4          5          6
  1  N    6.325411   0.526080  -0.132476   0.007120   0.498896  -0.142996
  2  N    0.526080   6.442762   0.391657  -0.024672  -0.172465  -0.098711
  3  N   -0.132476   0.391657   6.162590   0.346742  -0.028867   0.465346
  4  H    0.007120  -0.024672   0.346742   0.404856   0.007423  -0.034394
  5  N    0.498896  -0.172465  -0.028867   0.007423   6.369613   0.544191
  6  C   -0.142996  -0.098711   0.465346  -0.034394   0.544191   4.822645
  7  H    0.005031   0.003882  -0.026515   0.000551  -0.017104   0.369537
              7
  1  N    0.005031
  2  N    0.003882
  3  N   -0.026515
  4  H    0.000551
  5  N   -0.017104
  6  C    0.369537
  7  H    0.495614
 Total atomic charges:
              1
  1  N   -0.087067
  2  N   -0.068533
  3  N   -0.178477
  4  H    0.292375
  5  N   -0.201687
  6  C    0.074382
  7  H    0.169005
 Sum of Mulliken charges=   0.00000
 Atomic charges with hydrogens summed into heavy atoms:
              1
  1  N   -0.087067
  2  N   -0.068533
  3  N    0.113898
  4  H    0.000000
  5  N   -0.201687
  6  C    0.243387
  7  H    0.000000
 Sum of Mulliken charges=   0.00000
 Electronic spatial extent (au):  <R**2>=   243.3974
 Charge=     0.0000 electrons
 Dipole moment (Debye):
    X=     2.3932    Y=     4.5883    Z=     0.0000  Tot=     5.1749
 Quadrupole moment (Debye-Ang):
   XX=   -28.4602   YY=   -25.9198   ZZ=   -27.6848
   XY=     1.6796   XZ=     0.0000   YZ=     0.0000
 Octapole moment (Debye-Ang**2):
  XXX=    10.8402  YYY=    20.8615  ZZZ=     0.0000  XYY=    -0.6245
  XXY=     4.1973  XXZ=     0.0000  XZZ=    -0.6506  YZZ=     0.5094
  YYZ=     0.0000  XYZ=     0.0000
 Hexadecapole moment (Debye-Ang**3):
 XXXX=  -137.6550 YYYY=  -115.3706 ZZZZ=   -23.7688 XXXY=     5.8360
 XXXZ=     0.0000 YYYX=    -0.5773 YYYZ=     0.0000 ZZZX=     0.0000
 ZZZY=     0.0000 XXYY=   -51.2013 XXZZ=   -28.8260 YYZZ=   -27.0885
 XXYZ=     0.0000 YYXZ=     0.0000 ZZXY=    -0.1561
 N-N= 1.698288360377D+02 E-N=-9.424421268657D+02  KE= 2.568845725199D+02
 Symmetry A'   KE= 2.474224261533D+02
 Symmetry A"   KE= 9.462146366630D+00
 ***** Axes restored to original set *****
 -------------------------------------------------------------------
 Center     Atomic                   Forces (Hartrees/Bohr)
 Number     Number              X              Y              Z
 -------------------------------------------------------------------
    1          7          -0.008688458   -0.042138684    0.000000000
    2          7          -0.034631768    0.030933008    0.000000000
    3          7           0.006139972    0.012864201    0.000000000
    4          1          -0.000958025    0.012329117    0.000000000
    5          7           0.013586732   -0.029900031    0.000000000
    6          6           0.017801608    0.013309763    0.000000000
    7          1           0.006749938    0.002602627    0.000000000
 -------------------------------------------------------------------
 Cartesian Forces:  Max     0.042138684 RMS     0.016886841

 GradGradGradGradGradGradGradGradGradGradGradGradGradGradGradGradGradGrad
 Berny optimization.
 Internal  Forces:  Max     0.044560506 RMS     0.013414735
 Search for a local minimum.
 Step number   1 out of a maximum of  36
 All quantities printed in internal units (Hartrees-Bohrs-Radians)
 Second derivative matrix not updated -- first step.
     Eigenvalues ---    0.02505   0.02639   0.02674   0.02834   0.16000
     Eigenvalues ---    0.16000   0.22605   0.24688   0.37515   0.48737
     Eigenvalues ---    0.50885   0.56605   0.58506   0.66912   0.78894
     Eigenvalues --- 1000.000001000.000001000.000001000.000001000.00000
     Eigenvalues --- 1000.000001000.000001000.000001000.000001000.00000
     Eigenvalues --- 1000.00000
 RFO step:  Lambda=-6.76660785D-03.
 Linear search not attempted -- first point.
 Iteration  1 RMS(Cart)=  0.02065866 RMS(Int)=  0.00002858
 Iteration  2 RMS(Cart)=  0.00002131 RMS(Int)=  0.00001947
 Iteration  3 RMS(Cart)=  0.00000000 RMS(Int)=  0.00001947
 Variable       Old X    -DE/DX   Delta X   Delta X   Delta X     New X
                                 (Linear)    (Quad)   (Total)
    R1        2.36623   0.04456   0.00000   0.05530   0.05533   2.42156
    R2        2.53473   0.02205   0.00000   0.03986   0.03988   2.57462
    R3        2.50608   0.02406   0.00000   0.03939   0.03939   2.54547
    R4        1.87862   0.01236   0.00000   0.02502   0.02502   1.90364
    R5        2.51367   0.02104   0.00000   0.03267   0.03264   2.54631
    R6        2.43647   0.03068   0.00000   0.04203   0.04202   2.47849
    R7        2.01777   0.00722   0.00000   0.01891   0.01891   2.03668
    A1        1.94380  -0.00283   0.00000  -0.00143  -0.00138   1.94242
    A2        1.86179  -0.00258   0.00000  -0.00433  -0.00430   1.85750
    A3        2.10759  -0.00128   0.00000  -0.00269  -0.00268   2.10491
    A4        1.88535   0.00217   0.00000   0.00310   0.00307   1.88842
    A5        2.29024  -0.00089   0.00000  -0.00041  -0.00039   2.28985
    A6        1.84604  -0.00008   0.00000  -0.00213  -0.00213   1.84391
    A7        1.88780   0.00332   0.00000   0.00479   0.00474   1.89254
    A8        2.18241  -0.00215   0.00000  -0.00536  -0.00533   2.17707
    A9        2.21298  -0.00117   0.00000   0.00057   0.00059   2.21357
    D1        0.00000   0.00000   0.00000   0.00000   0.00000   0.00000
    D2        0.00000   0.00000   0.00000   0.00000   0.00000   0.00000
    D3        3.14159   0.00000   0.00000   0.00000   0.00000   3.14159
    D4        0.00000   0.00000   0.00000   0.00000   0.00000   0.00000
    D5        0.00000   0.00000   0.00000   0.00000   0.00000   0.00000
    D6        3.14159   0.00000   0.00000   0.00000   0.00000   3.14159
    D7        3.14159   0.00000   0.00000   0.00000   0.00000   3.14159
    D8        0.00000   0.00000   0.00000   0.00000   0.00000   0.00000
    D9        0.00000   0.00000   0.00000   0.00000   0.00000   0.00000
   D10        3.14159   0.00000   0.00000   0.00000   0.00000   3.14159
         Item               Value     Threshold  Converged?
 Maximum Force            0.044561     0.000450     NO 
 RMS     Force            0.013415     0.000300     NO 
 Maximum Displacement     0.046702     0.001800     NO 
 RMS     Displacement     0.020652     0.001200     NO 
 Predicted change in Energy=-3.349572D-03
 GradGradGradGradGradGradGradGradGradGradGradGradGradGradGradGradGradGrad

                          Input orientation:                          
 ---------------------------------------------------------------------
 Center     Atomic     Atomic              Coordinates (Angstroms)
 Number     Number      Type              X           Y           Z
 ---------------------------------------------------------------------
    1          7             0       -0.729825   -0.925279    0.000000
    2          7             0       -1.117689    0.296044    0.000000
    3          7             0       -0.001568    1.050164    0.000000
    4          1             0       -0.062063    2.055708    0.000000
    5          7             0        0.629805   -1.012571    0.000000
    6          6             0        1.063760    0.225118    0.000000
    7          1             0        2.091603    0.549331    0.000000
 ---------------------------------------------------------------------
                    Distance matrix (angstroms):
                    1          2          3          4          5
     1  N    0.000000
     2  N    1.281433   0.000000
     3  N    2.105405   1.347006   0.000000
     4  H    3.054863   2.052014   1.007362   0.000000
     5  N    1.362428   2.183165   2.157199   3.145316   0.000000
     6  C    2.130812   2.182602   1.347451   2.149078   1.311560
     7  H    3.183540   3.219272   2.152254   2.628203   2.139250
                    6          7
     6  C    0.000000
     7  H    1.077764   0.000000
 Stoichiometry    CH2N4
 Framework group  CS[SG(CH2N4)]
 Deg. of freedom   11
 Full point group                 CS      NOp   2
 Largest Abelian subgroup         CS      NOp   2
 Largest concise Abelian subgroup C1      NOp   1
                         Standard orientation:                         
 ---------------------------------------------------------------------
 Center     Atomic     Atomic              Coordinates (Angstroms)
 Number     Number      Type              X           Y           Z
 ---------------------------------------------------------------------
    1          7             0       -0.724803   -0.921387    0.000000
    2          7             0       -1.114802    0.299256    0.000000
    3          7             0        0.000000    1.055325    0.000000
    4          1             0       -0.062253    2.060762    0.000000
    5          7             0        0.634977   -1.006303    0.000000
    6          6             0        1.066768    0.232142    0.000000
    7          1             0        2.094043    0.558151    0.000000
 ---------------------------------------------------------------------
 Rotational constants (GHZ):     10.5565310     10.3957361      5.2377583
 Isotopes: N-14,N-14,N-14,H-1,N-14,C-12,H-1
 Standard basis: 6-31G(2df,p) (6D, 7F)
 There are   103 symmetry adapted basis functions of A'  symmetry.
 There are    47 symmetry adapted basis functions of A"  symmetry.
 Crude estimate of integral set expansion from redundant integrals=1.000.
 Integral buffers will be    262144 words long.
 Raffenetti 2 integral format.
 Two-electron integral symmetry is turned on.
   150 basis functions      234 primitive gaussians
    18 alpha electrons       18 beta electrons
       nuclear repulsion energy       167.0476554817 Hartrees.
 One-electron integrals computed using PRISM.
 NBasis=   150 RedAO= T  NBF=   103    47
 NBsUse=   150 1.00D-04 NBFU=   103    47
 Initial guess read from the read-write file:
 Initial guess orbital symmetries:
       Occupied  (A') (A') (A') (A') (A') (A') (A') (A') (A') (A')
                 (A') (A") (A') (A') (A") (A") (A') (A')
       Virtual   (A") (A") (A') (A') (A') (A') (A') (A') (A') (A')
                 (A") (A') (A') (A') (A') (A") (A') (A') (A") (A")
                 (A') (A') (A") (A') (A") (A') (A') (A") (A") (A')
                 (A') (A") (A") (A') (A') (A') (A') (A") (A") (A')
                 (A') (A") (A') (A') (A') (A") (A') (A') (A") (A')
                 (A') (A') (A') (A') (A') (A") (A') (A') (A") (A')
                 (A') (A") (A') (A") (A') (A") (A') (A") (A') (A')
                 (A") (A') (A') (A") (A') (A") (A') (A') (A") (A')
                 (A') (A') (A") (A') (A') (A") (A') (A') (A") (A")
                 (A") (A') (A') (A") (A") (A") (A') (A") (A") (A')
                 (A') (A") (A") (A') (A') (A") (A") (A') (A") (A')
                 (A") (A') (A') (A') (A') (A') (A') (A') (A") (A')
                 (A') (A') (A') (A') (A') (A') (A') (A') (A') (A')
                 (A') (A')
 Requested convergence on RMS density matrix=1.00D-08 within  64 cycles.
 Requested convergence on MAX density matrix=1.00D-06.
 Integral accuracy reduced to 1.0D-05 until final iterations.
 Initial convergence to 1.0D-05 achieved.  Increase integral accuracy.
 SCF Done:  E(RB+HF-LYP) =  -258.267585019     A.U. after   12 cycles
             Convg  =    0.2204D-08             -V/T =  2.0067
             S**2   =   0.0000
 ***** Axes restored to original set *****
 -------------------------------------------------------------------
 Center     Atomic                   Forces (Hartrees/Bohr)
 Number     Number              X              Y              Z
 -------------------------------------------------------------------
    1          7           0.001150217   -0.005846322    0.000000000
    2          7          -0.006366706    0.006714784    0.000000000
    3          7           0.003969764   -0.001764342    0.000000000
    4          1          -0.000182106    0.000028262    0.000000000
    5          7           0.002148288   -0.001493606    0.000000000
    6          6          -0.000444921    0.002349713    0.000000000
    7          1          -0.000274536    0.000011511    0.000000000
 -------------------------------------------------------------------
 Cartesian Forces:  Max     0.006714784 RMS     0.002696314

 GradGradGradGradGradGradGradGradGradGradGradGradGradGradGradGradGradGrad
 Berny optimization.
 Internal  Forces:  Max     0.006721106 RMS     0.001667418
 Search for a local minimum.
 Step number   2 out of a maximum of  36
 All quantities printed in internal units (Hartrees-Bohrs-Radians)
 Update second derivatives using information from points  1  2
 Trust test= 1.07D+00 RLast= 1.01D-01 DXMaxT set to 3.02D-01
     Eigenvalues ---    0.02506   0.02639   0.02675   0.02835   0.15994
     Eigenvalues ---    0.16001   0.22582   0.24541   0.37652   0.48825
     Eigenvalues ---    0.50494   0.55558   0.59531   0.67666   0.73393
     Eigenvalues --- 1000.000001000.000001000.000001000.000001000.00000
     Eigenvalues --- 1000.000001000.000001000.000001000.000001000.00000
     Eigenvalues --- 1000.00000
 RFO step:  Lambda=-9.20823892D-05.
 Quartic linear search produced a step of  0.10219.
 Iteration  1 RMS(Cart)=  0.00324809 RMS(Int)=  0.00001281
 Iteration  2 RMS(Cart)=  0.00001220 RMS(Int)=  0.00000585
 Iteration  3 RMS(Cart)=  0.00000000 RMS(Int)=  0.00000585
 Variable       Old X    -DE/DX   Delta X   Delta X   Delta X     New X
                                 (Linear)    (Quad)   (Total)
    R1        2.42156   0.00672   0.00565   0.00512   0.01078   2.43233
    R2        2.57462   0.00197   0.00408   0.00123   0.00530   2.57992
    R3        2.54547   0.00233   0.00403   0.00110   0.00513   2.55060
    R4        1.90364   0.00004   0.00256  -0.00190   0.00066   1.90429
    R5        2.54631  -0.00109   0.00334  -0.00564  -0.00230   2.54401
    R6        2.47849   0.00115   0.00429  -0.00222   0.00207   2.48056
    R7        2.03668  -0.00026   0.00193  -0.00220  -0.00027   2.03641
    A1        1.94242   0.00000  -0.00014   0.00414   0.00400   1.94642
    A2        1.85750  -0.00275  -0.00044  -0.00923  -0.00965   1.84785
    A3        2.10491  -0.00120  -0.00027  -0.00477  -0.00505   2.09986
    A4        1.88842   0.00204   0.00031   0.00721   0.00752   1.89594
    A5        2.28985  -0.00084  -0.00004  -0.00243  -0.00247   2.28738
    A6        1.84391  -0.00021  -0.00022  -0.00196  -0.00219   1.84171
    A7        1.89254   0.00093   0.00048  -0.00016   0.00032   1.89286
    A8        2.17707  -0.00057  -0.00055  -0.00046  -0.00100   2.17607
    A9        2.21357  -0.00036   0.00006   0.00062   0.00069   2.21426
    D1        0.00000   0.00000   0.00000   0.00000   0.00000   0.00000
    D2        0.00000   0.00000   0.00000   0.00000   0.00000   0.00000
    D3        3.14159   0.00000   0.00000   0.00000   0.00000   3.14159
    D4        0.00000   0.00000   0.00000   0.00000   0.00000   0.00000
    D5        0.00000   0.00000   0.00000   0.00000   0.00000   0.00000
    D6        3.14159   0.00000   0.00000   0.00000   0.00000   3.14159
    D7        3.14159   0.00000   0.00000   0.00000   0.00000   3.14159
    D8        0.00000   0.00000   0.00000   0.00000   0.00000   0.00000
    D9        0.00000   0.00000   0.00000   0.00000   0.00000   0.00000
   D10        3.14159   0.00000   0.00000   0.00000   0.00000   3.14159
         Item               Value     Threshold  Converged?
 Maximum Force            0.006721     0.000450     NO 
 RMS     Force            0.001667     0.000300     NO 
 Maximum Displacement     0.011557     0.001800     NO 
 RMS     Displacement     0.003249     0.001200     NO 
 Predicted change in Energy=-7.834819D-05
 GradGradGradGradGradGradGradGradGradGradGradGradGradGradGradGradGradGrad

                          Input orientation:                          
 ---------------------------------------------------------------------
 Center     Atomic     Atomic              Coordinates (Angstroms)
 Number     Number      Type              X           Y           Z
 ---------------------------------------------------------------------
    1          7             0       -0.726600   -0.920788    0.000000
    2          7             0       -1.120393    0.304628    0.000000
    3          7             0        0.002658    1.053293    0.000000
    4          1             0       -0.056677    2.059254    0.000000
    5          7             0        0.635779   -1.009046    0.000000
    6          6             0        1.068092    0.230377    0.000000
    7          1             0        2.095048    0.556913    0.000000
 ---------------------------------------------------------------------
                    Distance matrix (angstroms):
                    1          2          3          4          5
     1  N    0.000000
     2  N    1.287136   0.000000
     3  N    2.104475   1.349720   0.000000
     4  H    3.054414   2.051878   1.007709   0.000000
     5  N    1.365234   2.193144   2.157333   3.145467   0.000000
     6  C    2.132159   2.189745   1.346232   2.147067   1.312656
     7  H    3.185168   3.225324   2.150463   2.624300   2.140490
                    6          7
     6  C    0.000000
     7  H    1.077620   0.000000
 Stoichiometry    CH2N4
 Framework group  CS[SG(CH2N4)]
 Deg. of freedom   11
 Full point group                 CS      NOp   2
 Largest Abelian subgroup         CS      NOp   2
 Largest concise Abelian subgroup C1      NOp   1
                         Standard orientation:                         
 ---------------------------------------------------------------------
 Center     Atomic     Atomic              Coordinates (Angstroms)
 Number     Number      Type              X           Y           Z
 ---------------------------------------------------------------------
    1          7             0       -0.723598   -0.922727    0.000000
    2          7             0       -1.120902    0.301556    0.000000
    3          7             0        0.000000    1.053435    0.000000
    4          1             0       -0.062217    2.059222    0.000000
    5          7             0        0.639027   -1.007082    0.000000
    6          6             0        1.067788    0.233575    0.000000
    7          1             0        2.093804    0.563052    0.000000
 ---------------------------------------------------------------------
 Rotational constants (GHZ):     10.5564403     10.3339876      5.2220148
 Isotopes: N-14,N-14,N-14,H-1,N-14,C-12,H-1
 Standard basis: 6-31G(2df,p) (6D, 7F)
 There are   103 symmetry adapted basis functions of A'  symmetry.
 There are    47 symmetry adapted basis functions of A"  symmetry.
 Crude estimate of integral set expansion from redundant integrals=1.000.
 Integral buffers will be    262144 words long.
 Raffenetti 2 integral format.
 Two-electron integral symmetry is turned on.
   150 basis functions      234 primitive gaussians
    18 alpha electrons       18 beta electrons
       nuclear repulsion energy       166.7905559029 Hartrees.
 One-electron integrals computed using PRISM.
 NBasis=   150 RedAO= T  NBF=   103    47
 NBsUse=   150 1.00D-04 NBFU=   103    47
 Initial guess read from the read-write file:
 Initial guess orbital symmetries:
       Occupied  (A') (A') (A') (A') (A') (A') (A') (A') (A') (A')
                 (A') (A') (A") (A') (A") (A") (A') (A')
       Virtual   (A") (A") (A') (A') (A') (A') (A') (A') (A') (A')
                 (A") (A') (A') (A') (A') (A') (A") (A') (A") (A")
                 (A') (A') (A") (A') (A") (A') (A') (A") (A") (A')
                 (A') (A") (A") (A') (A') (A') (A') (A") (A") (A')
                 (A') (A") (A') (A') (A') (A") (A') (A') (A") (A')
                 (A') (A') (A') (A') (A') (A") (A') (A') (A") (A')
                 (A') (A") (A') (A") (A') (A') (A") (A") (A') (A')
                 (A") (A') (A') (A") (A') (A") (A') (A') (A') (A")
                 (A') (A') (A') (A") (A') (A') (A') (A") (A") (A')
                 (A") (A") (A') (A") (A") (A") (A') (A") (A') (A")
                 (A') (A") (A") (A') (A') (A") (A") (A") (A') (A")
                 (A') (A') (A') (A') (A') (A') (A') (A') (A") (A')
                 (A') (A') (A') (A') (A') (A') (A') (A') (A') (A')
                 (A') (A')
 Requested convergence on RMS density matrix=1.00D-08 within  64 cycles.
 Requested convergence on MAX density matrix=1.00D-06.
 SCF Done:  E(RB+HF-LYP) =  -258.267652603     A.U. after    9 cycles
             Convg  =    0.8678D-08             -V/T =  2.0068
             S**2   =   0.0000
 ***** Axes restored to original set *****
 -------------------------------------------------------------------
 Center     Atomic                   Forces (Hartrees/Bohr)
 Number     Number              X              Y              Z
 -------------------------------------------------------------------
    1          7           0.000184374   -0.003058641    0.000000000
    2          7           0.001318153    0.000922645    0.000000000
    3          7           0.001384608    0.000625748    0.000000000
    4          1           0.000141405   -0.000090960    0.000000000
    5          7          -0.001313188    0.000339691    0.000000000
    6          6          -0.001569824    0.001229431    0.000000000
    7          1          -0.000145528    0.000032086    0.000000000
 -------------------------------------------------------------------
 Cartesian Forces:  Max     0.003058641 RMS     0.000979625

 GradGradGradGradGradGradGradGradGradGradGradGradGradGradGradGradGradGrad
 Berny optimization.
 Internal  Forces:  Max     0.001929227 RMS     0.000786988
 Search for a local minimum.
 Step number   3 out of a maximum of  36
 All quantities printed in internal units (Hartrees-Bohrs-Radians)
 Update second derivatives using information from points  1  2  3
 Trust test= 8.63D-01 RLast= 1.96D-02 DXMaxT set to 3.02D-01
     Eigenvalues ---    0.02506   0.02638   0.02675   0.02835   0.15938
     Eigenvalues ---    0.16024   0.23054   0.33093   0.37611   0.39151
     Eigenvalues ---    0.49117   0.52632   0.64999   0.65841   0.70398
     Eigenvalues --- 1000.000001000.000001000.000001000.000001000.00000
     Eigenvalues --- 1000.000001000.000001000.000001000.000001000.00000
     Eigenvalues --- 1000.00000
 RFO step:  Lambda=-3.66476188D-05.
 Quartic linear search produced a step of -0.09078.
 Iteration  1 RMS(Cart)=  0.00210541 RMS(Int)=  0.00000313
 Iteration  2 RMS(Cart)=  0.00000227 RMS(Int)=  0.00000163
 Iteration  3 RMS(Cart)=  0.00000000 RMS(Int)=  0.00000163
 Variable       Old X    -DE/DX   Delta X   Delta X   Delta X     New X
                                 (Linear)    (Quad)   (Total)
    R1        2.43233   0.00158  -0.00098   0.00545   0.00447   2.43680
    R2        2.57992  -0.00108  -0.00048   0.00012  -0.00036   2.57956
    R3        2.55060   0.00014  -0.00047   0.00197   0.00150   2.55210
    R4        1.90429  -0.00010  -0.00006   0.00007   0.00001   1.90431
    R5        2.54401  -0.00189   0.00021  -0.00373  -0.00352   2.54049
    R6        2.48056   0.00085  -0.00019   0.00175   0.00156   2.48212
    R7        2.03641  -0.00013   0.00002  -0.00036  -0.00033   2.03607
    A1        1.94642  -0.00193  -0.00036  -0.00499  -0.00535   1.94107
    A2        1.84785   0.00140   0.00088   0.00283   0.00370   1.85154
    A3        2.09986   0.00056   0.00046   0.00114   0.00160   2.10146
    A4        1.89594  -0.00089  -0.00068  -0.00169  -0.00238   1.89357
    A5        2.28738   0.00032   0.00022   0.00055   0.00078   2.28816
    A6        1.84171   0.00083   0.00020   0.00211   0.00232   1.84403
    A7        1.89286   0.00058  -0.00003   0.00174   0.00171   1.89457
    A8        2.17607  -0.00038   0.00009  -0.00163  -0.00153   2.17453
    A9        2.21426  -0.00021  -0.00006  -0.00012  -0.00018   2.21408
    D1        0.00000   0.00000   0.00000   0.00000   0.00000   0.00000
    D2        0.00000   0.00000   0.00000   0.00000   0.00000   0.00000
    D3        3.14159   0.00000   0.00000   0.00000   0.00000   3.14159
    D4        0.00000   0.00000   0.00000   0.00000   0.00000   0.00000
    D5        0.00000   0.00000   0.00000   0.00000   0.00000   0.00000
    D6        3.14159   0.00000   0.00000   0.00000   0.00000   3.14159
    D7        3.14159   0.00000   0.00000   0.00000   0.00000   3.14159
    D8        0.00000   0.00000   0.00000   0.00000   0.00000   0.00000
    D9        0.00000   0.00000   0.00000   0.00000   0.00000   0.00000
   D10        3.14159   0.00000   0.00000   0.00000   0.00000   3.14159
         Item               Value     Threshold  Converged?
 Maximum Force            0.001929     0.000450     NO 
 RMS     Force            0.000787     0.000300     NO 
 Maximum Displacement     0.007152     0.001800     NO 
 RMS     Displacement     0.002106     0.001200     NO 
 Predicted change in Energy=-1.900453D-05
 GradGradGradGradGradGradGradGradGradGradGradGradGradGradGradGradGradGrad

                          Input orientation:                          
 ---------------------------------------------------------------------
 Center     Atomic     Atomic              Coordinates (Angstroms)
 Number     Number      Type              X           Y           Z
 ---------------------------------------------------------------------
    1          7             0       -0.727255   -0.924435    0.000000
    2          7             0       -1.118554    0.304263    0.000000
    3          7             0        0.004349    1.054579    0.000000
    4          1             0       -0.054467    2.060577    0.000000
    5          7             0        0.635168   -1.008959    0.000000
    6          6             0        1.067239    0.231423    0.000000
    7          1             0        2.093950    0.558147    0.000000
 ---------------------------------------------------------------------
                    Distance matrix (angstroms):
                    1          2          3          4          5
     1  N    0.000000
     2  N    1.289501   0.000000
     3  N    2.109915   1.350512   0.000000
     4  H    3.059893   2.053514   1.007717   0.000000
     5  N    1.365042   2.190911   2.157804   3.146053   0.000000
     6  C    2.134530   2.187006   1.344367   2.145701   1.313481
     7  H    3.187044   3.222520   2.147761   2.621639   2.140996
                    6          7
     6  C    0.000000
     7  H    1.077443   0.000000
 Stoichiometry    CH2N4
 Framework group  CS[SG(CH2N4)]
 Deg. of freedom   11
 Full point group                 CS      NOp   2
 Largest Abelian subgroup         CS      NOp   2
 Largest concise Abelian subgroup C1      NOp   1
                         Standard orientation:                         
 ---------------------------------------------------------------------
 Center     Atomic     Atomic              Coordinates (Angstroms)
 Number     Number      Type              X           Y           Z
 ---------------------------------------------------------------------
    1          7             0       -0.723381   -0.927041    0.000000
    2          7             0       -1.119777    0.300022    0.000000
    3          7             0        0.000000    1.054993    0.000000
    4          1             0       -0.062991    2.060739    0.000000
    5          7             0        0.639381   -1.005907    0.000000
    6          6             0        1.066299    0.236257    0.000000
    7          1             0        2.091644    0.567241    0.000000
 ---------------------------------------------------------------------
 Rotational constants (GHZ):     10.5165350     10.3603579      5.2189312
 Isotopes: N-14,N-14,N-14,H-1,N-14,C-12,H-1
 Standard basis: 6-31G(2df,p) (6D, 7F)
 There are   103 symmetry adapted basis functions of A'  symmetry.
 There are    47 symmetry adapted basis functions of A"  symmetry.
 Crude estimate of integral set expansion from redundant integrals=1.000.
 Integral buffers will be    262144 words long.
 Raffenetti 2 integral format.
 Two-electron integral symmetry is turned on.
   150 basis functions      234 primitive gaussians
    18 alpha electrons       18 beta electrons
       nuclear repulsion energy       166.7358950505 Hartrees.
 One-electron integrals computed using PRISM.
 NBasis=   150 RedAO= T  NBF=   103    47
 NBsUse=   150 1.00D-04 NBFU=   103    47
 Initial guess read from the read-write file:
 Initial guess orbital symmetries:
       Occupied  (A') (A') (A') (A') (A') (A') (A') (A') (A') (A')
                 (A') (A') (A") (A') (A") (A") (A') (A')
       Virtual   (A") (A") (A') (A') (A') (A') (A') (A') (A') (A')
                 (A") (A') (A') (A') (A') (A') (A") (A') (A") (A")
                 (A') (A') (A") (A') (A") (A') (A') (A") (A") (A')
                 (A') (A") (A") (A') (A') (A') (A') (A") (A") (A')
                 (A') (A") (A') (A') (A") (A') (A') (A') (A") (A')
                 (A') (A') (A') (A') (A') (A") (A') (A') (A") (A')
                 (A') (A") (A') (A") (A') (A') (A") (A") (A') (A')
                 (A") (A') (A') (A") (A') (A") (A') (A') (A') (A")
                 (A') (A') (A') (A") (A') (A') (A') (A") (A") (A')
                 (A") (A") (A') (A") (A") (A") (A') (A") (A') (A")
                 (A') (A") (A") (A') (A') (A") (A") (A") (A') (A")
                 (A') (A') (A') (A') (A') (A') (A') (A') (A") (A')
                 (A') (A') (A') (A') (A') (A') (A') (A') (A') (A')
                 (A') (A')
 Requested convergence on RMS density matrix=1.00D-08 within  64 cycles.
 Requested convergence on MAX density matrix=1.00D-06.
 SCF Done:  E(RB+HF-LYP) =  -258.267662572     A.U. after    9 cycles
             Convg  =    0.4346D-08             -V/T =  2.0069
             S**2   =   0.0000
 ***** Axes restored to original set *****
 -------------------------------------------------------------------
 Center     Atomic                   Forces (Hartrees/Bohr)
 Number     Number              X              Y              Z
 -------------------------------------------------------------------
    1          7           0.001676496    0.001480069    0.000000000
    2          7          -0.000224958    0.000164140    0.000000000
    3          7          -0.000462665   -0.001117618    0.000000000
    4          1          -0.000076591   -0.000181008    0.000000000
    5          7          -0.000610421   -0.000020616    0.000000000
    6          6          -0.000373568   -0.000178634    0.000000000
    7          1           0.000071707   -0.000146333    0.000000000
 -------------------------------------------------------------------
 Cartesian Forces:  Max     0.001676496 RMS     0.000583569

 GradGradGradGradGradGradGradGradGradGradGradGradGradGradGradGradGradGrad
 Berny optimization.
 Internal  Forces:  Max     0.001155555 RMS     0.000465567
 Search for a local minimum.
 Step number   4 out of a maximum of  36
 All quantities printed in internal units (Hartrees-Bohrs-Radians)
 Update second derivatives using information from points  1  2  3  4
 Trust test= 5.25D-01 RLast= 9.96D-03 DXMaxT set to 3.02D-01
     Eigenvalues ---    0.02506   0.02638   0.02676   0.02835   0.16002
     Eigenvalues ---    0.16084   0.23016   0.34560   0.37674   0.48688
     Eigenvalues ---    0.52069   0.52434   0.61975   0.64139   0.72896
     Eigenvalues --- 1000.000001000.000001000.000001000.000001000.00000
     Eigenvalues --- 1000.000001000.000001000.000001000.000001000.00000
     Eigenvalues --- 1000.00000
 RFO step:  Lambda=-3.56086448D-06.
 Quartic linear search produced a step of -0.32200.
 Iteration  1 RMS(Cart)=  0.00080569 RMS(Int)=  0.00000058
 Iteration  2 RMS(Cart)=  0.00000040 RMS(Int)=  0.00000034
 Variable       Old X    -DE/DX   Delta X   Delta X   Delta X     New X
                                 (Linear)    (Quad)   (Total)
    R1        2.43680  -0.00064  -0.00144   0.00044  -0.00100   2.43581
    R2        2.57956  -0.00103   0.00012  -0.00175  -0.00163   2.57792
    R3        2.55210  -0.00090  -0.00048  -0.00075  -0.00123   2.55086
    R4        1.90431  -0.00018   0.00000  -0.00030  -0.00031   1.90400
    R5        2.54049  -0.00004   0.00113  -0.00129  -0.00015   2.54033
    R6        2.48212  -0.00070  -0.00050  -0.00021  -0.00071   2.48141
    R7        2.03607   0.00003   0.00011  -0.00009   0.00002   2.03609
    A1        1.94107   0.00116   0.00172   0.00041   0.00213   1.94320
    A2        1.85154  -0.00092  -0.00119  -0.00041  -0.00160   1.84995
    A3        2.10146  -0.00030  -0.00051  -0.00008  -0.00059   2.10087
    A4        1.89357   0.00041   0.00077  -0.00010   0.00066   1.89423
    A5        2.28816  -0.00011  -0.00025   0.00018  -0.00007   2.28809
    A6        1.84403  -0.00057  -0.00075  -0.00046  -0.00120   1.84283
    A7        1.89457  -0.00008  -0.00055   0.00056   0.00001   1.89458
    A8        2.17453   0.00019   0.00049   0.00014   0.00063   2.17517
    A9        2.21408  -0.00012   0.00006  -0.00070  -0.00064   2.21344
    D1        0.00000   0.00000   0.00000   0.00000   0.00000   0.00000
    D2        0.00000   0.00000   0.00000   0.00000   0.00000   0.00000
    D3        3.14159   0.00000   0.00000   0.00000   0.00000   3.14159
    D4        0.00000   0.00000   0.00000   0.00000   0.00000   0.00000
    D5        0.00000   0.00000   0.00000   0.00000   0.00000   0.00000
    D6        3.14159   0.00000   0.00000   0.00000   0.00000   3.14159
    D7        3.14159   0.00000   0.00000   0.00000   0.00000   3.14159
    D8        0.00000   0.00000   0.00000   0.00000   0.00000   0.00000
    D9        0.00000   0.00000   0.00000   0.00000   0.00000   0.00000
   D10        3.14159   0.00000   0.00000   0.00000   0.00000   3.14159
         Item               Value     Threshold  Converged?
 Maximum Force            0.001156     0.000450     NO 
 RMS     Force            0.000466     0.000300     NO 
 Maximum Displacement     0.002561     0.001800     NO 
 RMS     Displacement     0.000806     0.001200     YES
 Predicted change in Energy=-4.666460D-06
 GradGradGradGradGradGradGradGradGradGradGradGradGradGradGradGradGradGrad

                          Input orientation:                          
 ---------------------------------------------------------------------
 Center     Atomic     Atomic              Coordinates (Angstroms)
 Number     Number      Type              X           Y           Z
 ---------------------------------------------------------------------
    1          7             0       -0.726098   -0.922674    0.000000
    2          7             0       -1.118660    0.305068    0.000000
    3          7             0        0.004028    1.054528    0.000000
    4          1             0       -0.054929    2.060356    0.000000
    5          7             0        0.635379   -1.008468    0.000000
    6          6             0        1.067038    0.231659    0.000000
    7          1             0        2.093892    0.557965    0.000000
 ---------------------------------------------------------------------
                    Distance matrix (angstroms):
                    1          2          3          4          5
     1  N    0.000000
     2  N    1.288975   0.000000
     3  N    2.107704   1.349859   0.000000
     4  H    3.057603   2.052452   1.007554   0.000000
     5  N    1.364178   2.191353   2.157442   3.145505   0.000000
     6  C    2.132563   2.186931   1.344286   2.145447   1.313105
     7  H    3.185066   3.222492   2.148048   2.621948   2.140321
                    6          7
     6  C    0.000000
     7  H    1.077453   0.000000
 Stoichiometry    CH2N4
 Framework group  CS[SG(CH2N4)]
 Deg. of freedom   11
 Full point group                 CS      NOp   2
 Largest Abelian subgroup         CS      NOp   2
 Largest concise Abelian subgroup C1      NOp   1
                         Standard orientation:                         
 ---------------------------------------------------------------------
 Center     Atomic     Atomic              Coordinates (Angstroms)
 Number     Number      Type              X           Y           Z
 ---------------------------------------------------------------------
    1          7             0       -0.722762   -0.925578    0.000000
    2          7             0       -1.119891    0.300694    0.000000
    3          7             0        0.000000    1.054329    0.000000
    4          1             0       -0.062701    2.059930    0.000000
    5          7             0        0.639025   -1.006303    0.000000
    6          6             0        1.066066    0.235421    0.000000
    7          1             0        2.091698    0.565548    0.000000
 ---------------------------------------------------------------------
 Rotational constants (GHZ):     10.5348122     10.3578929      5.2228017
 Isotopes: N-14,N-14,N-14,H-1,N-14,C-12,H-1
 Standard basis: 6-31G(2df,p) (6D, 7F)
 There are   103 symmetry adapted basis functions of A'  symmetry.
 There are    47 symmetry adapted basis functions of A"  symmetry.
 Crude estimate of integral set expansion from redundant integrals=1.000.
 Integral buffers will be    262144 words long.
 Raffenetti 2 integral format.
 Two-electron integral symmetry is turned on.
   150 basis functions      234 primitive gaussians
    18 alpha electrons       18 beta electrons
       nuclear repulsion energy       166.7975623678 Hartrees.
 One-electron integrals computed using PRISM.
 NBasis=   150 RedAO= T  NBF=   103    47
 NBsUse=   150 1.00D-04 NBFU=   103    47
 Initial guess read from the read-write file:
 Initial guess orbital symmetries:
       Occupied  (A') (A') (A') (A') (A') (A') (A') (A') (A') (A')
                 (A') (A') (A") (A') (A") (A") (A') (A')
       Virtual   (A") (A") (A') (A') (A') (A') (A') (A') (A') (A')
                 (A") (A') (A') (A') (A') (A') (A") (A') (A") (A")
                 (A') (A') (A") (A') (A") (A') (A') (A") (A") (A')
                 (A') (A") (A") (A') (A') (A') (A') (A") (A") (A')
                 (A') (A") (A') (A') (A") (A') (A') (A') (A") (A')
                 (A') (A') (A') (A') (A') (A") (A') (A') (A") (A')
                 (A') (A") (A') (A") (A') (A') (A") (A") (A') (A')
                 (A") (A') (A') (A") (A') (A") (A') (A') (A') (A")
                 (A') (A') (A') (A") (A') (A') (A') (A") (A") (A')
                 (A") (A") (A') (A") (A") (A") (A') (A") (A') (A")
                 (A') (A") (A") (A') (A') (A") (A") (A") (A') (A")
                 (A') (A') (A') (A') (A') (A') (A') (A') (A") (A')
                 (A') (A') (A') (A') (A') (A') (A') (A') (A') (A')
                 (A') (A')
 Requested convergence on RMS density matrix=1.00D-08 within  64 cycles.
 Requested convergence on MAX density matrix=1.00D-06.
 SCF Done:  E(RB+HF-LYP) =  -258.267667675     A.U. after    8 cycles
             Convg  =    0.9464D-08             -V/T =  2.0068
             S**2   =   0.0000
 ***** Axes restored to original set *****
 -------------------------------------------------------------------
 Center     Atomic                   Forces (Hartrees/Bohr)
 Number     Number              X              Y              Z
 -------------------------------------------------------------------
    1          7           0.000479617   -0.000114604    0.000000000
    2          7           0.000026480    0.000150954    0.000000000
    3          7          -0.000045844   -0.000319912    0.000000000
    4          1           0.000014174   -0.000011431    0.000000000
    5          7          -0.000633393    0.000055429    0.000000000
    6          6           0.000122852    0.000280361    0.000000000
    7          1           0.000036114   -0.000040798    0.000000000
 -------------------------------------------------------------------
 Cartesian Forces:  Max     0.000633393 RMS     0.000203815

 GradGradGradGradGradGradGradGradGradGradGradGradGradGradGradGradGradGrad
 Berny optimization.
 Internal  Forces:  Max     0.000462820 RMS     0.000114208
 Search for a local minimum.
 Step number   5 out of a maximum of  36
 All quantities printed in internal units (Hartrees-Bohrs-Radians)
 Update second derivatives using information from points  1  2  3  4  5

 Trust test= 1.09D+00 RLast= 3.99D-03 DXMaxT set to 3.02D-01
     Eigenvalues ---    0.02506   0.02638   0.02676   0.02835   0.15810
     Eigenvalues ---    0.16026   0.23767   0.33810   0.37778   0.46034
     Eigenvalues ---    0.49464   0.52347   0.55555   0.67929   0.77049
     Eigenvalues --- 1000.000001000.000001000.000001000.000001000.00000
     Eigenvalues --- 1000.000001000.000001000.000001000.000001000.00000
     Eigenvalues --- 1000.00000
 RFO step:  Lambda=-9.85399492D-07.
 Quartic linear search produced a step of  0.09408.
 Iteration  1 RMS(Cart)=  0.00030206 RMS(Int)=  0.00000006
 Iteration  2 RMS(Cart)=  0.00000007 RMS(Int)=  0.00000001
 Variable       Old X    -DE/DX   Delta X   Delta X   Delta X     New X
                                 (Linear)    (Quad)   (Total)
    R1        2.43581   0.00004  -0.00009   0.00026   0.00017   2.43598
    R2        2.57792  -0.00046  -0.00015  -0.00104  -0.00119   2.57673
    R3        2.55086  -0.00011  -0.00012  -0.00017  -0.00028   2.55058
    R4        1.90400  -0.00001  -0.00003  -0.00005  -0.00008   1.90392
    R5        2.54033  -0.00014  -0.00001  -0.00045  -0.00047   2.53987
    R6        2.48141   0.00009  -0.00007   0.00019   0.00012   2.48153
    R7        2.03609   0.00002   0.00000   0.00006   0.00006   2.03615
    A1        1.94320  -0.00001   0.00020  -0.00023  -0.00003   1.94317
    A2        1.84995  -0.00005  -0.00015  -0.00024  -0.00039   1.84955
    A3        2.10087  -0.00004  -0.00006  -0.00023  -0.00028   2.10059
    A4        1.89423   0.00008   0.00006   0.00051   0.00057   1.89480
    A5        2.28809  -0.00004  -0.00001  -0.00028  -0.00029   2.28780
    A6        1.84283   0.00015  -0.00011   0.00070   0.00059   1.84342
    A7        1.89458  -0.00017   0.00000  -0.00074  -0.00074   1.89384
    A8        2.17517   0.00013   0.00006   0.00066   0.00072   2.17589
    A9        2.21344   0.00004  -0.00006   0.00007   0.00001   2.21345
    D1        0.00000   0.00000   0.00000   0.00000   0.00000   0.00000
    D2        0.00000   0.00000   0.00000   0.00000   0.00000   0.00000
    D3        3.14159   0.00000   0.00000   0.00000   0.00000   3.14159
    D4        0.00000   0.00000   0.00000   0.00000   0.00000   0.00000
    D5        0.00000   0.00000   0.00000   0.00000   0.00000   0.00000
    D6        3.14159   0.00000   0.00000   0.00000   0.00000   3.14159
    D7        3.14159   0.00000   0.00000   0.00000   0.00000   3.14159
    D8        0.00000   0.00000   0.00000   0.00000   0.00000   0.00000
    D9        0.00000   0.00000   0.00000   0.00000   0.00000   0.00000
   D10        3.14159   0.00000   0.00000   0.00000   0.00000   3.14159
         Item               Value     Threshold  Converged?
 Maximum Force            0.000463     0.000450     NO 
 RMS     Force            0.000114     0.000300     YES
 Maximum Displacement     0.000768     0.001800     YES
 RMS     Displacement     0.000302     0.001200     YES
 Predicted change in Energy=-5.299905D-07
 GradGradGradGradGradGradGradGradGradGradGradGradGradGradGradGradGradGrad

                          Input orientation:                          
 ---------------------------------------------------------------------
 Center     Atomic     Atomic              Coordinates (Angstroms)
 Number     Number      Type              X           Y           Z
 ---------------------------------------------------------------------
    1          7             0       -0.725995   -0.922846    0.000000
    2          7             0       -1.118807    0.304912    0.000000
    3          7             0        0.003916    1.054049    0.000000
    4          1             0       -0.055107    2.059833    0.000000
    5          7             0        0.634869   -1.008315    0.000000
    6          6             0        1.067023    0.231707    0.000000
    7          1             0        2.094026    0.557645    0.000000
 ---------------------------------------------------------------------
                    Distance matrix (angstroms):
                    1          2          3          4          5
     1  N    0.000000
     2  N    1.289065   0.000000
     3  N    2.107340   1.349709   0.000000
     4  H    3.057198   2.052122   1.007514   0.000000
     5  N    1.363545   2.190877   2.156722   3.144773   0.000000
     6  C    2.132582   2.187055   1.344040   2.145045   1.313169
     7  H    3.185023   3.222758   2.148249   2.622086   2.140414
                    6          7
     6  C    0.000000
     7  H    1.077483   0.000000
 Stoichiometry    CH2N4
 Framework group  CS[SG(CH2N4)]
 Deg. of freedom   11
 Full point group                 CS      NOp   2
 Largest Abelian subgroup         CS      NOp   2
 Largest concise Abelian subgroup C1      NOp   1
                         Standard orientation:                         
 ---------------------------------------------------------------------
 Center     Atomic     Atomic              Coordinates (Angstroms)
 Number     Number      Type              X           Y           Z
 ---------------------------------------------------------------------
    1          7             0       -0.722506   -0.925621    0.000000
    2          7             0       -1.119911    0.300657    0.000000
    3          7             0        0.000000    1.053992    0.000000
    4          1             0       -0.062788    2.059547    0.000000
    5          7             0        0.638669   -1.005996    0.000000
    6          6             0        1.066178    0.235636    0.000000
    7          1             0        2.091953    0.565416    0.000000
 ---------------------------------------------------------------------
 Rotational constants (GHZ):     10.5366826     10.3614505      5.2241659
 Isotopes: N-14,N-14,N-14,H-1,N-14,C-12,H-1
 Standard basis: 6-31G(2df,p) (6D, 7F)
 There are   103 symmetry adapted basis functions of A'  symmetry.
 There are    47 symmetry adapted basis functions of A"  symmetry.
 Crude estimate of integral set expansion from redundant integrals=1.000.
 Integral buffers will be    262144 words long.
 Raffenetti 2 integral format.
 Two-electron integral symmetry is turned on.
   150 basis functions      234 primitive gaussians
    18 alpha electrons       18 beta electrons
       nuclear repulsion energy       166.8180767149 Hartrees.
 One-electron integrals computed using PRISM.
 NBasis=   150 RedAO= T  NBF=   103    47
 NBsUse=   150 1.00D-04 NBFU=   103    47
 Initial guess read from the read-write file:
 Initial guess orbital symmetries:
       Occupied  (A') (A') (A') (A') (A') (A') (A') (A') (A') (A')
                 (A') (A') (A") (A') (A") (A") (A') (A')
       Virtual   (A") (A") (A') (A') (A') (A') (A') (A') (A') (A')
                 (A") (A') (A') (A') (A') (A') (A") (A') (A") (A")
                 (A') (A') (A") (A') (A") (A') (A') (A") (A") (A')
                 (A') (A") (A") (A') (A') (A') (A') (A") (A") (A')
                 (A') (A") (A') (A') (A") (A') (A') (A') (A") (A')
                 (A') (A') (A') (A') (A') (A") (A') (A') (A") (A')
                 (A') (A") (A') (A") (A') (A') (A") (A") (A') (A')
                 (A") (A') (A') (A") (A') (A") (A') (A') (A') (A")
                 (A') (A') (A') (A") (A') (A') (A') (A") (A") (A')
                 (A") (A") (A') (A") (A") (A") (A') (A") (A') (A")
                 (A') (A") (A") (A') (A') (A") (A") (A") (A') (A")
                 (A') (A') (A') (A') (A') (A') (A') (A') (A") (A')
                 (A') (A') (A') (A') (A') (A') (A') (A') (A') (A')
                 (A') (A')
 Requested convergence on RMS density matrix=1.00D-08 within  64 cycles.
 Requested convergence on MAX density matrix=1.00D-06.
 SCF Done:  E(RB+HF-LYP) =  -258.267668284     A.U. after    7 cycles
             Convg  =    0.7761D-08             -V/T =  2.0068
             S**2   =   0.0000
 ***** Axes restored to original set *****
 -------------------------------------------------------------------
 Center     Atomic                   Forces (Hartrees/Bohr)
 Number     Number              X              Y              Z
 -------------------------------------------------------------------
    1          7           0.000236355   -0.000140110    0.000000000
    2          7           0.000041673    0.000136972    0.000000000
    3          7          -0.000103566    0.000074427    0.000000000
    4          1           0.000009397    0.000035762    0.000000000
    5          7          -0.000247246   -0.000199168    0.000000000
    6          6           0.000072932    0.000115608    0.000000000
    7          1          -0.000009544   -0.000023492    0.000000000
 -------------------------------------------------------------------
 Cartesian Forces:  Max     0.000247246 RMS     0.000105503

 GradGradGradGradGradGradGradGradGradGradGradGradGradGradGradGradGradGrad
 Berny optimization.
 Internal  Forces:  Max     0.000203206 RMS     0.000069310
 Search for a local minimum.
 Step number   6 out of a maximum of  36
 All quantities printed in internal units (Hartrees-Bohrs-Radians)
 Update second derivatives using information from points  1  2  3  4  5
                                                        6
 Trust test= 1.15D+00 RLast= 1.96D-03 DXMaxT set to 3.02D-01
     Eigenvalues ---    0.02506   0.02638   0.02676   0.02835   0.14924
     Eigenvalues ---    0.16030   0.22164   0.33562   0.37884   0.41246
     Eigenvalues ---    0.49323   0.52205   0.55063   0.72858   0.80401
     Eigenvalues --- 1000.000001000.000001000.000001000.000001000.00000
     Eigenvalues --- 1000.000001000.000001000.000001000.000001000.00000
     Eigenvalues --- 1000.00000
 RFO step:  Lambda=-2.83282913D-07.
 Quartic linear search produced a step of  0.17590.
 Iteration  1 RMS(Cart)=  0.00015520 RMS(Int)=  0.00000001
 Iteration  2 RMS(Cart)=  0.00000001 RMS(Int)=  0.00000001
 Variable       Old X    -DE/DX   Delta X   Delta X   Delta X     New X
                                 (Linear)    (Quad)   (Total)
    R1        2.43598   0.00016   0.00003   0.00035   0.00038   2.43636
    R2        2.57673  -0.00020  -0.00021  -0.00061  -0.00082   2.57590
    R3        2.55058  -0.00005  -0.00005  -0.00013  -0.00018   2.55040
    R4        1.90392   0.00003  -0.00001   0.00005   0.00004   1.90396
    R5        2.53987   0.00007  -0.00008   0.00001  -0.00007   2.53980
    R6        2.48153   0.00019   0.00002   0.00033   0.00035   2.48188
    R7        2.03615  -0.00001   0.00001  -0.00006  -0.00005   2.03610
    A1        1.94317   0.00003   0.00000   0.00015   0.00014   1.94331
    A2        1.84955   0.00005  -0.00007   0.00000  -0.00007   1.84948
    A3        2.10059   0.00004  -0.00005   0.00007   0.00002   2.10061
    A4        1.89480  -0.00007   0.00010  -0.00015  -0.00005   1.89475
    A5        2.28780   0.00003  -0.00005   0.00008   0.00003   2.28783
    A6        1.84342  -0.00002   0.00010  -0.00011   0.00000   1.84341
    A7        1.89384   0.00002  -0.00013   0.00011  -0.00002   1.89382
    A8        2.17589   0.00000   0.00013   0.00008   0.00021   2.17610
    A9        2.21345  -0.00002   0.00000  -0.00019  -0.00019   2.21326
    D1        0.00000   0.00000   0.00000   0.00000   0.00000   0.00000
    D2        0.00000   0.00000   0.00000   0.00000   0.00000   0.00000
    D3        3.14159   0.00000   0.00000   0.00000   0.00000   3.14159
    D4        0.00000   0.00000   0.00000   0.00000   0.00000   0.00000
    D5        0.00000   0.00000   0.00000   0.00000   0.00000   0.00000
    D6        3.14159   0.00000   0.00000   0.00000   0.00000   3.14159
    D7        3.14159   0.00000   0.00000   0.00000   0.00000   3.14159
    D8        0.00000   0.00000   0.00000   0.00000   0.00000   0.00000
    D9        0.00000   0.00000   0.00000   0.00000   0.00000   0.00000
   D10        3.14159   0.00000   0.00000   0.00000   0.00000   3.14159
         Item               Value     Threshold  Converged?
 Maximum Force            0.000203     0.000450     YES
 RMS     Force            0.000069     0.000300     YES
 Maximum Displacement     0.000530     0.001800     YES
 RMS     Displacement     0.000155     0.001200     YES
 Predicted change in Energy=-1.557237D-07
 Optimization completed.
    -- Stationary point found.
                         ----------------------------
                         !   Optimized Parameters   !
                         ! (Angstroms and Degrees)  !
 ------------------------                            -------------------------
 ! Name  Definition              Value          Derivative Info.             !
 -----------------------------------------------------------------------------
 ! R1    R(1,2)                  1.2891         -DE/DX =    0.0002           !
 ! R2    R(1,5)                  1.3635         -DE/DX =   -0.0002           !
 ! R3    R(2,3)                  1.3497         -DE/DX =   -0.0001           !
 ! R4    R(3,4)                  1.0075         -DE/DX =    0.               !
 ! R5    R(3,6)                  1.344          -DE/DX =    0.0001           !
 ! R6    R(5,6)                  1.3132         -DE/DX =    0.0002           !
 ! R7    R(6,7)                  1.0775         -DE/DX =    0.               !
 ! A1    A(2,1,5)              111.3354         -DE/DX =    0.               !
 ! A2    A(1,2,3)              105.9716         -DE/DX =    0.               !
 ! A3    A(2,3,4)              120.3548         -DE/DX =    0.               !
 ! A4    A(2,3,6)              108.5639         -DE/DX =   -0.0001           !
 ! A5    A(4,3,6)              131.0814         -DE/DX =    0.               !
 ! A6    A(1,5,6)              105.62           -DE/DX =    0.               !
 ! A7    A(3,6,5)              108.5092         -DE/DX =    0.               !
 ! A8    A(3,6,7)              124.6693         -DE/DX =    0.               !
 ! A9    A(5,6,7)              126.8215         -DE/DX =    0.               !
 ! D1    D(5,1,2,3)              0.             -DE/DX =    0.               !
 ! D2    D(2,1,5,6)              0.             -DE/DX =    0.               !
 ! D3    D(1,2,3,4)            180.             -DE/DX =    0.               !
 ! D4    D(1,2,3,6)              0.             -DE/DX =    0.               !
 ! D5    D(2,3,6,5)              0.             -DE/DX =    0.               !
 ! D6    D(2,3,6,7)            180.             -DE/DX =    0.               !
 ! D7    D(4,3,6,5)            180.             -DE/DX =    0.               !
 ! D8    D(4,3,6,7)              0.             -DE/DX =    0.               !
 ! D9    D(1,5,6,3)              0.             -DE/DX =    0.               !
 ! D10   D(1,5,6,7)            180.             -DE/DX =    0.               !
 -----------------------------------------------------------------------------
 GradGradGradGradGradGradGradGradGradGradGradGradGradGradGradGradGradGrad

                          Input orientation:                          
 ---------------------------------------------------------------------
 Center     Atomic     Atomic              Coordinates (Angstroms)
 Number     Number      Type              X           Y           Z
 ---------------------------------------------------------------------
    1          7             0       -0.725966   -0.922910    0.000000
    2          7             0       -1.118777    0.304847    0.000000
    3          7             0        0.003946    1.053985    0.000000
    4          1             0       -0.055077    2.059768    0.000000
    5          7             0        0.634898   -1.008380    0.000000
    6          6             0        1.067053    0.231643    0.000000
    7          1             0        2.094055    0.557581    0.000000
 ---------------------------------------------------------------------
                    Distance matrix (angstroms):
                    1          2          3          4          5
     1  N    0.000000
     2  N    1.289065   0.000000
     3  N    2.107340   1.349709   0.000000
     4  H    3.057198   2.052122   1.007514   0.000000
     5  N    1.363545   2.190877   2.156722   3.144773   0.000000
     6  C    2.132582   2.187055   1.344040   2.145045   1.313169
     7  H    3.185023   3.222758   2.148249   2.622086   2.140414
                    6          7
     6  C    0.000000
     7  H    1.077483   0.000000
 Stoichiometry    CH2N4
 Framework group  CS[SG(CH2N4)]
 Deg. of freedom   11
 Full point group                 CS      NOp   2
 Largest Abelian subgroup         CS      NOp   2
 Largest concise Abelian subgroup C1      NOp   1
                         Standard orientation:                         
 ---------------------------------------------------------------------
 Center     Atomic     Atomic              Coordinates (Angstroms)
 Number     Number      Type              X           Y           Z
 ---------------------------------------------------------------------
    1          7             0       -0.722506   -0.925621    0.000000
    2          7             0       -1.119911    0.300657    0.000000
    3          7             0        0.000000    1.053992    0.000000
    4          1             0       -0.062788    2.059547    0.000000
    5          7             0        0.638669   -1.005996    0.000000
    6          6             0        1.066178    0.235636    0.000000
    7          1             0        2.091953    0.565416    0.000000
 ---------------------------------------------------------------------
 Rotational constants (GHZ):     10.5366826     10.3614505      5.2241659
 Isotopes: N-14,N-14,N-14,H-1,N-14,C-12,H-1

 **********************************************************************

            Population analysis using the SCF density.

 **********************************************************************

 Orbital Symmetries:
       Occupied  (A') (A') (A') (A') (A') (A') (A') (A') (A') (A')
                 (A') (A') (A") (A') (A") (A") (A') (A')
       Virtual   (A") (A") (A') (A') (A') (A') (A') (A') (A') (A')
                 (A") (A') (A') (A') (A') (A') (A") (A') (A") (A")
                 (A') (A') (A") (A') (A") (A') (A') (A") (A") (A')
                 (A') (A") (A") (A') (A') (A') (A') (A") (A") (A')
                 (A') (A") (A') (A') (A") (A') (A') (A') (A") (A')
                 (A') (A') (A') (A') (A') (A") (A') (A') (A") (A')
                 (A') (A") (A') (A") (A') (A') (A") (A") (A') (A')
                 (A") (A') (A') (A") (A') (A") (A') (A') (A') (A")
                 (A') (A') (A') (A") (A') (A') (A') (A") (A") (A')
                 (A") (A") (A') (A") (A") (A") (A') (A") (A') (A")
                 (A') (A") (A") (A') (A') (A") (A") (A") (A') (A")
                 (A') (A') (A') (A') (A') (A') (A') (A') (A") (A')
                 (A') (A') (A') (A') (A') (A') (A') (A') (A') (A')
                 (A') (A')
  The electronic state is 1-A'.
 Alpha  occ. eigenvalues --  -14.44271 -14.40809 -14.39143 -14.36163 -10.27596
 Alpha  occ. eigenvalues --   -1.14239  -0.94674  -0.89423  -0.68021  -0.66544
 Alpha  occ. eigenvalues --   -0.59724  -0.49986  -0.49787  -0.38079  -0.33253
 Alpha  occ. eigenvalues --   -0.31058  -0.30489  -0.29208
 Alpha virt. eigenvalues --   -0.02110   0.01543   0.05564   0.10729   0.17820
 Alpha virt. eigenvalues --    0.19621   0.26510   0.28707   0.37831   0.42410
 Alpha virt. eigenvalues --    0.46212   0.47523   0.50691   0.53692   0.55566
 Alpha virt. eigenvalues --    0.60305   0.60772   0.62155   0.65721   0.66564
 Alpha virt. eigenvalues --    0.72274   0.72903   0.76463   0.76554   0.78095
 Alpha virt. eigenvalues --    0.83690   0.85169   0.86717   0.86843   0.89466
 Alpha virt. eigenvalues --    0.94976   1.05137   1.06342   1.06941   1.20938
 Alpha virt. eigenvalues --    1.25714   1.26741   1.34378   1.35869   1.39387
 Alpha virt. eigenvalues --    1.43217   1.49108   1.50964   1.58983   1.62083
 Alpha virt. eigenvalues --    1.62131   1.64928   1.68890   1.77198   1.78377
 Alpha virt. eigenvalues --    1.90148   1.92792   1.98640   2.06875   2.13948
 Alpha virt. eigenvalues --    2.20317   2.28935   2.42127   2.54861   2.76944
 Alpha virt. eigenvalues --    2.87132   2.88397   2.91637   2.97559   3.05537
 Alpha virt. eigenvalues --    3.09289   3.11786   3.17826   3.21150   3.27758
 Alpha virt. eigenvalues --    3.32714   3.33572   3.35721   3.40310   3.44175
 Alpha virt. eigenvalues --    3.48148   3.57364   3.59762   3.69084   3.71486
 Alpha virt. eigenvalues --    3.77457   3.85207   3.94002   3.99073   4.00798
 Alpha virt. eigenvalues --    4.02199   4.04952   4.07528   4.14104   4.19005
 Alpha virt. eigenvalues --    4.21818   4.23875   4.27262   4.30283   4.37628
 Alpha virt. eigenvalues --    4.43418   4.45142   4.47536   4.50010   4.50538
 Alpha virt. eigenvalues --    4.52043   4.55162   4.56219   4.57287   4.60504
 Alpha virt. eigenvalues --    4.76512   4.77813   4.83426   4.84375   4.92163
 Alpha virt. eigenvalues --    4.93266   5.01251   5.02847   5.14539   5.24262
 Alpha virt. eigenvalues --    5.31494   5.36398   5.43609   5.47809   5.52825
 Alpha virt. eigenvalues --    5.67142   5.74305   6.14612   6.26324   7.86131
 Alpha virt. eigenvalues --   10.29620  11.24206  11.28598  11.34410  11.42817
 Alpha virt. eigenvalues --   15.50294  18.20441
          Condensed to atoms (all electrons):
              1          2          3          4          5          6
  1  N    6.360899   0.494850  -0.121103   0.006340   0.476597  -0.135596
  2  N    0.494850   6.480349   0.373676  -0.023112  -0.153546  -0.098649
  3  N   -0.121103   0.373676   6.184910   0.342417  -0.030185   0.460925
  4  H    0.006340  -0.023112   0.342417   0.403302   0.006678  -0.032643
  5  N    0.476597  -0.153546  -0.030185   0.006678   6.394120   0.529053
  6  C   -0.135596  -0.098649   0.460925  -0.032643   0.529053   4.823243
  7  H    0.004587   0.003724  -0.026073   0.000463  -0.017031   0.368128
              7
  1  N    0.004587
  2  N    0.003724
  3  N   -0.026073
  4  H    0.000463
  5  N   -0.017031
  6  C    0.368128
  7  H    0.494178
 Total atomic charges:
              1
  1  N   -0.086574
  2  N   -0.077292
  3  N   -0.184567
  4  H    0.296556
  5  N   -0.205687
  6  C    0.085539
  7  H    0.172025
 Sum of Mulliken charges=   0.00000
 Atomic charges with hydrogens summed into heavy atoms:
              1
  1  N   -0.086574
  2  N   -0.077292
  3  N    0.111990
  4  H    0.000000
  5  N   -0.205687
  6  C    0.257563
  7  H    0.000000
 Sum of Mulliken charges=   0.00000
 Electronic spatial extent (au):  <R**2>=   249.9726
 Charge=     0.0000 electrons
 Dipole moment (Debye):
    X=     2.4187    Y=     4.6146    Z=     0.0000  Tot=     5.2100
 Quadrupole moment (Debye-Ang):
   XX=   -28.4631   YY=   -25.8580   ZZ=   -27.9336
   XY=     1.7523   XZ=     0.0000   YZ=     0.0000
 Octapole moment (Debye-Ang**2):
  XXX=    11.1405  YYY=    21.4318  ZZZ=     0.0000  XYY=    -0.6273
  XXY=     4.3483  XXZ=     0.0000  XZZ=    -0.6297  YZZ=     0.5002
  YYZ=     0.0000  XYZ=     0.0000
 Hexadecapole moment (Debye-Ang**3):
 XXXX=  -141.3448 YYYY=  -118.5929 ZZZZ=   -24.1384 XXXY=     6.3977
 XXXZ=     0.0000 YYYX=    -0.5740 YYYZ=     0.0000 ZZZX=     0.0000
 ZZZY=     0.0000 XXYY=   -52.6958 XXZZ=   -29.6994 YYZZ=   -28.0003
 XXYZ=     0.0000 YYXZ=     0.0000 ZZXY=    -0.1519
 N-N= 1.668180767149D+02 E-N=-9.362139677263D+02  KE= 2.565138689833D+02
 Symmetry A'   KE= 2.471031944178D+02
 Symmetry A"   KE= 9.410674565463D+00
 1|1|UNPC-UNK|FOpt|RB3LYP|6-31G(2df,p)|C1H2N4|PCUSER|17-Jan-2004|0||#B3
 LYP/6-31G(2DF,P) OPT FREQ||1htz casno=288948 method=8 basis=19||0,1|N,
 -0.7259657782,-0.9229100851,0.|N,-1.118777163,0.3048473213,0.|N,0.0039
[...]
   4   1     0.00   0.00  -0.95     0.00   0.00  -0.78     0.00   0.00   0.63
   5   7     0.00   0.00   0.02     0.00   0.00  -0.17     0.00   0.00  -0.35
   6   6     0.00   0.00  -0.08     0.00   0.00   0.18     0.00   0.00   0.10
   7   1     0.00   0.00  -0.20     0.00   0.00   0.55     0.00   0.00   0.12
                     4                      5                      6
                    A"                     A'                     A'
 Frequencies --   866.5610               972.5995              1013.8152
 Red. masses --     1.3670                 4.9068                 6.1249
 Frc consts  --     0.6048                 2.7347                 3.7091
 IR Inten    --    13.0589                 4.3167                 0.4246
 Raman Activ --     0.0000                 0.0000                 0.0000
 Depolar     --     0.0000                 0.0000                 0.0000
 Atom AN      X      Y      Z        X      Y      Z        X      Y      Z
   1   7     0.00   0.00   0.02    -0.09   0.18   0.00     0.23  -0.03   0.00
   2   7     0.00   0.00   0.00    -0.13   0.14   0.00     0.04  -0.06   0.00
   3   7     0.00   0.00   0.03    -0.10  -0.06   0.00     0.03   0.40   0.00
   4   1     0.00   0.00   0.06     0.36  -0.03   0.00     0.35   0.43   0.00
   5   7     0.00   0.00   0.03     0.38  -0.21   0.00     0.00  -0.25   0.00
   6   6     0.00   0.00  -0.17    -0.07  -0.11   0.00    -0.36  -0.07   0.00
   7   1     0.00   0.00   0.98    -0.31   0.69   0.00    -0.25  -0.46   0.00
                     7                      8                      9
                    A'                     A'                     A'
 Frequencies --  1048.6974              1070.1554              1150.3816
 Red. masses --     5.2009                 3.3399                 1.9780
 Frc consts  --     3.3700                 2.2536                 1.5423
 IR Inten    --    15.4401                28.8028                15.6388
 Raman Activ --     0.0000                 0.0000                 0.0000
 Depolar     --     0.0000                 0.0000                 0.0000
 Atom AN      X      Y      Z        X      Y      Z        X      Y      Z
   1   7     0.20   0.01   0.00     0.26   0.06   0.00    -0.12  -0.12   0.00
   2   7     0.32   0.24   0.00    -0.23   0.03   0.00     0.09  -0.03   0.00
   3   7    -0.21  -0.17   0.00     0.07  -0.16   0.00     0.13   0.00   0.00
   4   1    -0.48  -0.20   0.00     0.86  -0.12   0.00     0.45   0.02   0.00
   5   7    -0.15  -0.09   0.00    -0.13   0.03   0.00    -0.03   0.00   0.00
   6   6    -0.12  -0.02   0.00    -0.03   0.04   0.00    -0.09   0.11   0.00
   7   1    -0.33   0.55   0.00    -0.09   0.23   0.00    -0.31   0.79   0.00
                    10                     11                     12
                    A'                     A'                     A'
 Frequencies --  1267.6007              1299.8382              1456.9378
 Red. masses --     2.2981                10.9308                 3.1162
 Frc consts  --     2.1756                10.8813                 3.8972
 IR Inten    --     2.9083                13.4870                 8.5955
 Raman Activ --     0.0000                 0.0000                 0.0000
 Depolar     --     0.0000                 0.0000                 0.0000
 Atom AN      X      Y      Z        X      Y      Z        X      Y      Z
   1   7    -0.04  -0.08   0.00    -0.03   0.58   0.00    -0.01  -0.01   0.00
   2   7     0.08   0.08   0.00     0.23  -0.48   0.00    -0.06   0.10   0.00
   3   7    -0.06  -0.09   0.00     0.12  -0.17   0.00     0.20  -0.13   0.00
   4   1     0.66  -0.05   0.00    -0.18  -0.23   0.00    -0.72  -0.22   0.00
   5   7     0.11   0.18   0.00    -0.02   0.15   0.00     0.07  -0.10   0.00
   6   6    -0.16  -0.04   0.00    -0.29  -0.08   0.00    -0.17   0.24   0.00
   7   1     0.02  -0.68   0.00    -0.37   0.00   0.00     0.04  -0.51   0.00
                    13                     14                     15
                    A'                     A'                     A'
 Frequencies --  1509.1398              3289.6622              3662.5704
 Red. masses --     3.3218                 1.1002                 1.0834
 Frc consts  --     4.4574                 7.0147                 8.5625
 IR Inten    --    17.1719                 0.9084                86.7713
 Raman Activ --     0.0000                 0.0000                 0.0000
 Depolar     --     0.0000                 0.0000                 0.0000
 Atom AN      X      Y      Z        X      Y      Z        X      Y      Z
   1   7     0.06  -0.08   0.00     0.00   0.00   0.00     0.00   0.00   0.00
   2   7    -0.10   0.07   0.00     0.00   0.00   0.00     0.00   0.00   0.00
   3   7     0.16   0.03   0.00     0.00   0.00   0.00     0.01  -0.08   0.00
   4   1    -0.72  -0.03   0.00     0.01   0.02   0.00    -0.07   0.99   0.00
   5   7     0.04   0.20   0.00     0.00   0.00   0.00     0.00   0.00   0.00
   6   6    -0.10  -0.29   0.00     0.09   0.03   0.00     0.00   0.00   0.00
   7   1    -0.36   0.40   0.00    -0.95  -0.30   0.00     0.02   0.00   0.00

 -------------------
 - Thermochemistry -
 -------------------
 Temperature   298.150 Kelvin.  Pressure   1.00000 Atm.
 Atom  1 has atomic number  7 and mass  14.00307
 Atom  2 has atomic number  7 and mass  14.00307
 Atom  3 has atomic number  7 and mass  14.00307
 Atom  4 has atomic number  1 and mass   1.00783
 Atom  5 has atomic number  7 and mass  14.00307
 Atom  6 has atomic number  6 and mass  12.00000
 Atom  7 has atomic number  1 and mass   1.00783
 Molecular mass:    70.02795 amu.
 Principal axes and moments of inertia in atomic units:
                           1         2         3
     EIGENVALUES --   171.28172 174.17843 345.46015
           X            0.87266   0.48833   0.00000
           Y           -0.48833   0.87266   0.00000
           Z            0.00000   0.00000   1.00000
 THIS MOLECULE IS AN ASYMMETRIC TOP.
 ROTATIONAL SYMMETRY NUMBER  1.
 ROTATIONAL TEMPERATURES (KELVIN)      0.50568     0.49727     0.25072
 ROTATIONAL CONSTANTS (GHZ)           10.53668    10.36145     5.22417
 Zero-point vibrational energy     123368.7 (Joules/Mol)
                                   29.48582 (Kcal/Mol)
 WARNING-- EXPLICIT CONSIDERATION OF   1 DEGREES OF FREEDOM AS
           VIBRATIONS MAY CAUSE SIGNIFICANT ERROR
 VIBRATIONAL TEMPERATURES:    837.06   997.18  1068.73  1246.78  1399.35
          (KELVIN)           1458.65  1508.83  1539.71  1655.13  1823.78
                             1870.17  2096.20  2171.30  4733.06  5269.59
 
 Zero-point correction=                           0.046989 (Hartree/Particle)
 Thermal correction to Energy=                    0.050454
 Thermal correction to Enthalpy=                  0.051398
 Thermal correction to Gibbs Free Energy=         0.020898
 Sum of electronic and zero-point Energies=           -258.220680
 Sum of electronic and thermal Energies=              -258.217214
 Sum of electronic and thermal Enthalpies=            -258.216270
 Sum of electronic and thermal Free Energies=         -258.246771
 
                     E (Thermal)             CV                S
                      KCAL/MOL        CAL/MOL-KELVIN    CAL/MOL-KELVIN
 TOTAL                   31.660             11.288             64.194
 ELECTRONIC               0.000              0.000              0.000
 TRANSLATIONAL            0.889              2.981             38.656
 ROTATIONAL               0.889              2.981             23.848
 VIBRATIONAL             29.883              5.326              1.690
 VIBRATION  1             0.939              1.071              0.482
                       Q            LOG10(Q)             LN(Q)
 TOTAL BOT       0.244257D-09         -9.612152        -22.132799
 TOTAL V=0       0.100225D+13         12.000978         27.633273
 VIB (BOT)       0.291796D-21        -21.534921        -49.585988
 VIB (BOT)  1    0.261454D+00         -0.582605         -1.341497
 VIB (V=0)       0.119732D+01          0.078209          0.180084
 VIB (V=0)  1    0.106423D+01          0.027036          0.062254
 ELECTRONIC      0.100000D+01          0.000000          0.000000
 TRANSLATIONAL   0.230339D+08          7.362368         16.952478
 ROTATIONAL      0.363413D+05          4.560401         10.500711
 ***** Axes restored to original set *****
 -------------------------------------------------------------------
 Center     Atomic                   Forces (Hartrees/Bohr)
 Number     Number              X              Y              Z
 -------------------------------------------------------------------
    1          7           0.000236059   -0.000139614    0.000000000
    2          7           0.000041859    0.000136427    0.000000000
    3          7          -0.000103703    0.000074501    0.000000000
    4          1           0.000009425    0.000035813    0.000000000
    5          7          -0.000247307   -0.000199460    0.000000000
    6          6           0.000073133    0.000115811    0.000000000
    7          1          -0.000009465   -0.000023478    0.000000000
 -------------------------------------------------------------------
 Cartesian Forces:  Max     0.000247307 RMS     0.000105470

 GradGradGradGradGradGradGradGradGradGradGradGradGradGradGradGradGradGrad
 Berny optimization.
 Internal  Forces:  Max     0.000203100 RMS     0.000069295
 Search for a local minimum.
 Step number   1 out of a maximum of  36
 All quantities printed in internal units (Hartrees-Bohrs-Radians)
 Second derivative matrix not updated -- analytic derivatives used.
     Eigenvalues ---    0.00812   0.02552   0.07289   0.07917   0.10090
     Eigenvalues ---    0.10536   0.19607   0.24411   0.34584   0.37762
     Eigenvalues ---    0.43324   0.46862   0.48176   0.57889   0.63322
     Eigenvalues --- 1000.000001000.000001000.000001000.000001000.00000
     Eigenvalues --- 1000.000001000.000001000.000001000.000001000.00000
     Eigenvalues --- 1000.00000
 Angle between quadratic step and forces=  27.91 degrees.
 Linear search not attempted -- first point.
 Iteration  1 RMS(Cart)=  0.00015780 RMS(Int)=  0.00000001
 Iteration  2 RMS(Cart)=  0.00000001 RMS(Int)=  0.00000001
 Variable       Old X    -DE/DX   Delta X   Delta X   Delta X     New X
                                 (Linear)    (Quad)   (Total)
    R1        2.43598   0.00016   0.00000   0.00045   0.00045   2.43643
    R2        2.57673  -0.00020   0.00000  -0.00084  -0.00084   2.57589
    R3        2.55058  -0.00005   0.00000  -0.00020  -0.00020   2.55038
    R4        1.90392   0.00003   0.00000   0.00007   0.00007   1.90400
    R5        2.53987   0.00007   0.00000   0.00009   0.00009   2.53996
    R6        2.48153   0.00019   0.00000   0.00045   0.00045   2.48198
    R7        2.03615  -0.00001   0.00000  -0.00005  -0.00005   2.03610
    A1        1.94317   0.00003   0.00000   0.00010   0.00010   1.94327
    A2        1.84955   0.00005   0.00000  -0.00003  -0.00003   1.84952
    A3        2.10059   0.00004   0.00000   0.00006   0.00006   2.10064
    A4        1.89480  -0.00007   0.00000  -0.00003  -0.00003   1.89477
    A5        2.28780   0.00003   0.00000  -0.00003  -0.00003   2.28778
    A6        1.84342  -0.00002   0.00000   0.00009   0.00009   1.84350
    A7        1.89384   0.00002   0.00000  -0.00012  -0.00012   1.89372
    A8        2.17589   0.00000   0.00000   0.00020   0.00020   2.17609
    A9        2.21345  -0.00002   0.00000  -0.00008  -0.00008   2.21338
    D1        0.00000   0.00000   0.00000   0.00000   0.00000   0.00000
    D2        0.00000   0.00000   0.00000   0.00000   0.00000   0.00000
    D3        3.14159   0.00000   0.00000   0.00000   0.00000   3.14159
    D4        0.00000   0.00000   0.00000   0.00000   0.00000   0.00000
    D5        0.00000   0.00000   0.00000   0.00000   0.00000   0.00000
    D6        3.14159   0.00000   0.00000   0.00000   0.00000   3.14159
    D7        3.14159   0.00000   0.00000   0.00000   0.00000   3.14159
    D8        0.00000   0.00000   0.00000   0.00000   0.00000   0.00000
    D9        0.00000   0.00000   0.00000   0.00000   0.00000   0.00000
   D10        3.14159   0.00000   0.00000   0.00000   0.00000   3.14159
         Item               Value     Threshold  Converged?
 Maximum Force            0.000203     0.000450     YES
 RMS     Force            0.000069     0.000300     YES
 Maximum Displacement     0.000462     0.001800     YES
 RMS     Displacement     0.000158     0.001200     YES
 Predicted change in Energy=-1.745688D-07
 Optimization completed.
    -- Stationary point found.
                         ----------------------------
                         !   Optimized Parameters   !
                         ! (Angstroms and Degrees)  !
 ------------------------                            -------------------------
 ! Name  Definition              Value          Derivative Info.             !
 -----------------------------------------------------------------------------
 ! R1    R(1,2)                  1.2891         -DE/DX =    0.0002           !
 ! R2    R(1,5)                  1.3635         -DE/DX =   -0.0002           !
 ! R3    R(2,3)                  1.3497         -DE/DX =   -0.0001           !
 ! R4    R(3,4)                  1.0075         -DE/DX =    0.               !
 ! R5    R(3,6)                  1.344          -DE/DX =    0.0001           !
 ! R6    R(5,6)                  1.3132         -DE/DX =    0.0002           !
 ! R7    R(6,7)                  1.0775         -DE/DX =    0.               !
 ! A1    A(2,1,5)              111.3354         -DE/DX =    0.               !
 ! A2    A(1,2,3)              105.9716         -DE/DX =    0.               !
 ! A3    A(2,3,4)              120.3548         -DE/DX =    0.               !
 ! A4    A(2,3,6)              108.5639         -DE/DX =   -0.0001           !
 ! A5    A(4,3,6)              131.0814         -DE/DX =    0.               !
 ! A6    A(1,5,6)              105.62           -DE/DX =    0.               !
 ! A7    A(3,6,5)              108.5092         -DE/DX =    0.               !
 ! A8    A(3,6,7)              124.6693         -DE/DX =    0.               !
 ! A9    A(5,6,7)              126.8215         -DE/DX =    0.               !
 ! D1    D(5,1,2,3)              0.             -DE/DX =    0.               !
 ! D2    D(2,1,5,6)              0.             -DE/DX =    0.               !
 ! D3    D(1,2,3,4)            180.             -DE/DX =    0.               !
 ! D4    D(1,2,3,6)              0.             -DE/DX =    0.               !
 ! D5    D(2,3,6,5)              0.             -DE/DX =    0.               !
 ! D6    D(2,3,6,7)            180.             -DE/DX =    0.               !
 ! D7    D(4,3,6,5)            180.             -DE/DX =    0.               !
 ! D8    D(4,3,6,7)              0.             -DE/DX =    0.               !
 ! D9    D(1,5,6,3)              0.             -DE/DX =    0.               !
 ! D10   D(1,5,6,7)            180.             -DE/DX =    0.               !
 -----------------------------------------------------------------------------
 GradGradGradGradGradGradGradGradGradGradGradGradGradGradGradGradGradGrad

 1|1|UNPC-UNK|Freq|RB3LYP|6-31G(2df,p)|C1H2N4|PCUSER|17-Jan-2004|0||#N 
 GEOM=ALLCHECK GUESS=TCHECK RB3LYP/6-31G(2DF,P) FREQ||1htz casno=288948
  method=8 basis=19||0,1|N,-0.7259657782,-0.9229100851,0.|N,-1.11877716
 3,0.3048473213,0.|N,0.0039456654,1.0539847069,0.|H,-0.0550772438,2.059
 768094,0.|N,0.6348981004,-1.0083798468,0.|C,1.067052687,0.23164273,0.|
 H,2.0940553484,0.557580851,0.||Version=x86-Win32-G98RevA.7|State=1-A'|
 HF=-258.2676683|RMSD=7.474e-009|RMSF=1.055e-004|Dipole=0.9583605,1.811
 9305,0.|DipoleDeriv=0.1673257,-0.0785089,0.0002287,-0.1291828,-0.13593
 64,-0.0000209,0.0000458,-0.0001051,-0.1475541,-0.1967821,0.380957,-0.0
 000959,0.2983664,0.1167823,0.0000118,0.0000222,0.0000244,-0.1057974,-0
 .0663401,-0.1532819,0.0001286,-0.0901415,-0.4709199,-0.0001233,-0.0000
 052,0.0000453,-0.118772,0.1964171,-0.0090088,-0.0000115,-0.0230642,0.2
 743475,0.000027,-0.0000345,0.000036,0.3204381,-0.4211027,0.062859,-0.0
 001208,-0.0316881,-0.2708629,0.0001495,0.0000017,-0.0000337,-0.2090497
 ,0.252826,-0.1723462,-0.0000551,0.0059618,0.3912018,-0.0000184,-0.0000
 011,-0.0000268,0.1108139,0.0676561,-0.0306703,-0.000074,-0.0302513,0.0
 953873,-0.0000257,-0.0000288,0.0000599,0.1499213|Polar=38.9264001,0.99
 53029,38.2371329,-0.0002688,-0.0004833,18.2979527|PG=CS [SG(C1H2N4)]|N
 Imag=0||0.42610601,0.05752644,0.59751329,0.00000820,0.00000243,0.12555
 430,-0.13229074,0.04001463,-0.00000590,0.53075488,0.10003466,-0.325288
 23,-0.00000738,-0.09661892,0.50030650,-0.00000659,-0.00000265,-0.09790
 284,0.00000404,0.00000626,0.11597269,-0.02422840,-0.07899825,0.0000065
 5,-0.21267975,-0.05262876,-0.00000609,0.55791733,-0.00144576,-0.153163
 76,-0.00000423,-0.01735605,-0.11230311,-0.00000010,-0.09065436,1.00869
 680,-0.00000348,-0.00000038,0.02708603,-0.00000048,0.00000235,-0.06934
 127,-0.00000269,-0.00000229,0.09265660,-0.00910168,-0.00991073,0.00000
 025,0.01504634,-0.02890154,0.00000008,-0.07244355,0.03441430,0.0000000
 8,0.05942525,-0.00100510,-0.00022247,0.00000537,0.00540007,-0.01067322
 ,-0.00000147,0.02840181,-0.46077655,0.00000181,-0.02494856,0.47474395,
 0.00000198,-0.00000044,0.00783086,0.,0.00000294,-0.01200650,-0.0000011
 4,-0.00000132,-0.00665257,-0.00000035,-0.00000050,0.01355325,-0.182939
 82,0.01064227,-0.00000758,-0.08504904,0.12001351,0.00000833,0.01892294
 ,-0.03072452,0.00000400,-0.00628668,-0.00109304,0.00000064,0.39221385,
 -0.02878245,-0.10031604,0.00000610,0.01460004,-0.04098239,-0.00000024,
 0.08392919,-0.10613237,-0.00000068,0.00854849,-0.00012571,-0.00000251,
 0.00043397,0.61113659,0.00000247,0.00000004,-0.09087679,0.00000011,-0.
 00000445,0.03598272,0.00000490,0.00000738,0.02174492,0.,-0.00000395,0.
 00732716,-0.00000672,-0.00000114,0.11056651,-0.07814279,-0.02074248,0.
 00000261,-0.11549115,-0.04276377,-0.00000325,-0.25397334,0.11590547,0.
 00000135,0.01396826,-0.00707764,-0.00000062,-0.13602356,-0.07787981,0.
 00000092,0.90522699,-0.12197709,-0.01321673,-0.00000100,0.05002250,-0.
 00522625,-0.00000331,0.08457656,-0.18894115,-0.00000157,0.02118947,-0.
 00285225,0.00000194,-0.07007149,-0.36352115,0.00000347,0.12133826,0.65
 601391,-0.00000444,0.00000085,0.01919088,0.00000268,-0.00000017,0.0211
 6876,-0.00000404,-0.00000046,-0.06306500,0.00000019,0.00000123,-0.0091
 6407,0.00000355,-0.00000027,-0.07983943,-0.00000039,-0.00000206,0.1421
 3853,0.00059743,0.00146812,-0.00000414,-0.00029053,0.00086482,0.000003
 47,-0.01351525,-0.01013907,0.00000122,-0.00060794,0.00032246,-0.000000
 50,-0.00083768,-0.00084944,-0.00000168,-0.33556442,-0.08507822,0.00000
 246,0.35021840,-0.00435071,-0.00530605,-0.00000128,0.00393774,-0.00583
 331,0.00000151,0.02537380,0.01262010,0.00000076,-0.00039143,-0.0000937
 4,-0.00000011,-0.02920071,-0.00005894,-0.00000135,-0.08878004,-0.08225
 640,0.00000088,0.09341136,0.08092834,0.00000187,0.00000015,0.00911756,
 -0.00000045,0.00000046,0.00612643,0.00000251,0.00000101,-0.00242870,-0
 .00000025,-0.00000249,-0.00088814,-0.00000222,-0.00000125,-0.00490510,
 -0.00000063,0.00000253,-0.03042967,-0.00000084,-0.00000040,0.02340763|
 |-0.00023606,0.00013961,0.,-0.00004186,-0.00013643,0.,0.00010370,-0.00
 007450,0.,-0.00000942,-0.00003581,0.,0.00024731,0.00019946,0.,-0.00007
 313,-0.00011581,0.,0.00000947,0.00002348,0.|||@


 WE MIGHT AS WELL ATTEMPT TO INTRODUCE A NEW PLANET 
 INTO THE SOLAR SYSTEM, OR TO ANNIHILATE ONE ALREADYIN EXISTENCE, 
 AS TO CREATE OR DESTROY A PARTICLE OF HYDROGEN.
 ALL THE CHANGES WE CAN PRODUCE CONSIST IN SEPARATING PARTICLES
 THAT ARE IN A STATE OF ... COMBINATION, AND JOINING 
 THOSE THAT WERE PREVIOUSLY AT A DISTANCE.

                                    -- JOHN DALTON, 1810
 Job cpu time:  0 days  0 hours 18 minutes 42.0 seconds.
 File lengths (MBytes):  RWF=   25 Int=    0 D2E=    0 Chk=    4 Scr=    1
 Normal termination of Gaussian 98.
