 Entering Link 1 = C:\G03W\l1.exe PID=     24740.
  
 Copyright (c) 1988,1990,1992,1993,1995,1998,2003, Gaussian, Inc.
                  All Rights Reserved.
  
 This is the Gaussian(R) 03 program.  It is based on the
 the Gaussian(R) 98 system (copyright 1998, Gaussian, Inc.),
 the Gaussian(R) 94 system (copyright 1995, Gaussian, Inc.),
 the Gaussian 92(TM) system (copyright 1992, Gaussian, Inc.),
 the Gaussian 90(TM) system (copyright 1990, Gaussian, Inc.),
 the Gaussian 88(TM) system (copyright 1988, Gaussian, Inc.),
 the Gaussian 86(TM) system (copyright 1986, Carnegie Mellon
 University), and the Gaussian 82(TM) system (copyright 1983,
 Carnegie Mellon University). Gaussian is a federally registered
 trademark of Gaussian, Inc.
  
 This software contains proprietary and confidential information,
 including trade secrets, belonging to Gaussian, Inc.
  
 This software is provided under written license and may be
 used, copied, transmitted, or stored only in accord with that
 written license.
  
 The following legend is applicable only to US Government
 contracts under DFARS:
  
                    RESTRICTED RIGHTS LEGEND
  
 Use, duplication or disclosure by the US Government is subject
 to restrictions as set forth in subparagraph (c)(1)(ii) of the
 Rights in Technical Data and Computer Software clause at DFARS
 252.227-7013.
  
 Gaussian, Inc.
 Carnegie Office Park, Building 6, Pittsburgh, PA 15106 USA
  
 The following legend is applicable only to US Government
 contracts under FAR:
  
                    RESTRICTED RIGHTS LEGEND
  
 Use, reproduction and disclosure by the US Government is subject
 to restrictions as set forth in subparagraph (c) of the
 Commercial Computer Software - Restricted Rights clause at FAR
 52.227-19.
  
 Gaussian, Inc.
 Carnegie Office Park, Building 6, Pittsburgh, PA 15106 USA
  
  
 ---------------------------------------------------------------
 Warning -- This program may not be used in any manner that
 competes with the business of Gaussian, Inc. or will provide
 assistance to any competitor of Gaussian, Inc.  The licensee
 of this program is prohibited from giving any competitor of
 Gaussian, Inc. access to this program.  By using this program,
 the user acknowledges that Gaussian, Inc. is engaged in the
 business of creating and licensing software in the field of
 computational chemistry and represents and warrants to the
 licensee that it is not a competitor of Gaussian, Inc. and that
 it will not use this program in any manner prohibited above.
 ---------------------------------------------------------------
  

 Cite this work as:
 Gaussian 03, Revision B.05,
 M. J. Frisch, G. W. Trucks, H. B. Schlegel, G. E. Scuseria, 
 M. A. Robb, J. R. Cheeseman, J. A. Montgomery, Jr., T. Vreven, 
 K. N. Kudin, J. C. Burant, J. M. Millam, S. S. Iyengar, J. Tomasi, 
 V. Barone, B. Mennucci, M. Cossi, G. Scalmani, N. Rega, 
 G. A. Petersson, H. Nakatsuji, M. Hada, M. Ehara, K. Toyota, 
 R. Fukuda, J. Hasegawa, M. Ishida, T. Nakajima, Y. Honda, O. Kitao, 
 H. Nakai, M. Klene, X. Li, J. E. Knox, H. P. Hratchian, J. B. Cross, 
 C. Adamo, J. Jaramillo, R. Gomperts, R. E. Stratmann, O. Yazyev, 
 A. J. Austin, R. Cammi, C. Pomelli, J. W. Ochterski, P. Y. Ayala, 
 K. Morokuma, G. A. Voth, P. Salvador, J. J. Dannenberg, 
 V. G. Zakrzewski, S. Dapprich, A. D. Daniels, M. C. Strain, 
 O. Farkas, D. K. Malick, A. D. Rabuck, K. Raghavachari, 
 J. B. Foresman, J. V. Ortiz, Q. Cui, A. G. Baboul, S. Clifford, 
 J. Cioslowski, B. B. Stefanov, G. Liu, A. Liashenko, P. Piskorz, 
 I. Komaromi, R. L. Martin, D. J. Fox, T. Keith, M. A. Al-Laham, 
 C. Y. Peng, A. Nanayakkara, M. Challacombe, P. M. W. Gill, 
 B. Johnson, W. Chen, M. W. Wong, C. Gonzalez, and J. A. Pople, 
 Gaussian, Inc., Pittsburgh PA, 2003.
 
 **********************************************
 Gaussian 03:  x86-Win32-G03RevB.05  8-Nov-2003
                  26-Jul-2004 
 **********************************************
 %mem=56000000
 Default route:  MaxDisk=2000MB
 -------------------------------
 #B3LYP/6-311+G(3df,2p) opt freq
 -------------------------------
 1/14=-1,18=20,26=3,38=1/1,3;
 2/9=110,17=6,18=5,40=1/2;
 3/5=4,6=6,7=216,11=2,16=1,25=1,30=1,74=-5/1,2,3;
 4//1;
 5/5=2,38=5/2;
 6/7=2,8=2,9=2,10=2,28=1/1;
 7//1,2,3,16;
 1/14=-1,18=20/3(1);
 99//99;
 2/9=110/2;
 3/5=4,6=6,7=216,11=2,16=1,25=1,30=1,74=-5/1,2,3;
 4/5=5,16=3/1;
 5/5=2,38=5/2;
 7//1,2,3,16;
 1/14=-1,18=20/3(-5);
 2/9=110/2;
 6/7=2,8=2,9=2,10=2,19=2,28=1/1;
 99/9=1/99;
 -----------------------------------
 1htz casno=288948 method=8 basis=10
 -----------------------------------
 Symbolic Z-matrix:
 Charge =  0 Multiplicity = 1
 N                    -0.71631  -0.90193   0. 
 N                    -1.09552   0.29142   0. 
 N                     0.        1.03878   0. 
 H                    -0.06148   2.03099   0. 
 N                     0.62215  -0.9895    0. 
 C                     1.05281   0.22578   0. 
 H                     2.07237   0.54298   0. 
 

 GradGradGradGradGradGradGradGradGradGradGradGradGradGradGradGradGradGrad
 Berny optimization.
 Initialization pass.
                           ----------------------------
                           !    Initial Parameters    !
                           ! (Angstroms and Degrees)  !
 --------------------------                            --------------------------
 ! Name  Definition              Value          Derivative Info.                !
 --------------------------------------------------------------------------------
 ! R1    R(1,2)                  1.2522         estimate D2E/DX2                !
 ! R2    R(1,5)                  1.3413         estimate D2E/DX2                !
 ! R3    R(2,3)                  1.3262         estimate D2E/DX2                !
 ! R4    R(3,4)                  0.9941         estimate D2E/DX2                !
 ! R5    R(3,6)                  1.3302         estimate D2E/DX2                !
 ! R6    R(5,6)                  1.2893         estimate D2E/DX2                !
 ! R7    R(6,7)                  1.0678         estimate D2E/DX2                !
 ! A1    A(2,1,5)              111.3714         estimate D2E/DX2                !
 ! A2    A(1,2,3)              106.673          estimate D2E/DX2                !
 ! A3    A(2,3,4)              120.7559         estimate D2E/DX2                !
 ! A4    A(2,3,6)              108.0227         estimate D2E/DX2                !
 ! A5    A(4,3,6)              131.2214         estimate D2E/DX2                !
 ! A6    A(1,5,6)              105.7701         estimate D2E/DX2                !
 ! A7    A(3,6,5)              108.1628         estimate D2E/DX2                !
 ! A8    A(3,6,7)              125.0426         estimate D2E/DX2                !
 ! A9    A(5,6,7)              126.7946         estimate D2E/DX2                !
 ! D1    D(5,1,2,3)              0.0            estimate D2E/DX2                !
 ! D2    D(2,1,5,6)              0.0            estimate D2E/DX2                !
 ! D3    D(1,2,3,4)            180.0            estimate D2E/DX2                !
 ! D4    D(1,2,3,6)              0.0            estimate D2E/DX2                !
 ! D5    D(2,3,6,5)              0.0            estimate D2E/DX2                !
 ! D6    D(2,3,6,7)            180.0            estimate D2E/DX2                !
 ! D7    D(4,3,6,5)            180.0            estimate D2E/DX2                !
 ! D8    D(4,3,6,7)              0.0            estimate D2E/DX2                !
 ! D9    D(1,5,6,3)              0.0            estimate D2E/DX2                !
 ! D10   D(1,5,6,7)            180.0            estimate D2E/DX2                !
 --------------------------------------------------------------------------------
 Trust Radius=3.00D-01 FncErr=1.00D-07 GrdErr=1.00D-06
 Number of steps in this run=  36 maximum allowed number of steps= 100.
 GradGradGradGradGradGradGradGradGradGradGradGradGradGradGradGradGradGrad

                          Input orientation:                          
 ---------------------------------------------------------------------
 Center     Atomic     Atomic              Coordinates (Angstroms)
 Number     Number      Type              X           Y           Z
 ---------------------------------------------------------------------
    1          7             0       -0.716312   -0.901934    0.000000
    2          7             0       -1.095520    0.291420    0.000000
    3          7             0        0.000000    1.038775    0.000000
    4          1             0       -0.061479    2.030994    0.000000
    5          7             0        0.622151   -0.989495    0.000000
    6          6             0        1.052813    0.225779    0.000000
    7          1             0        2.072370    0.542976    0.000000
 ---------------------------------------------------------------------
                    Distance matrix (angstroms):
                    1          2          3          4          5
     1  N    0.000000
     2  N    1.252155   0.000000
     3  N    2.068684   1.326161   0.000000
     4  H    3.005141   2.023699   0.994122   0.000000
     5  N    1.341324   2.142694   2.121544   3.096886   0.000000
     6  C    2.097985   2.149336   1.330180   2.121426   1.289326
     7  H    3.140782   3.177862   2.130853   2.601444   2.109882
                    6          7
     6  C    0.000000
     7  H    1.067760   0.000000
 Stoichiometry    CH2N4
 Framework group  CS[SG(CH2N4)]
 Deg. of freedom    11
 Full point group                 CS      NOp   2
 Largest Abelian subgroup         CS      NOp   2
 Largest concise Abelian subgroup C1      NOp   1
                         Standard orientation:                         
 ---------------------------------------------------------------------
 Center     Atomic     Atomic              Coordinates (Angstroms)
 Number     Number      Type              X           Y           Z
 ---------------------------------------------------------------------
    1          7             0       -0.716312   -0.901934    0.000000
    2          7             0       -1.095520    0.291420    0.000000
    3          7             0        0.000000    1.038775    0.000000
    4          1             0       -0.061479    2.030994    0.000000
    5          7             0        0.622151   -0.989495    0.000000
    6          6             0        1.052813    0.225779    0.000000
    7          1             0        2.072370    0.542976    0.000000
 ---------------------------------------------------------------------
 Rotational constants (GHZ):     10.9198649     10.7343934      5.4131674
 Standard basis: 6-311+G(3df,2p) (5D, 7F)
 There are   144 symmetry adapted basis functions of A'  symmetry.
 There are    69 symmetry adapted basis functions of A"  symmetry.
 Integral buffers will be    262144 words long.
 Raffenetti 2 integral format.
 Two-electron integral symmetry is turned on.
   213 basis functions,   312 primitive gaussians,   243 cartesian basis functions
    18 alpha electrons       18 beta electrons
       nuclear repulsion energy       169.8288229759 Hartrees.
 NAtoms=    7 NActive=    7 NUniq=    7 SFac= 1.00D+00 NAtFMM=   60 Big=F
 One-electron integrals computed using PRISM.
 NBasis=   213 RedAO= T  NBF=   144    69
 NBsUse=   213 1.00D-06 NBFU=   144    69
 Harris functional with IExCor=  402 diagonalized for initial guess.
 ExpMin= 4.38D-02 ExpMax= 6.29D+03 ExpMxC= 9.49D+02 IAcc=2 IRadAn=         4 AccDes= 0.00D+00
 HarFok:  IExCor= 402 AccDes= 0.00D+00 IRadAn=         4 IDoV=1
 ScaDFX=  1.000000  1.000000  1.000000  1.000000
 Initial guess orbital symmetries:
       Occupied  (A') (A') (A') (A') (A') (A') (A') (A') (A') (A')
                 (A') (A') (A") (A') (A") (A') (A") (A')
       Virtual   (A") (A") (A') (A') (A') (A") (A') (A') (A') (A')
                 (A") (A") (A') (A') (A') (A') (A') (A") (A') (A")
                 (A') (A') (A') (A') (A') (A') (A') (A") (A') (A')
                 (A') (A") (A") (A') (A') (A') (A') (A") (A') (A")
                 (A") (A') (A') (A') (A') (A') (A") (A') (A') (A")
                 (A") (A") (A') (A') (A') (A") (A') (A') (A") (A')
                 (A') (A") (A') (A") (A") (A') (A") (A") (A') (A')
                 (A') (A') (A') (A') (A') (A') (A') (A') (A") (A')
                 (A") (A') (A') (A") (A') (A') (A') (A') (A") (A")
                 (A') (A') (A") (A') (A') (A') (A") (A") (A') (A")
                 (A') (A") (A') (A') (A") (A') (A") (A') (A') (A')
                 (A") (A') (A') (A") (A') (A") (A") (A') (A") (A")
                 (A') (A') (A") (A') (A') (A') (A") (A') (A") (A")
                 (A') (A") (A') (A') (A') (A') (A") (A') (A') (A")
                 (A') (A') (A') (A') (A') (A") (A') (A") (A') (A")
                 (A") (A') (A") (A') (A') (A") (A") (A') (A') (A')
                 (A') (A') (A') (A') (A') (A") (A") (A') (A') (A')
                 (A") (A") (A") (A') (A') (A") (A") (A') (A') (A")
                 (A") (A') (A') (A') (A') (A") (A') (A') (A') (A')
                 (A') (A') (A') (A') (A')
 The electronic state of the initial guess is 1-A'.
 Requested convergence on RMS density matrix=1.00D-08 within 128 cycles.
 Requested convergence on MAX density matrix=1.00D-06.
 Requested convergence on             energy=1.00D-06.
 No special actions if energy rises.
 SCF Done:  E(RB+HF-LYP) =  -258.341825231     A.U. after   12 cycles
             Convg  =    0.2744D-08             -V/T =  2.0025
             S**2   =   0.0000

 **********************************************************************

            Population analysis using the SCF density.

 **********************************************************************

 Orbital symmetries:
       Occupied  (A') (A') (A') (A') (A') (A') (A') (A') (A') (A')
                 (A') (A") (A') (A') (A") (A") (A') (A')
       Virtual   (A") (A') (A") (A') (A') (A") (A') (A') (A') (A")
                 (A") (A') (A') (A') (A') (A') (A") (A') (A') (A")
                 (A') (A') (A') (A') (A') (A') (A") (A') (A') (A')
                 (A') (A") (A") (A') (A') (A') (A") (A') (A') (A")
                 (A') (A") (A') (A') (A') (A') (A") (A') (A") (A')
                 (A") (A") (A') (A') (A') (A") (A') (A") (A') (A')
                 (A') (A") (A") (A') (A") (A') (A") (A") (A') (A')
                 (A') (A') (A') (A') (A') (A') (A') (A') (A') (A")
                 (A") (A') (A') (A") (A') (A') (A") (A') (A') (A")
                 (A') (A') (A") (A') (A') (A') (A") (A") (A') (A")
                 (A') (A") (A') (A') (A") (A") (A') (A') (A') (A')
                 (A") (A') (A') (A") (A') (A") (A") (A') (A") (A')
                 (A") (A') (A") (A') (A') (A') (A") (A') (A") (A")
                 (A') (A") (A') (A') (A') (A") (A') (A') (A') (A")
                 (A') (A') (A') (A') (A') (A") (A') (A") (A') (A")
                 (A") (A") (A') (A') (A') (A") (A") (A') (A') (A')
                 (A') (A') (A') (A') (A') (A") (A") (A') (A') (A')
                 (A") (A") (A") (A') (A') (A") (A') (A") (A') (A")
                 (A") (A') (A') (A') (A') (A") (A') (A') (A') (A')
                 (A') (A') (A') (A') (A')
 The electronic state is 1-A'.
 Alpha  occ. eigenvalues --  -14.43121 -14.39740 -14.37984 -14.34924 -10.26544
 Alpha  occ. eigenvalues --   -1.17867  -0.96851  -0.91840  -0.69831  -0.68594
 Alpha  occ. eigenvalues --   -0.61772  -0.52330  -0.51701  -0.39821  -0.34979
 Alpha  occ. eigenvalues --   -0.32916  -0.31604  -0.30074
 Alpha virt. eigenvalues --   -0.03004  -0.01855   0.00249   0.01912   0.03776
 Alpha virt. eigenvalues --    0.04868   0.06714   0.08697   0.10317   0.12097
 Alpha virt. eigenvalues --    0.13567   0.14698   0.15926   0.16584   0.17379
 Alpha virt. eigenvalues --    0.18780   0.19844   0.20263   0.20793   0.21613
 Alpha virt. eigenvalues --    0.22383   0.23526   0.24879   0.27999   0.30921
 Alpha virt. eigenvalues --    0.31895   0.33887   0.37193   0.39332   0.43580
 Alpha virt. eigenvalues --    0.45392   0.45891   0.49282   0.50042   0.53527
 Alpha virt. eigenvalues --    0.53939   0.58502   0.58802   0.60091   0.62341
 Alpha virt. eigenvalues --    0.64987   0.65095   0.67543   0.67849   0.71393
 Alpha virt. eigenvalues --    0.71738   0.74104   0.77539   0.80099   0.81303
 Alpha virt. eigenvalues --    0.81696   0.83433   0.86221   0.87050   0.88663
 Alpha virt. eigenvalues --    0.91842   0.91957   0.94938   0.95559   0.97819
 Alpha virt. eigenvalues --    1.02568   1.05176   1.08936   1.09089   1.12334
 Alpha virt. eigenvalues --    1.16746   1.17759   1.20642   1.24675   1.25162
 Alpha virt. eigenvalues --    1.30398   1.38126   1.39403   1.42054   1.48694
 Alpha virt. eigenvalues --    1.48966   1.53985   1.60327   1.68370   1.69527
 Alpha virt. eigenvalues --    1.74923   1.79414   1.81887   1.97173   1.98196
 Alpha virt. eigenvalues --    2.01310   2.09808   2.10082   2.11514   2.14874
 Alpha virt. eigenvalues --    2.17953   2.22677   2.31297   2.32348   2.36260
 Alpha virt. eigenvalues --    2.41163   2.44857   2.50622   2.59047   2.69531
 Alpha virt. eigenvalues --    2.71627   2.73005   2.80108   2.81116   2.84578
 Alpha virt. eigenvalues --    2.87334   2.88214   3.00179   3.03611   3.12577
 Alpha virt. eigenvalues --    3.13210   3.18966   3.29131   3.33623   3.40711
 Alpha virt. eigenvalues --    3.42272   3.48118   3.50378   3.60125   3.66216
 Alpha virt. eigenvalues --    3.66736   3.70095   3.70526   3.78962   3.80406
 Alpha virt. eigenvalues --    3.82674   3.84590   3.89671   3.89854   3.93541
 Alpha virt. eigenvalues --    3.97503   3.97824   4.00707   4.05818   4.09125
 Alpha virt. eigenvalues --    4.09668   4.11929   4.20245   4.23550   4.29687
 Alpha virt. eigenvalues --    4.31605   4.38945   4.48269   4.51620   4.63200
 Alpha virt. eigenvalues --    4.69955   4.76300   4.83080   4.88871   4.94287
 Alpha virt. eigenvalues --    4.99073   5.10005   5.10360   5.23398   5.29755
 Alpha virt. eigenvalues --    5.29888   5.44076   5.57710   5.58871   5.89676
 Alpha virt. eigenvalues --    6.12706   6.23309   6.29875   6.73273   7.01991
 Alpha virt. eigenvalues --    7.19183   7.26288   7.43374   7.94080   8.03898
 Alpha virt. eigenvalues --   10.01717  10.06946  10.07642  10.17411  10.32804
 Alpha virt. eigenvalues --   10.41054  10.50044  10.51663  10.58473  10.63840
 Alpha virt. eigenvalues --   10.67623  10.72024  10.77180  10.90860  10.92500
 Alpha virt. eigenvalues --   10.98645  11.34068  11.39058  11.52433  12.70748
 Alpha virt. eigenvalues --   25.14176  35.82372  36.20412  36.37738  36.57204
          Condensed to atoms (all electrons):
              1          2          3          4          5          6
     1  N    8.623613  -1.001579   0.242948   0.001785  -0.650846  -0.042483
     2  N   -1.001579   8.550385  -0.511793  -0.052116   0.289567  -0.157266
     3  N    0.242948  -0.511793   7.346722   0.421852  -0.278635   0.205612
     4  H    0.001785  -0.052116   0.421852   0.464737   0.006822  -0.035254
     5  N   -0.650846   0.289567  -0.278635   0.006822   7.950699   0.253783
     6  C   -0.042483  -0.157266   0.205612  -0.035254   0.253783   4.552174
     7  H    0.011459   0.006639  -0.055027  -0.000432  -0.055406   0.427784
              7
     1  N    0.011459
     2  N    0.006639
     3  N   -0.055027
     4  H   -0.000432
     5  N   -0.055406
     6  C    0.427784
     7  H    0.456842
 Mulliken atomic charges:
              1
     1  N   -0.184896
     2  N   -0.123837
     3  N   -0.371680
     4  H    0.192607
     5  N   -0.515984
     6  C    0.795649
     7  H    0.208141
 Sum of Mulliken charges=   0.00000
 Atomic charges with hydrogens summed into heavy atoms:
              1
     1  N   -0.184896
     2  N   -0.123837
     3  N   -0.179073
     4  H    0.000000
     5  N   -0.515984
     6  C    1.003790
     7  H    0.000000
 Sum of Mulliken charges=   0.00000
 Electronic spatial extent (au):  <R**2>=   245.4316
 Charge=     0.0000 electrons
 Dipole moment (field-independent basis, Debye):
    X=     2.4933    Y=     4.7192    Z=     0.0000  Tot=     5.3374
 Quadrupole moment (field-independent basis, Debye-Ang):
   XX=   -29.3296   YY=   -26.8914   ZZ=   -28.5791
   XY=     1.8247   XZ=     0.0000   YZ=     0.0000
 Traceless Quadrupole moment (field-independent basis, Debye-Ang):
   XX=    -1.0629   YY=     1.3753   ZZ=    -0.3124
   XY=     1.8247   XZ=     0.0000   YZ=     0.0000
 Octapole moment (field-independent basis, Debye-Ang**2):
  XXX=    11.9587  YYY=    22.3009  ZZZ=     0.0000  XYY=    -0.6116
  XXY=     4.6549  XXZ=     0.0000  XZZ=    -0.4844  YZZ=     0.7898
  YYZ=     0.0000  XYZ=     0.0000
 Hexadecapole moment (field-independent basis, Debye-Ang**3):
 XXXX=  -145.2604 YYYY=  -123.3106 ZZZZ=   -27.7538 XXXY=     6.9063
 XXXZ=     0.0000 YYYX=    -0.0654 YYYZ=     0.0000 ZZZX=     0.0000
 ZZZY=     0.0000 XXYY=   -54.7635 XXZZ=   -31.2117 YYZZ=   -29.6050
 XXYZ=     0.0000 YYXZ=     0.0000 ZZXY=     0.0620
 N-N= 1.698288229759D+02 E-N=-9.431052139113D+02  KE= 2.576970858455D+02
 Symmetry A'   KE= 2.481144198953D+02
 Symmetry A"   KE= 9.582665950246D+00
 ***** Axes restored to original set *****
 -------------------------------------------------------------------
 Center     Atomic                   Forces (Hartrees/Bohr)
 Number     Number              X              Y              Z
 -------------------------------------------------------------------
    1          7          -0.008612837   -0.036800648    0.000000000
    2          7          -0.029705093    0.025876878    0.000000000
    3          7           0.005649542    0.009852000    0.000000000
    4          1          -0.000609142    0.011768942    0.000000000
    5          7           0.012059180   -0.024082365    0.000000000
    6          6           0.015794297    0.011564197    0.000000000
    7          1           0.005424053    0.001820995    0.000000000
 -------------------------------------------------------------------
 Cartesian Forces:  Max     0.036800648 RMS     0.014457892

 GradGradGradGradGradGradGradGradGradGradGradGradGradGradGradGradGradGrad
 Berny optimization.
 Internal  Forces:  Max     0.038002241 RMS     0.011521674
 Search for a local minimum.
 Step number   1 out of a maximum of  36
 All quantities printed in internal units (Hartrees-Bohrs-Radians)
 Second derivative matrix not updated -- first step.
     Eigenvalues ---    0.02505   0.02639   0.02674   0.02834   0.16000
     Eigenvalues ---    0.16000   0.22605   0.24688   0.37515   0.48737
     Eigenvalues ---    0.50885   0.56605   0.58506   0.66912   0.78894
     Eigenvalues --- 1000.000001000.000001000.000001000.000001000.00000
     Eigenvalues --- 1000.000001000.000001000.000001000.000001000.00000
     Eigenvalues --- 1000.00000
 RFO step:  Lambda=-5.02778937D-03.
 Linear search not attempted -- first point.
 Iteration  1 RMS(Cart)=  0.01802158 RMS(Int)=  0.00002020
 Iteration  2 RMS(Cart)=  0.00000963 RMS(Int)=  0.00001713
 Iteration  3 RMS(Cart)=  0.00000000 RMS(Int)=  0.00001713
 Variable       Old X    -DE/DX   Delta X   Delta X   Delta X     New X
                                 (Linear)    (Quad)   (Total)
    R1        2.36623   0.03800   0.00000   0.04733   0.04736   2.41359
    R2        2.53474   0.01948   0.00000   0.03527   0.03528   2.57002
    R3        2.50608   0.02144   0.00000   0.03525   0.03525   2.54133
    R4        1.87862   0.01178   0.00000   0.02393   0.02393   1.90255
    R5        2.51368   0.01765   0.00000   0.02739   0.02737   2.54104
    R6        2.43647   0.02558   0.00000   0.03502   0.03501   2.47148
    R7        2.01777   0.00572   0.00000   0.01505   0.01505   2.03282
    A1        1.94380  -0.00337   0.00000  -0.00467  -0.00462   1.93918
    A2        1.86179  -0.00195   0.00000  -0.00222  -0.00220   1.85959
    A3        2.10759  -0.00085   0.00000  -0.00082  -0.00081   2.10678
    A4        1.88535   0.00191   0.00000   0.00291   0.00288   1.88823
    A5        2.29024  -0.00106   0.00000  -0.00209  -0.00207   2.28817
    A6        1.84604   0.00089   0.00000   0.00162   0.00161   1.84765
    A7        1.88780   0.00252   0.00000   0.00236   0.00233   1.89012
    A8        2.18241  -0.00140   0.00000  -0.00202  -0.00200   2.18041
    A9        2.21298  -0.00112   0.00000  -0.00035  -0.00033   2.21265
    D1        0.00000   0.00000   0.00000   0.00000   0.00000   0.00000
    D2        0.00000   0.00000   0.00000   0.00000   0.00000   0.00000
    D3        3.14159   0.00000   0.00000   0.00000   0.00000   3.14159
    D4        0.00000   0.00000   0.00000   0.00000   0.00000   0.00000
    D5        0.00000   0.00000   0.00000   0.00000   0.00000   0.00000
    D6        3.14159   0.00000   0.00000   0.00000   0.00000   3.14159
    D7        3.14159   0.00000   0.00000   0.00000   0.00000   3.14159
    D8        0.00000   0.00000   0.00000   0.00000   0.00000   0.00000
    D9        0.00000   0.00000   0.00000   0.00000   0.00000   0.00000
   D10        3.14159   0.00000   0.00000   0.00000   0.00000   3.14159
         Item               Value     Threshold  Converged?
 Maximum Force            0.038002     0.000450     NO 
 RMS     Force            0.011522     0.000300     NO 
 Maximum Displacement     0.042273     0.001800     NO 
 RMS     Displacement     0.018020     0.001200     NO 
 Predicted change in Energy=-2.532502D-03
 GradGradGradGradGradGradGradGradGradGradGradGradGradGradGradGradGradGrad

                          Input orientation:                          
 ---------------------------------------------------------------------
 Center     Atomic     Atomic              Coordinates (Angstroms)
 Number     Number      Type              X           Y           Z
 ---------------------------------------------------------------------
    1          7             0       -0.729035   -0.923603    0.000000
    2          7             0       -1.114675    0.294001    0.000000
    3          7             0       -0.001363    1.048363    0.000000
    4          1             0       -0.061270    2.053364    0.000000
    5          7             0        0.628377   -1.007403    0.000000
    6          6             0        1.062690    0.226229    0.000000
    7          1             0        2.089299    0.547565    0.000000
 ---------------------------------------------------------------------
                    Distance matrix (angstroms):
                    1          2          3          4          5
     1  N    0.000000
     2  N    1.277215   0.000000
     3  N    2.101941   1.344814   0.000000
     4  H    3.050941   2.050615   1.006785   0.000000
     5  N    1.359996   2.175289   2.150057   3.137500   0.000000
     6  C    2.128942   2.178420   1.344661   2.145159   1.307852
     7  H    3.179204   3.213991   2.149806   2.625333   2.133593
                    6          7
     6  C    0.000000
     7  H    1.075724   0.000000
 Stoichiometry    CH2N4
 Framework group  CS[SG(CH2N4)]
 Deg. of freedom    11
 Full point group                 CS      NOp   2
 Largest Abelian subgroup         CS      NOp   2
 Largest concise Abelian subgroup C1      NOp   1
                         Standard orientation:                         
 ---------------------------------------------------------------------
 Center     Atomic     Atomic              Coordinates (Angstroms)
 Number     Number      Type              X           Y           Z
 ---------------------------------------------------------------------
    1          7             0       -0.724361   -0.920315    0.000000
    2          7             0       -1.112044    0.296640    0.000000
    3          7             0        0.000000    1.052870    0.000000
    4          1             0       -0.061593    2.057769    0.000000
    5          7             0        0.633190   -1.001836    0.000000
    6          6             0        1.065432    0.232523    0.000000
    7          1             0        2.091500    0.555582    0.000000
 ---------------------------------------------------------------------
 Rotational constants (GHZ):     10.5931693     10.4530135      5.2613124
 Standard basis: 6-311+G(3df,2p) (5D, 7F)
 There are   144 symmetry adapted basis functions of A'  symmetry.
 There are    69 symmetry adapted basis functions of A"  symmetry.
 Integral buffers will be    262144 words long.
 Raffenetti 2 integral format.
 Two-electron integral symmetry is turned on.
   213 basis functions,   312 primitive gaussians,   243 cartesian basis functions
    18 alpha electrons       18 beta electrons
       nuclear repulsion energy       167.4204693735 Hartrees.
 NAtoms=    7 NActive=    7 NUniq=    7 SFac= 1.00D+00 NAtFMM=   60 Big=F
 One-electron integrals computed using PRISM.
 NBasis=   213 RedAO= T  NBF=   144    69
 NBsUse=   213 1.00D-06 NBFU=   144    69
 Initial guess read from the read-write file:
 Initial guess orbital symmetries:
       Occupied  (A') (A') (A') (A') (A') (A') (A') (A') (A') (A')
                 (A') (A") (A') (A') (A") (A") (A') (A')
       Virtual   (A") (A') (A") (A') (A') (A") (A') (A') (A') (A")
                 (A") (A') (A') (A') (A') (A') (A") (A') (A') (A")
                 (A') (A') (A') (A') (A') (A') (A") (A') (A') (A')
                 (A') (A") (A") (A') (A') (A') (A") (A') (A') (A")
                 (A') (A") (A') (A') (A') (A') (A") (A') (A") (A')
                 (A") (A") (A') (A') (A') (A") (A') (A") (A') (A')
                 (A') (A") (A") (A') (A") (A') (A") (A") (A') (A')
                 (A') (A') (A') (A') (A') (A') (A') (A') (A') (A")
                 (A") (A') (A') (A") (A') (A') (A") (A') (A') (A")
                 (A') (A') (A") (A') (A') (A') (A") (A") (A') (A")
                 (A') (A") (A') (A') (A") (A") (A') (A') (A') (A')
                 (A") (A') (A') (A") (A') (A") (A") (A') (A") (A')
                 (A") (A') (A") (A') (A') (A') (A") (A') (A") (A")
                 (A') (A") (A') (A') (A') (A") (A') (A') (A') (A")
                 (A') (A') (A') (A') (A') (A") (A') (A") (A') (A")
                 (A") (A") (A') (A') (A') (A") (A") (A') (A') (A')
                 (A') (A') (A') (A') (A') (A") (A") (A') (A') (A')
                 (A") (A") (A") (A') (A') (A") (A') (A") (A') (A")
                 (A") (A') (A') (A') (A') (A") (A') (A') (A') (A')
                 (A') (A') (A') (A') (A')
 Harris functional with IExCor=  402 diagonalized for initial guess.
 ExpMin= 4.38D-02 ExpMax= 6.29D+03 ExpMxC= 9.49D+02 IAcc=2 IRadAn=         4 AccDes= 0.00D+00
 HarFok:  IExCor= 402 AccDes= 0.00D+00 IRadAn=         4 IDoV=1
 ScaDFX=  1.000000  1.000000  1.000000  1.000000
 Requested convergence on RMS density matrix=1.00D-08 within 128 cycles.
 Requested convergence on MAX density matrix=1.00D-06.
 Requested convergence on             energy=1.00D-06.
 No special actions if energy rises.
 SCF Done:  E(RB+HF-LYP) =  -258.344528112     A.U. after   11 cycles
             Convg  =    0.2481D-08             -V/T =  2.0037
             S**2   =   0.0000
 ***** Axes restored to original set *****
 -------------------------------------------------------------------
 Center     Atomic                   Forces (Hartrees/Bohr)
 Number     Number              X              Y              Z
 -------------------------------------------------------------------
    1          7           0.001498270   -0.004876490    0.000000000
    2          7          -0.006355154    0.006457190    0.000000000
    3          7           0.003290503   -0.001266252    0.000000000
    4          1          -0.000187830    0.000058421    0.000000000
    5          7           0.002730709   -0.002045106    0.000000000
    6          6          -0.000777934    0.001803863    0.000000000
    7          1          -0.000198564   -0.000131626    0.000000000
 -------------------------------------------------------------------
 Cartesian Forces:  Max     0.006457190 RMS     0.002546079

 GradGradGradGradGradGradGradGradGradGradGradGradGradGradGradGradGradGrad
 Berny optimization.
 Internal  Forces:  Max     0.006428930 RMS     0.001616465
 Search for a local minimum.
 Step number   2 out of a maximum of  36
 All quantities printed in internal units (Hartrees-Bohrs-Radians)
 Update second derivatives using D2CorX and points  1  2
 Trust test= 1.07D+00 RLast= 8.69D-02 DXMaxT set to 3.00D-01
     Eigenvalues ---    0.02505   0.02638   0.02675   0.02834   0.16000
     Eigenvalues ---    0.16002   0.22573   0.24547   0.37647   0.48868
     Eigenvalues ---    0.50448   0.55488   0.59013   0.67929   0.72835
     Eigenvalues --- 1000.000001000.000001000.000001000.000001000.00000
     Eigenvalues --- 1000.000001000.000001000.000001000.000001000.00000
     Eigenvalues --- 1000.00000
 RFO step:  Lambda=-1.02186546D-04.
 Quartic linear search produced a step of  0.11295.
 Iteration  1 RMS(Cart)=  0.00344223 RMS(Int)=  0.00001420
 Iteration  2 RMS(Cart)=  0.00001410 RMS(Int)=  0.00000552
 Iteration  3 RMS(Cart)=  0.00000000 RMS(Int)=  0.00000552
 Variable       Old X    -DE/DX   Delta X   Delta X   Delta X     New X
                                 (Linear)    (Quad)   (Total)
    R1        2.41359   0.00643   0.00535   0.00523   0.01059   2.42417
    R2        2.57002   0.00196   0.00399   0.00141   0.00539   2.57541
    R3        2.54133   0.00199   0.00398   0.00071   0.00470   2.54603
    R4        1.90255   0.00007   0.00270  -0.00185   0.00086   1.90340
    R5        2.54104  -0.00038   0.00309  -0.00396  -0.00087   2.54017
    R6        2.47148   0.00092   0.00395  -0.00211   0.00184   2.47332
    R7        2.03282  -0.00023   0.00170  -0.00189  -0.00019   2.03263
    A1        1.93918   0.00078  -0.00052   0.00751   0.00699   1.94617
    A2        1.85959  -0.00297  -0.00025  -0.01057  -0.01080   1.84879
    A3        2.10678  -0.00108  -0.00009  -0.00446  -0.00455   2.10223
    A4        1.88823   0.00180   0.00033   0.00630   0.00662   1.89486
    A5        2.28817  -0.00072  -0.00023  -0.00184  -0.00207   2.28610
    A6        1.84765  -0.00092   0.00018  -0.00546  -0.00529   1.84236
    A7        1.89012   0.00131   0.00026   0.00222   0.00247   1.89259
    A8        2.18041  -0.00060  -0.00023  -0.00064  -0.00086   2.17954
    A9        2.21265  -0.00072  -0.00004  -0.00158  -0.00161   2.21105
    D1        0.00000   0.00000   0.00000   0.00000   0.00000   0.00000
    D2        0.00000   0.00000   0.00000   0.00000   0.00000   0.00000
    D3        3.14159   0.00000   0.00000   0.00000   0.00000   3.14159
    D4        0.00000   0.00000   0.00000   0.00000   0.00000   0.00000
    D5        0.00000   0.00000   0.00000   0.00000   0.00000   0.00000
    D6        3.14159   0.00000   0.00000   0.00000   0.00000   3.14159
    D7        3.14159   0.00000   0.00000   0.00000   0.00000   3.14159
    D8        0.00000   0.00000   0.00000   0.00000   0.00000   0.00000
    D9        0.00000   0.00000   0.00000   0.00000   0.00000   0.00000
   D10        3.14159   0.00000   0.00000   0.00000   0.00000   3.14159
         Item               Value     Threshold  Converged?
 Maximum Force            0.006429     0.000450     NO 
 RMS     Force            0.001616     0.000300     NO 
 Maximum Displacement     0.012203     0.001800     NO 
 RMS     Displacement     0.003445     0.001200     NO 
 Predicted change in Energy=-7.555101D-05
 GradGradGradGradGradGradGradGradGradGradGradGradGradGradGradGradGradGrad

                          Input orientation:                          
 ---------------------------------------------------------------------
 Center     Atomic     Atomic              Coordinates (Angstroms)
 Number     Number      Type              X           Y           Z
 ---------------------------------------------------------------------
    1          7             0       -0.727837   -0.923233    0.000000
    2          7             0       -1.121133    0.297808    0.000000
    3          7             0       -0.001308    1.046947    0.000000
    4          1             0       -0.059863    2.052482    0.000000
    5          7             0        0.632241   -1.010083    0.000000
    6          6             0        1.062958    0.225841    0.000000
    7          1             0        2.088964    0.548754    0.000000
 ---------------------------------------------------------------------
                    Distance matrix (angstroms):
                    1          2          3          4          5
     1  N    0.000000
     2  N    1.282817   0.000000
     3  N    2.099870   1.347300   0.000000
     4  H    3.049765   2.050652   1.007238   0.000000
     5  N    1.362849   2.187441   2.152384   3.139795   0.000000
     6  C    2.127750   2.185276   1.344202   2.144142   1.308826
     7  H    3.178225   3.219890   2.148821   2.622719   2.133545
                    6          7
     6  C    0.000000
     7  H    1.075621   0.000000
 Stoichiometry    CH2N4
 Framework group  CS[SG(CH2N4)]
 Deg. of freedom    11
 Full point group                 CS      NOp   2
 Largest Abelian subgroup         CS      NOp   2
 Largest concise Abelian subgroup C1      NOp   1
                         Standard orientation:                         
 ---------------------------------------------------------------------
 Center     Atomic     Atomic              Coordinates (Angstroms)
 Number     Number      Type              X           Y           Z
 ---------------------------------------------------------------------
    1          7             0       -0.722764   -0.920069    0.000000
    2          7             0       -1.118391    0.300217    0.000000
    3          7             0        0.000000    1.051495    0.000000
    4          1             0       -0.060476    2.056916    0.000000
    5          7             0        0.637478   -1.004321    0.000000
    6          6             0        1.065833    0.232424    0.000000
    7          1             0        2.091220    0.557296    0.000000
 ---------------------------------------------------------------------
 Rotational constants (GHZ):     10.6047208     10.3770950      5.2448366
 Standard basis: 6-311+G(3df,2p) (5D, 7F)
 There are   144 symmetry adapted basis functions of A'  symmetry.
 There are    69 symmetry adapted basis functions of A"  symmetry.
 Integral buffers will be    262144 words long.
 Raffenetti 2 integral format.
 Two-electron integral symmetry is turned on.
   213 basis functions,   312 primitive gaussians,   243 cartesian basis functions
    18 alpha electrons       18 beta electrons
       nuclear repulsion energy       167.1542244447 Hartrees.
 NAtoms=    7 NActive=    7 NUniq=    7 SFac= 1.00D+00 NAtFMM=   60 Big=F
 One-electron integrals computed using PRISM.
 NBasis=   213 RedAO= T  NBF=   144    69
 NBsUse=   213 1.00D-06 NBFU=   144    69
 Initial guess read from the read-write file:
 Initial guess orbital symmetries:
       Occupied  (A') (A') (A') (A') (A') (A') (A') (A') (A') (A')
                 (A') (A') (A") (A') (A") (A") (A') (A')
       Virtual   (A") (A') (A") (A') (A') (A") (A') (A') (A') (A")
                 (A") (A') (A') (A') (A') (A') (A") (A') (A') (A")
                 (A') (A') (A') (A') (A') (A') (A") (A') (A') (A')
                 (A') (A") (A") (A') (A') (A') (A') (A") (A') (A")
                 (A') (A") (A') (A') (A') (A') (A") (A') (A") (A')
                 (A") (A") (A') (A') (A') (A') (A") (A") (A') (A')
                 (A') (A") (A') (A") (A") (A') (A") (A") (A') (A')
                 (A') (A') (A') (A') (A') (A') (A') (A') (A") (A')
                 (A") (A') (A') (A") (A') (A') (A') (A") (A') (A")
                 (A') (A') (A") (A') (A') (A') (A") (A") (A') (A")
                 (A') (A") (A') (A') (A") (A") (A') (A') (A') (A')
                 (A") (A') (A') (A") (A') (A") (A") (A') (A") (A')
                 (A") (A') (A") (A') (A') (A') (A") (A') (A") (A")
                 (A') (A") (A') (A') (A') (A") (A') (A') (A') (A")
                 (A') (A') (A') (A') (A') (A") (A') (A") (A') (A")
                 (A") (A") (A') (A') (A") (A') (A") (A') (A') (A')
                 (A') (A') (A') (A') (A') (A") (A") (A') (A') (A')
                 (A") (A") (A") (A') (A') (A") (A') (A") (A") (A')
                 (A") (A') (A') (A') (A") (A') (A') (A') (A') (A')
                 (A') (A') (A') (A') (A')
 Requested convergence on RMS density matrix=1.00D-08 within 128 cycles.
 Requested convergence on MAX density matrix=1.00D-06.
 Requested convergence on             energy=1.00D-06.
 No special actions if energy rises.
 SCF Done:  E(RB+HF-LYP) =  -258.344583509     A.U. after   10 cycles
             Convg  =    0.6209D-08             -V/T =  2.0038
             S**2   =   0.0000
 ***** Axes restored to original set *****
 -------------------------------------------------------------------
 Center     Atomic                   Forces (Hartrees/Bohr)
 Number     Number              X              Y              Z
 -------------------------------------------------------------------
    1          7          -0.000696277   -0.003420021    0.000000000
    2          7           0.001818668    0.000272510    0.000000000
    3          7           0.001562407    0.000762274    0.000000000
    4          1           0.000229631   -0.000174496    0.000000000
    5          7          -0.001598407    0.001126548    0.000000000
    6          6          -0.001199457    0.001356162    0.000000000
    7          1          -0.000116565    0.000077023    0.000000000
 -------------------------------------------------------------------
 Cartesian Forces:  Max     0.003420021 RMS     0.001108193

 GradGradGradGradGradGradGradGradGradGradGradGradGradGradGradGradGradGrad
 Berny optimization.
 Internal  Forces:  Max     0.002729882 RMS     0.000942786
 Search for a local minimum.
 Step number   3 out of a maximum of  36
 All quantities printed in internal units (Hartrees-Bohrs-Radians)
 Update second derivatives using D2CorX and points  1  2  3
 Trust test= 7.33D-01 RLast= 2.10D-02 DXMaxT set to 3.00D-01
     Eigenvalues ---    0.02505   0.02638   0.02675   0.02834   0.15997
     Eigenvalues ---    0.16038   0.22713   0.35965   0.37564   0.40229
     Eigenvalues ---    0.49171   0.52616   0.64940   0.65496   0.71849
     Eigenvalues --- 1000.000001000.000001000.000001000.000001000.00000
     Eigenvalues --- 1000.000001000.000001000.000001000.000001000.00000
     Eigenvalues --- 1000.00000
 RFO step:  Lambda=-3.87139993D-05.
 Quartic linear search produced a step of -0.22281.
 Iteration  1 RMS(Cart)=  0.00217639 RMS(Int)=  0.00000422
 Iteration  2 RMS(Cart)=  0.00000300 RMS(Int)=  0.00000217
 Iteration  3 RMS(Cart)=  0.00000000 RMS(Int)=  0.00000217
 Variable       Old X    -DE/DX   Delta X   Delta X   Delta X     New X
                                 (Linear)    (Quad)   (Total)
    R1        2.42417   0.00117  -0.00236   0.00606   0.00370   2.42787
    R2        2.57541  -0.00089  -0.00120   0.00126   0.00006   2.57547
    R3        2.54603   0.00051  -0.00105   0.00282   0.00177   2.54780
    R4        1.90340  -0.00019  -0.00019   0.00006  -0.00013   1.90328
    R5        2.54017  -0.00221   0.00019  -0.00349  -0.00330   2.53687
    R6        2.47332   0.00083  -0.00041   0.00168   0.00127   2.47459
    R7        2.03263  -0.00009   0.00004  -0.00029  -0.00025   2.03238
    A1        1.94617  -0.00273  -0.00156  -0.00485  -0.00641   1.93976
    A2        1.84879   0.00193   0.00241   0.00189   0.00429   1.85308
    A3        2.10223   0.00067   0.00101   0.00077   0.00178   2.10401
    A4        1.89486  -0.00094  -0.00148  -0.00065  -0.00213   1.89273
    A5        2.28610   0.00027   0.00046  -0.00012   0.00035   2.28644
    A6        1.84236   0.00157   0.00118   0.00244   0.00362   1.84599
    A7        1.89259   0.00018  -0.00055   0.00118   0.00063   1.89322
    A8        2.17954  -0.00021   0.00019  -0.00101  -0.00081   2.17873
    A9        2.21105   0.00003   0.00036  -0.00017   0.00019   2.21124
    D1        0.00000   0.00000   0.00000   0.00000   0.00000   0.00000
    D2        0.00000   0.00000   0.00000   0.00000   0.00000   0.00000
    D3        3.14159   0.00000   0.00000   0.00000   0.00000   3.14159
    D4        0.00000   0.00000   0.00000   0.00000   0.00000   0.00000
    D5        0.00000   0.00000   0.00000   0.00000   0.00000   0.00000
    D6        3.14159   0.00000   0.00000   0.00000   0.00000   3.14159
    D7        3.14159   0.00000   0.00000   0.00000   0.00000   3.14159
    D8        0.00000   0.00000   0.00000   0.00000   0.00000   0.00000
    D9        0.00000   0.00000   0.00000   0.00000   0.00000   0.00000
   D10        3.14159   0.00000   0.00000   0.00000   0.00000   3.14159
         Item               Value     Threshold  Converged?
 Maximum Force            0.002730     0.000450     NO 
 RMS     Force            0.000943     0.000300     NO 
 Maximum Displacement     0.007490     0.001800     NO 
 RMS     Displacement     0.002177     0.001200     NO 
 Predicted change in Energy=-2.424640D-05
 GradGradGradGradGradGradGradGradGradGradGradGradGradGradGradGradGradGrad

                          Input orientation:                          
 ---------------------------------------------------------------------
 Center     Atomic     Atomic              Coordinates (Angstroms)
 Number     Number      Type              X           Y           Z
 ---------------------------------------------------------------------
    1          7             0       -0.729465   -0.927196    0.000000
    2          7             0       -1.119658    0.296894    0.000000
    3          7             0        0.000000    1.047968    0.000000
    4          1             0       -0.058028    2.053466    0.000000
    5          7             0        0.630933   -1.009448    0.000000
    6          6             0        1.062171    0.227006    0.000000
    7          1             0        2.088069    0.549826    0.000000
 ---------------------------------------------------------------------
                    Distance matrix (angstroms):
                    1          2          3          4          5
     1  N    0.000000
     2  N    1.284775   0.000000
     3  N    2.105562   1.348238   0.000000
     4  H    3.055352   2.052463   1.007171   0.000000
     5  N    1.362883   2.184284   2.151984   3.139444   0.000000
     6  C    2.131231   2.182948   1.342455   2.142615   1.309498
     7  H    3.181210   3.217684   2.146667   2.620433   2.134146
                    6          7
     6  C    0.000000
     7  H    1.075490   0.000000
 Stoichiometry    CH2N4
 Framework group  CS[SG(CH2N4)]
 Deg. of freedom    11
 Full point group                 CS      NOp   2
 Largest Abelian subgroup         CS      NOp   2
 Largest concise Abelian subgroup C1      NOp   1
                         Standard orientation:                         
 ---------------------------------------------------------------------
 Center     Atomic     Atomic              Coordinates (Angstroms)
 Number     Number      Type              X           Y           Z
 ---------------------------------------------------------------------
    1          7             0       -0.722986   -0.924650    0.000000
    2          7             0       -1.117190    0.298154    0.000000
    3          7             0        0.000000    1.052894    0.000000
    4          1             0       -0.061324    2.058197    0.000000
    5          7             0        0.637674   -1.002442    0.000000
    6          6             0        1.064857    0.235419    0.000000
    7          1             0        2.089691    0.561600    0.000000
 ---------------------------------------------------------------------
 Rotational constants (GHZ):     10.5618324     10.4066374      5.2418303
 Standard basis: 6-311+G(3df,2p) (5D, 7F)
 There are   144 symmetry adapted basis functions of A'  symmetry.
 There are    69 symmetry adapted basis functions of A"  symmetry.
 Integral buffers will be    262144 words long.
 Raffenetti 2 integral format.
 Two-electron integral symmetry is turned on.
   213 basis functions,   312 primitive gaussians,   243 cartesian basis functions
    18 alpha electrons       18 beta electrons
       nuclear repulsion energy       167.1012312295 Hartrees.
 NAtoms=    7 NActive=    7 NUniq=    7 SFac= 1.00D+00 NAtFMM=   60 Big=F
 One-electron integrals computed using PRISM.
 NBasis=   213 RedAO= T  NBF=   144    69
 NBsUse=   213 1.00D-06 NBFU=   144    69
 Initial guess read from the read-write file:
 Initial guess orbital symmetries:
       Occupied  (A') (A') (A') (A') (A') (A') (A') (A') (A') (A')
                 (A') (A') (A") (A') (A") (A") (A') (A')
       Virtual   (A") (A') (A") (A') (A') (A") (A') (A') (A') (A")
                 (A") (A') (A') (A') (A') (A') (A") (A') (A') (A")
                 (A') (A') (A') (A') (A') (A') (A") (A') (A') (A')
                 (A') (A") (A") (A') (A') (A') (A') (A") (A') (A")
                 (A') (A") (A') (A') (A') (A') (A") (A') (A") (A')
                 (A") (A") (A') (A') (A') (A') (A") (A') (A") (A')
                 (A') (A") (A') (A") (A") (A') (A") (A") (A') (A')
                 (A') (A') (A') (A') (A') (A') (A') (A') (A") (A')
                 (A") (A') (A') (A") (A') (A') (A') (A') (A") (A")
                 (A') (A') (A") (A') (A') (A') (A") (A") (A') (A")
                 (A') (A") (A') (A') (A") (A") (A') (A') (A') (A')
                 (A") (A') (A') (A") (A') (A") (A") (A') (A") (A')
                 (A") (A') (A") (A') (A') (A') (A") (A') (A") (A")
                 (A') (A") (A') (A') (A') (A") (A') (A') (A') (A")
                 (A') (A') (A') (A') (A') (A") (A') (A") (A') (A")
                 (A") (A") (A') (A') (A") (A') (A") (A') (A') (A')
                 (A') (A') (A') (A') (A') (A") (A") (A') (A') (A')
                 (A") (A") (A") (A') (A') (A") (A') (A") (A") (A')
                 (A") (A') (A') (A') (A") (A') (A') (A') (A') (A')
                 (A') (A') (A') (A') (A')
 Requested convergence on RMS density matrix=1.00D-08 within 128 cycles.
 Requested convergence on MAX density matrix=1.00D-06.
 Requested convergence on             energy=1.00D-06.
 No special actions if energy rises.
 SCF Done:  E(RB+HF-LYP) =  -258.344600409     A.U. after    9 cycles
             Convg  =    0.5350D-08             -V/T =  2.0038
             S**2   =   0.0000
 ***** Axes restored to original set *****
 -------------------------------------------------------------------
 Center     Atomic                   Forces (Hartrees/Bohr)
 Number     Number              X              Y              Z
 -------------------------------------------------------------------
    1          7           0.001431056    0.001218780    0.000000000
    2          7           0.000052589    0.000042388    0.000000000
    3          7          -0.000253839   -0.000951014    0.000000000
    4          1          -0.000058168   -0.000186202    0.000000000
    5          7          -0.000654385    0.000077675    0.000000000
    6          6          -0.000557151   -0.000092115    0.000000000
    7          1           0.000039898   -0.000109512    0.000000000
 -------------------------------------------------------------------
 Cartesian Forces:  Max     0.001431056 RMS     0.000502923

 GradGradGradGradGradGradGradGradGradGradGradGradGradGradGradGradGradGrad
 Berny optimization.
 Internal  Forces:  Max     0.001018370 RMS     0.000394378
 Search for a local minimum.
 Step number   4 out of a maximum of  36
 All quantities printed in internal units (Hartrees-Bohrs-Radians)
 Update second derivatives using D2CorX and points  1  2  3  4
 Trust test= 6.97D-01 RLast= 1.05D-02 DXMaxT set to 3.00D-01
     Eigenvalues ---    0.02505   0.02638   0.02676   0.02834   0.16004
     Eigenvalues ---    0.16063   0.22713   0.37151   0.37990   0.48719
     Eigenvalues ---    0.52022   0.52579   0.61244   0.65847   0.73422
     Eigenvalues --- 1000.000001000.000001000.000001000.000001000.00000
     Eigenvalues --- 1000.000001000.000001000.000001000.000001000.00000
     Eigenvalues --- 1000.00000
 RFO step:  Lambda=-3.20649596D-06.
 Quartic linear search produced a step of -0.23179.
 Iteration  1 RMS(Cart)=  0.00065767 RMS(Int)=  0.00000039
 Iteration  2 RMS(Cart)=  0.00000023 RMS(Int)=  0.00000028
 Variable       Old X    -DE/DX   Delta X   Delta X   Delta X     New X
                                 (Linear)    (Quad)   (Total)
    R1        2.42787  -0.00063  -0.00086  -0.00023  -0.00109   2.42678
    R2        2.57547  -0.00102  -0.00001  -0.00164  -0.00166   2.57382
    R3        2.54780  -0.00082  -0.00041  -0.00079  -0.00120   2.54660
    R4        1.90328  -0.00018   0.00003  -0.00038  -0.00035   1.90292
    R5        2.53687  -0.00029   0.00077  -0.00122  -0.00046   2.53642
    R6        2.47459  -0.00061  -0.00029  -0.00041  -0.00070   2.47389
    R7        2.03238   0.00001   0.00006  -0.00006   0.00000   2.03238
    A1        1.93976   0.00084   0.00149  -0.00001   0.00148   1.94124
    A2        1.85308  -0.00064  -0.00099  -0.00007  -0.00106   1.85202
    A3        2.10401  -0.00020  -0.00041  -0.00002  -0.00044   2.10358
    A4        1.89273   0.00026   0.00049  -0.00006   0.00044   1.89316
    A5        2.28644  -0.00006  -0.00008   0.00008   0.00000   2.28645
    A6        1.84599  -0.00043  -0.00084   0.00006  -0.00078   1.84521
    A7        1.89322  -0.00002  -0.00014   0.00007  -0.00007   1.89315
    A8        2.17873   0.00012   0.00019   0.00029   0.00048   2.17921
    A9        2.21124  -0.00010  -0.00004  -0.00036  -0.00041   2.21083
    D1        0.00000   0.00000   0.00000   0.00000   0.00000   0.00000
    D2        0.00000   0.00000   0.00000   0.00000   0.00000   0.00000
    D3        3.14159   0.00000   0.00000   0.00000   0.00000   3.14159
    D4        0.00000   0.00000   0.00000   0.00000   0.00000   0.00000
    D5        0.00000   0.00000   0.00000   0.00000   0.00000   0.00000
    D6        3.14159   0.00000   0.00000   0.00000   0.00000   3.14159
    D7        3.14159   0.00000   0.00000   0.00000   0.00000   3.14159
    D8        0.00000   0.00000   0.00000   0.00000   0.00000   0.00000
    D9        0.00000   0.00000   0.00000   0.00000   0.00000   0.00000
   D10        3.14159   0.00000   0.00000   0.00000   0.00000   3.14159
         Item               Value     Threshold  Converged?
 Maximum Force            0.001018     0.000450     NO 
 RMS     Force            0.000394     0.000300     NO 
 Maximum Displacement     0.002073     0.001800     NO 
 RMS     Displacement     0.000658     0.001200     YES
 Predicted change in Energy=-3.252039D-06
 GradGradGradGradGradGradGradGradGradGradGradGradGradGradGradGradGradGrad

                          Input orientation:                          
 ---------------------------------------------------------------------
 Center     Atomic     Atomic              Coordinates (Angstroms)
 Number     Number      Type              X           Y           Z
 ---------------------------------------------------------------------
    1          7             0       -0.728560   -0.926099    0.000000
    2          7             0       -1.119542    0.297134    0.000000
    3          7             0       -0.000206    1.047550    0.000000
    4          1             0       -0.058387    2.052851    0.000000
    5          7             0        0.630906   -1.009235    0.000000
    6          6             0        1.061908    0.226909    0.000000
    7          1             0        2.087905    0.549405    0.000000
 ---------------------------------------------------------------------
                    Distance matrix (angstroms):
                    1          2          3          4          5
     1  N    0.000000
     2  N    1.284199   0.000000
     3  N    2.103756   1.347604   0.000000
     4  H    3.053404   2.051485   1.006984   0.000000
     5  N    1.362005   2.184186   2.151433   3.138709   0.000000
     6  C    2.129601   2.182580   1.342214   2.142225   1.309127
     7  H    3.179557   3.217352   2.146708   2.620481   2.133589
                    6          7
     6  C    0.000000
     7  H    1.075488   0.000000
 Stoichiometry    CH2N4
 Framework group  CS[SG(CH2N4)]
 Deg. of freedom    11
 Full point group                 CS      NOp   2
 Largest Abelian subgroup         CS      NOp   2
 Largest concise Abelian subgroup C1      NOp   1
                         Standard orientation:                         
 ---------------------------------------------------------------------
 Center     Atomic     Atomic              Coordinates (Angstroms)
 Number     Number      Type              X           Y           Z
 ---------------------------------------------------------------------
    1          7             0       -0.722441   -0.923521    0.000000
    2          7             0       -1.117084    0.298537    0.000000
    3          7             0        0.000000    1.052300    0.000000
    4          1             0       -0.061191    2.057423    0.000000
    5          7             0        0.637268   -1.002586    0.000000
    6          6             0        1.064566    0.234843    0.000000
    7          1             0        2.089593    0.560409    0.000000
 ---------------------------------------------------------------------
 Rotational constants (GHZ):     10.5765970     10.4087515      5.2460015
 Standard basis: 6-311+G(3df,2p) (5D, 7F)
 There are   144 symmetry adapted basis functions of A'  symmetry.
 There are    69 symmetry adapted basis functions of A"  symmetry.
 Integral buffers will be    262144 words long.
 Raffenetti 2 integral format.
 Two-electron integral symmetry is turned on.
   213 basis functions,   312 primitive gaussians,   243 cartesian basis functions
    18 alpha electrons       18 beta electrons
       nuclear repulsion energy       167.1672875419 Hartrees.
 NAtoms=    7 NActive=    7 NUniq=    7 SFac= 1.00D+00 NAtFMM=   60 Big=F
 One-electron integrals computed using PRISM.
 NBasis=   213 RedAO= T  NBF=   144    69
 NBsUse=   213 1.00D-06 NBFU=   144    69
 Initial guess read from the read-write file:
 Initial guess orbital symmetries:
       Occupied  (A') (A') (A') (A') (A') (A') (A') (A') (A') (A')
                 (A') (A') (A") (A') (A") (A") (A') (A')
       Virtual   (A") (A') (A") (A') (A') (A") (A') (A') (A') (A")
                 (A") (A') (A') (A') (A') (A') (A") (A') (A') (A")
                 (A') (A') (A') (A') (A') (A') (A") (A') (A') (A')
                 (A') (A") (A") (A') (A') (A') (A') (A") (A') (A")
                 (A') (A") (A') (A') (A') (A') (A") (A') (A") (A')
                 (A") (A") (A') (A') (A') (A') (A") (A') (A") (A')
                 (A') (A") (A') (A") (A") (A') (A") (A") (A') (A')
                 (A') (A') (A') (A') (A') (A') (A') (A') (A") (A')
                 (A") (A') (A') (A") (A') (A') (A') (A") (A') (A")
                 (A') (A') (A") (A') (A') (A') (A") (A") (A') (A")
                 (A') (A") (A') (A') (A") (A") (A') (A') (A') (A')
                 (A") (A') (A') (A") (A') (A") (A") (A') (A") (A')
                 (A") (A') (A") (A') (A') (A') (A") (A') (A") (A")
                 (A') (A") (A') (A') (A') (A") (A') (A') (A') (A")
                 (A') (A') (A') (A') (A') (A") (A') (A") (A') (A")
                 (A") (A") (A') (A') (A") (A') (A") (A') (A') (A')
                 (A') (A') (A') (A') (A') (A") (A") (A') (A') (A')
                 (A") (A") (A") (A') (A') (A") (A') (A") (A") (A')
                 (A") (A') (A') (A') (A") (A') (A') (A') (A') (A')
                 (A') (A') (A') (A') (A')
 Requested convergence on RMS density matrix=1.00D-08 within 128 cycles.
 Requested convergence on MAX density matrix=1.00D-06.
 Requested convergence on             energy=1.00D-06.
 No special actions if energy rises.
 SCF Done:  E(RB+HF-LYP) =  -258.344604178     A.U. after    7 cycles
             Convg  =    0.9966D-08             -V/T =  2.0038
             S**2   =   0.0000
 ***** Axes restored to original set *****
 -------------------------------------------------------------------
 Center     Atomic                   Forces (Hartrees/Bohr)
 Number     Number              X              Y              Z
 -------------------------------------------------------------------
    1          7           0.000501884   -0.000109091    0.000000000
    2          7          -0.000006237    0.000200581    0.000000000
    3          7           0.000013795   -0.000259296    0.000000000
    4          1           0.000003877   -0.000005269    0.000000000
    5          7          -0.000515016   -0.000045290    0.000000000
    6          6          -0.000021107    0.000255623    0.000000000
    7          1           0.000022804   -0.000037258    0.000000000
 -------------------------------------------------------------------
 Cartesian Forces:  Max     0.000515016 RMS     0.000183422

 GradGradGradGradGradGradGradGradGradGradGradGradGradGradGradGradGradGrad
 Berny optimization.
 Internal  Forces:  Max     0.000434195 RMS     0.000101380
 Search for a local minimum.
 Step number   5 out of a maximum of  36
 All quantities printed in internal units (Hartrees-Bohrs-Radians)
 Update second derivatives using D2CorX and points  1  2  3  4  5

 Trust test= 1.16D+00 RLast= 3.30D-03 DXMaxT set to 3.00D-01
     Eigenvalues ---    0.02505   0.02638   0.02675   0.02834   0.15836
     Eigenvalues ---    0.16035   0.22471   0.34908   0.37704   0.43977
     Eigenvalues ---    0.49104   0.52149   0.54958   0.69796   0.76969
     Eigenvalues --- 1000.000001000.000001000.000001000.000001000.00000
     Eigenvalues --- 1000.000001000.000001000.000001000.000001000.00000
     Eigenvalues --- 1000.00000
 RFO step:  Lambda=-5.74345109D-07.
 Quartic linear search produced a step of  0.15653.
 Iteration  1 RMS(Cart)=  0.00020309 RMS(Int)=  0.00000003
 Iteration  2 RMS(Cart)=  0.00000003 RMS(Int)=  0.00000001
 Variable       Old X    -DE/DX   Delta X   Delta X   Delta X     New X
                                 (Linear)    (Quad)   (Total)
    R1        2.42678   0.00010  -0.00017   0.00043   0.00026   2.42705
    R2        2.57382  -0.00043  -0.00026  -0.00081  -0.00106   2.57275
    R3        2.54660  -0.00012  -0.00019  -0.00006  -0.00025   2.54636
    R4        1.90292  -0.00001  -0.00006   0.00000  -0.00006   1.90287
    R5        2.53642  -0.00015  -0.00007  -0.00042  -0.00050   2.53592
    R6        2.47389   0.00009  -0.00011   0.00026   0.00015   2.47404
    R7        2.03238   0.00001   0.00000   0.00002   0.00002   2.03240
    A1        1.94124   0.00004   0.00023  -0.00012   0.00011   1.94135
    A2        1.85202  -0.00007  -0.00017  -0.00018  -0.00034   1.85168
    A3        2.10358  -0.00003  -0.00007  -0.00012  -0.00019   2.10339
    A4        1.89316   0.00004   0.00007   0.00025   0.00032   1.89348
    A5        2.28645  -0.00002   0.00000  -0.00013  -0.00013   2.28632
    A6        1.84521   0.00005  -0.00012   0.00035   0.00023   1.84543
    A7        1.89315  -0.00007  -0.00001  -0.00030  -0.00032   1.89283
    A8        2.17921   0.00007   0.00007   0.00037   0.00044   2.17965
    A9        2.21083   0.00000  -0.00006  -0.00006  -0.00013   2.21070
    D1        0.00000   0.00000   0.00000   0.00000   0.00000   0.00000
    D2        0.00000   0.00000   0.00000   0.00000   0.00000   0.00000
    D3        3.14159   0.00000   0.00000   0.00000   0.00000   3.14159
    D4        0.00000   0.00000   0.00000   0.00000   0.00000   0.00000
    D5        0.00000   0.00000   0.00000   0.00000   0.00000   0.00000
    D6        3.14159   0.00000   0.00000   0.00000   0.00000   3.14159
    D7        3.14159   0.00000   0.00000   0.00000   0.00000   3.14159
    D8        0.00000   0.00000   0.00000   0.00000   0.00000   0.00000
    D9        0.00000   0.00000   0.00000   0.00000   0.00000   0.00000
   D10        3.14159   0.00000   0.00000   0.00000   0.00000   3.14159
         Item               Value     Threshold  Converged?
 Maximum Force            0.000434     0.000450     YES
 RMS     Force            0.000101     0.000300     YES
 Maximum Displacement     0.000543     0.001800     YES
 RMS     Displacement     0.000203     0.001200     YES
 Predicted change in Energy=-3.659571D-07
 Optimization completed.
    -- Stationary point found.
                           ----------------------------
                           !   Optimized Parameters   !
                           ! (Angstroms and Degrees)  !
 --------------------------                            --------------------------
 ! Name  Definition              Value          Derivative Info.                !
 --------------------------------------------------------------------------------
 ! R1    R(1,2)                  1.2842         -DE/DX =    0.0001              !
 ! R2    R(1,5)                  1.362          -DE/DX =   -0.0004              !
 ! R3    R(2,3)                  1.3476         -DE/DX =   -0.0001              !
 ! R4    R(3,4)                  1.007          -DE/DX =    0.0                 !
 ! R5    R(3,6)                  1.3422         -DE/DX =   -0.0002              !
 ! R6    R(5,6)                  1.3091         -DE/DX =    0.0001              !
 ! R7    R(6,7)                  1.0755         -DE/DX =    0.0                 !
 ! A1    A(2,1,5)              111.2249         -DE/DX =    0.0                 !
 ! A2    A(1,2,3)              106.1129         -DE/DX =   -0.0001              !
 ! A3    A(2,3,4)              120.5261         -DE/DX =    0.0                 !
 ! A4    A(2,3,6)              108.4702         -DE/DX =    0.0                 !
 ! A5    A(4,3,6)              131.0037         -DE/DX =    0.0                 !
 ! A6    A(1,5,6)              105.7225         -DE/DX =    0.0001              !
 ! A7    A(3,6,5)              108.4695         -DE/DX =   -0.0001              !
 ! A8    A(3,6,7)              124.8594         -DE/DX =    0.0001              !
 ! A9    A(5,6,7)              126.6711         -DE/DX =    0.0                 !
 ! D1    D(5,1,2,3)              0.0            -DE/DX =    0.0                 !
 ! D2    D(2,1,5,6)              0.0            -DE/DX =    0.0                 !
 ! D3    D(1,2,3,4)            180.0            -DE/DX =    0.0                 !
 ! D4    D(1,2,3,6)              0.0            -DE/DX =    0.0                 !
 ! D5    D(2,3,6,5)              0.0            -DE/DX =    0.0                 !
 ! D6    D(2,3,6,7)            180.0            -DE/DX =    0.0                 !
 ! D7    D(4,3,6,5)            180.0            -DE/DX =    0.0                 !
 ! D8    D(4,3,6,7)              0.0            -DE/DX =    0.0                 !
 ! D9    D(1,5,6,3)              0.0            -DE/DX =    0.0                 !
 ! D10   D(1,5,6,7)            180.0            -DE/DX =    0.0                 !
 --------------------------------------------------------------------------------
 GradGradGradGradGradGradGradGradGradGradGradGradGradGradGradGradGradGrad

                          Input orientation:                          
 ---------------------------------------------------------------------
 Center     Atomic     Atomic              Coordinates (Angstroms)
 Number     Number      Type              X           Y           Z
 ---------------------------------------------------------------------
    1          7             0       -0.728560   -0.926099    0.000000
    2          7             0       -1.119542    0.297134    0.000000
    3          7             0       -0.000206    1.047550    0.000000
    4          1             0       -0.058387    2.052851    0.000000
    5          7             0        0.630906   -1.009235    0.000000
    6          6             0        1.061908    0.226909    0.000000
    7          1             0        2.087905    0.549405    0.000000
 ---------------------------------------------------------------------
                    Distance matrix (angstroms):
                    1          2          3          4          5
     1  N    0.000000
     2  N    1.284199   0.000000
     3  N    2.103756   1.347604   0.000000
     4  H    3.053404   2.051485   1.006984   0.000000
     5  N    1.362005   2.184186   2.151433   3.138709   0.000000
     6  C    2.129601   2.182580   1.342214   2.142225   1.309127
     7  H    3.179557   3.217352   2.146708   2.620481   2.133589
                    6          7
     6  C    0.000000
     7  H    1.075488   0.000000
 Stoichiometry    CH2N4
 Framework group  CS[SG(CH2N4)]
 Deg. of freedom    11
 Full point group                 CS      NOp   2
 Largest Abelian subgroup         CS      NOp   2
 Largest concise Abelian subgroup C1      NOp   1
                         Standard orientation:                         
 ---------------------------------------------------------------------
 Center     Atomic     Atomic              Coordinates (Angstroms)
 Number     Number      Type              X           Y           Z
 ---------------------------------------------------------------------
    1          7             0       -0.722441   -0.923521    0.000000
    2          7             0       -1.117084    0.298537    0.000000
    3          7             0        0.000000    1.052300    0.000000
    4          1             0       -0.061191    2.057423    0.000000
    5          7             0        0.637268   -1.002586    0.000000
    6          6             0        1.064566    0.234843    0.000000
    7          1             0        2.089593    0.560409    0.000000
 ---------------------------------------------------------------------
 Rotational constants (GHZ):     10.5765970     10.4087515      5.2460015

 **********************************************************************

            Population analysis using the SCF density.

 **********************************************************************

 Orbital symmetries:
       Occupied  (A') (A') (A') (A') (A') (A') (A') (A') (A') (A')
                 (A') (A') (A") (A') (A") (A") (A') (A')
       Virtual   (A") (A') (A") (A') (A') (A") (A') (A') (A') (A")
                 (A") (A') (A') (A') (A') (A') (A") (A') (A') (A")
                 (A') (A') (A') (A') (A') (A') (A") (A') (A') (A')
                 (A') (A") (A") (A') (A') (A') (A') (A") (A') (A")
                 (A') (A") (A') (A') (A') (A') (A") (A') (A") (A')
                 (A") (A") (A') (A') (A') (A') (A") (A') (A") (A')
                 (A') (A") (A') (A") (A") (A') (A") (A") (A') (A')
                 (A') (A') (A') (A') (A') (A') (A') (A') (A") (A')
                 (A") (A') (A') (A") (A') (A') (A') (A") (A') (A")
                 (A') (A') (A") (A') (A') (A') (A") (A") (A') (A")
                 (A') (A") (A') (A') (A") (A") (A') (A') (A') (A')
                 (A") (A') (A') (A") (A') (A") (A") (A') (A") (A')
                 (A") (A') (A") (A') (A') (A') (A") (A') (A") (A")
                 (A') (A") (A') (A') (A') (A") (A') (A') (A') (A")
                 (A') (A') (A') (A') (A') (A") (A') (A") (A') (A")
                 (A") (A") (A') (A') (A") (A') (A") (A') (A') (A')
                 (A') (A') (A') (A') (A') (A") (A") (A') (A') (A')
                 (A") (A") (A") (A') (A') (A") (A') (A") (A") (A')
                 (A") (A') (A') (A') (A") (A') (A') (A') (A') (A')
                 (A') (A') (A') (A') (A')
 The electronic state is 1-A'.
 Alpha  occ. eigenvalues --  -14.43439 -14.40265 -14.38608 -14.35512 -10.27109
 Alpha  occ. eigenvalues --   -1.15836  -0.96001  -0.90882  -0.69274  -0.67954
 Alpha  occ. eigenvalues --   -0.61076  -0.51285  -0.51253  -0.39562  -0.34686
 Alpha  occ. eigenvalues --   -0.32535  -0.31930  -0.30687
 Alpha virt. eigenvalues --   -0.03822  -0.01946  -0.00567   0.01788   0.03745
 Alpha virt. eigenvalues --    0.04855   0.06635   0.08409   0.10158   0.12121
 Alpha virt. eigenvalues --    0.13595   0.14220   0.15797   0.16397   0.17021
 Alpha virt. eigenvalues --    0.18097   0.19786   0.20199   0.20407   0.21503
 Alpha virt. eigenvalues --    0.22390   0.23208   0.24488   0.27670   0.30350
 Alpha virt. eigenvalues --    0.31322   0.33697   0.35236   0.38429   0.41409
 Alpha virt. eigenvalues --    0.44410   0.45661   0.49290   0.49741   0.53188
 Alpha virt. eigenvalues --    0.54038   0.57787   0.58531   0.59299   0.61892
 Alpha virt. eigenvalues --    0.64811   0.64928   0.67427   0.67856   0.71423
 Alpha virt. eigenvalues --    0.71906   0.73906   0.77671   0.79323   0.80197
 Alpha virt. eigenvalues --    0.81004   0.82966   0.85501   0.86899   0.87814
 Alpha virt. eigenvalues --    0.91215   0.91380   0.94488   0.94532   0.97355
 Alpha virt. eigenvalues --    1.01349   1.05399   1.08220   1.08342   1.11534
 Alpha virt. eigenvalues --    1.15533   1.16559   1.19969   1.24161   1.24642
 Alpha virt. eigenvalues --    1.30276   1.37080   1.38949   1.40836   1.48630
 Alpha virt. eigenvalues --    1.48896   1.53068   1.60456   1.68598   1.69085
 Alpha virt. eigenvalues --    1.74260   1.80165   1.82345   1.97690   1.99317
 Alpha virt. eigenvalues --    2.01170   2.08406   2.10230   2.10281   2.15828
 Alpha virt. eigenvalues --    2.16881   2.21544   2.30890   2.31354   2.33828
 Alpha virt. eigenvalues --    2.37950   2.43621   2.50083   2.58323   2.67400
 Alpha virt. eigenvalues --    2.69638   2.72114   2.78774   2.79162   2.82586
 Alpha virt. eigenvalues --    2.85340   2.85984   2.96427   3.02122   3.08706
 Alpha virt. eigenvalues --    3.11268   3.16025   3.27846   3.30932   3.39394
 Alpha virt. eigenvalues --    3.40664   3.46298   3.49917   3.57167   3.62786
 Alpha virt. eigenvalues --    3.63798   3.65567   3.67291   3.75213   3.78057
 Alpha virt. eigenvalues --    3.80514   3.83369   3.88264   3.89095   3.91848
 Alpha virt. eigenvalues --    3.93751   3.96817   3.98374   4.02770   4.04411
 Alpha virt. eigenvalues --    4.05930   4.07659   4.16623   4.21528   4.26842
 Alpha virt. eigenvalues --    4.29760   4.35413   4.43924   4.45672   4.55943
 Alpha virt. eigenvalues --    4.63783   4.66449   4.79645   4.85644   4.89592
 Alpha virt. eigenvalues --    4.93335   5.04378   5.05487   5.16099   5.22248
 Alpha virt. eigenvalues --    5.27348   5.34813   5.49244   5.55706   5.87669
 Alpha virt. eigenvalues --    6.12710   6.15141   6.24384   6.62490   6.85827
 Alpha virt. eigenvalues --    7.18286   7.25774   7.41776   7.93079   8.01979
 Alpha virt. eigenvalues --   10.00036  10.04568  10.05936  10.15388  10.29078
 Alpha virt. eigenvalues --   10.38823  10.43876  10.48489  10.59899  10.60388
 Alpha virt. eigenvalues --   10.63769  10.65981  10.72429  10.83166  10.92498
 Alpha virt. eigenvalues --   10.96082  11.24045  11.38969  11.45884  12.60641
 Alpha virt. eigenvalues --   25.02889  35.78131  36.10662  36.26068  36.32025
          Condensed to atoms (all electrons):
              1          2          3          4          5          6
     1  N    8.175746  -0.656009   0.151270   0.003293  -0.455897  -0.052328
     2  N   -0.656009   8.120713  -0.347469  -0.048704   0.194982  -0.154097
     3  N    0.151270  -0.347469   7.242539   0.412225  -0.230275   0.205621
     4  H    0.003293  -0.048704   0.412225   0.474668   0.006020  -0.036340
     5  N   -0.455897   0.194982  -0.230275   0.006020   7.798254   0.253113
     6  C   -0.052328  -0.154097   0.205621  -0.036340   0.253113   4.571244
     7  H    0.010591   0.006971  -0.053284  -0.000482  -0.052388   0.423741
              7
     1  N    0.010591
     2  N    0.006971
     3  N   -0.053284
     4  H   -0.000482
     5  N   -0.052388
     6  C    0.423741
     7  H    0.455731
 Mulliken atomic charges:
              1
     1  N   -0.176665
     2  N   -0.116385
     3  N   -0.380627
     4  H    0.189320
     5  N   -0.513808
     6  C    0.789046
     7  H    0.209120
 Sum of Mulliken charges=   0.00000
 Atomic charges with hydrogens summed into heavy atoms:
              1
     1  N   -0.176665
     2  N   -0.116385
     3  N   -0.191307
     4  H    0.000000
     5  N   -0.513808
     6  C    0.998166
     7  H    0.000000
 Sum of Mulliken charges=   0.00000
 Electronic spatial extent (au):  <R**2>=   251.2535
 Charge=     0.0000 electrons
 Dipole moment (field-independent basis, Debye):
    X=     2.5121    Y=     4.7403    Z=     0.0000  Tot=     5.3648
 Quadrupole moment (field-independent basis, Debye-Ang):
   XX=   -29.3406   YY=   -26.8374   ZZ=   -28.8252
   XY=     1.8938   XZ=     0.0000   YZ=     0.0000
 Traceless Quadrupole moment (field-independent basis, Debye-Ang):
   XX=    -1.0062   YY=     1.4970   ZZ=    -0.4908
   XY=     1.8938   XZ=     0.0000   YZ=     0.0000
 Octapole moment (field-independent basis, Debye-Ang**2):
  XXX=    12.2208  YYY=    22.7983  ZZZ=     0.0000  XYY=    -0.6211
  XXY=     4.7884  XXZ=     0.0000  XZZ=    -0.4697  YZZ=     0.7783
  YYZ=     0.0000  XYZ=     0.0000
 Hexadecapole moment (field-independent basis, Debye-Ang**3):
 XXXX=  -148.6843 YYYY=  -126.1311 ZZZZ=   -28.2181 XXXY=     7.3673
 XXXZ=     0.0000 YYYX=    -0.0972 YYYZ=     0.0000 ZZZX=     0.0000
 ZZZY=     0.0000 XXYY=   -56.1366 XXZZ=   -32.0552 YYZZ=   -30.4581
 XXYZ=     0.0000 YYXZ=     0.0000 ZZXY=     0.0535
 N-N= 1.671672875419D+02 E-N=-9.376009456505D+02  KE= 2.573747623302D+02
 Symmetry A'   KE= 2.478395617109D+02
 Symmetry A"   KE= 9.535200619297D+00
 1|1|UNPC-UNK|FOpt|RB3LYP|6-311+G(3df,2p)|C1H2N4|PCUSER|26-Jul-2004|0||
 #B3LYP/6-311+G(3DF,2P) OPT FREQ||1htz casno=288948 method=8 basis=10||
 0,1|N,-0.7252025718,-0.9213534421,0.|N,-1.1161850774,0.3018799046,0.|N
 ,0.0031506053,1.05229518,0.|H,-0.0550303725,2.0575969254,0.|N,0.634263
 0362,-1.0044891472,0.|C,1.0652644818,0.2316542269,0.|H,2.0912615352,0.
 5541502464,0.||Version=x86-Win32-G03RevB.05|State=1-A'|HF=-258.3446042
 |RMSD=9.966e-009|RMSF=1.834e-004|Dipole=0.9939315,1.8620197,0.|PG=CS [
 SG(C1H2N4)]||@


 I WANT TO KNOW HOW GOD CREATED THE WORLD.  I AM NOT INTERESTED IN
 THIS OR THAT PHENOMENON, IN THE SPECTRUM OF THIS OR THAT ELEMENT.
 I WANT TO KNOW HIS THOUGHTS, THE REST ARE DETAILS.
     -- ALBERT EINSTEIN
 Job cpu time:  0 days  1 hours 12 minutes 56.0 seconds.
 File lengths (MBytes):  RWF=     39 Int=      0 D2E=      0 Chk=      7 Scr=      1
 Normal termination of Gaussian 03 at Mon Jul 26 13:41:23 2004.
 Link1:  Proceeding to internal job step number  2.
 ----------------------------------------------------------------------
 #N Geom=AllCheck Guess=Read SCRF=Check GenChk RB3LYP/6-311+G(3df,2p) F
 req
 ----------------------------------------------------------------------
 1/10=4,29=7,30=1,38=1,40=1,46=1/1,3;
 2/40=1/2;
 3/5=4,6=6,7=216,11=2,16=1,25=1,30=1,70=2,71=2,74=-5/1,2,3;
 4/5=1,7=1/1;
 5/5=2,38=6/2;
 8/6=4,10=90,11=11,27=262144000/1;
 11/6=1,8=1,9=11,15=111,16=1/1,2,10;
 10/6=1/2;
 6/7=2,8=2,9=2,10=2,18=1,28=1/1;
 7/8=1,10=1,25=1/1,2,3,16;
 1/10=4,30=1,46=1/3;
 99//99;
 -----------------------------------
 1htz casno=288948 method=8 basis=10
 -----------------------------------
 Redundant internal coordinates taken from checkpoint file:
 gxx.chk
 Charge =  0 Multiplicity = 1
 N,0,-0.7252025718,-0.9213534421,0.
 N,0,-1.1161850774,0.3018799046,0.
 N,0,0.0031506053,1.05229518,0.
 H,0,-0.0550303725,2.0575969254,0.
 N,0,0.6342630362,-1.0044891472,0.
 C,0,1.0652644818,0.2316542269,0.
 H,0,2.0912615352,0.5541502464,0.
 Recover connectivity data from disk.

 GradGradGradGradGradGradGradGradGradGradGradGradGradGradGradGradGradGrad
 Berny optimization.
 Initialization pass.
                           ----------------------------
                           !    Initial Parameters    !
                           ! (Angstroms and Degrees)  !
 --------------------------                            --------------------------
 ! Name  Definition              Value          Derivative Info.                !
 --------------------------------------------------------------------------------
 ! R1    R(1,2)                  1.2842         calculate D2E/DX2 analytically  !
[...]
 XXXZ=     0.0000 YYYX=    -0.0972 YYYZ=     0.0000 ZZZX=     0.0000
 ZZZY=     0.0000 XXYY=   -56.1366 XXZZ=   -32.0552 YYZZ=   -30.4581
 XXYZ=     0.0000 YYXZ=     0.0000 ZZXY=     0.0535
 N-N= 1.671672875419D+02 E-N=-9.376009392561D+02  KE= 2.573747586516D+02
 Symmetry A'   KE= 2.478395599500D+02
 Symmetry A"   KE= 9.535198701522D+00
  Exact polarizability:  45.545   0.508  45.018   0.000   0.000  26.308
 Approx polarizability:  74.454   0.394  78.311   0.000   0.000  39.367
 Full mass-weighted force constant matrix:
 Low frequencies ---   -3.4590   -0.0014   -0.0004    0.0003    9.5194   11.5693
 Low frequencies ---  585.5788  691.8209  743.6752
 Diagonal vibrational polarizability:
        1.1623724       1.1284876       7.6696414
 Harmonic frequencies (cm**-1), IR intensities (KM/Mole), Raman scattering
 activities (A**4/AMU), depolarization ratios for plane and unpolarized
 incident light, reduced masses (AMU), force constants (mDyne/A),
 and normal coordinates:
                     1                      2                      3
                    A"                     A"                     A"
 Frequencies --   585.5787               691.8207               743.6751
 Red. masses --     1.6371                 2.0551                 8.8195
 Frc consts  --     0.3307                 0.5795                 2.8738
 IR Inten    --    81.8305                 5.7138                 7.2568
 Atom AN      X      Y      Z        X      Y      Z        X      Y      Z
   1   7     0.00   0.00   0.00     0.00   0.00   0.03     0.00   0.00   0.52
   2   7     0.00   0.00  -0.07     0.00   0.00   0.11     0.00   0.00  -0.43
   3   7     0.00   0.00   0.20     0.00   0.00  -0.11     0.00   0.00   0.13
   4   1     0.00   0.00  -0.95     0.00   0.00  -0.77     0.00   0.00   0.61
   5   7     0.00   0.00   0.02     0.00   0.00  -0.17     0.00   0.00  -0.35
   6   6     0.00   0.00  -0.07     0.00   0.00   0.18     0.00   0.00   0.10
   7   1     0.00   0.00  -0.22     0.00   0.00   0.56     0.00   0.00   0.17
                     4                      5                      6
                    A"                     A'                     A'
 Frequencies --   870.5332               965.2985              1012.9755
 Red. masses --     1.3930                 5.5764                 6.5018
 Frc consts  --     0.6220                 3.0615                 3.9308
 IR Inten    --    16.1400                 5.0773                 0.0010
 Atom AN      X      Y      Z        X      Y      Z        X      Y      Z
   1   7     0.00   0.00   0.01    -0.15   0.19   0.00     0.28  -0.01   0.00
   2   7     0.00   0.00   0.00    -0.14   0.14   0.00     0.03   0.00   0.00
   3   7     0.00   0.00   0.04    -0.11  -0.09   0.00     0.00   0.36   0.00
   4   1     0.00   0.00   0.05     0.29  -0.06   0.00     0.44   0.40   0.00
   5   7     0.00   0.00   0.03     0.43  -0.19   0.00     0.02  -0.29   0.00
   6   6     0.00   0.00  -0.18    -0.03  -0.12   0.00    -0.39  -0.08   0.00
   7   1     0.00   0.00   0.98    -0.27   0.69   0.00    -0.35  -0.27   0.00
                     7                      8                      9
                    A'                     A'                     A'
 Frequencies --  1034.3906              1063.3236              1144.9503
 Red. masses --     5.1337                 3.2788                 2.0220
 Frc consts  --     3.2363                 2.1842                 1.5617
 IR Inten    --    15.1780                26.9202                17.0384
 Atom AN      X      Y      Z        X      Y      Z        X      Y      Z
   1   7     0.18   0.02   0.00     0.23   0.06   0.00    -0.13  -0.12   0.00
   2   7     0.30   0.26   0.00    -0.25   0.04   0.00     0.10  -0.03   0.00
   3   7    -0.23  -0.21   0.00     0.07  -0.18   0.00     0.13   0.00   0.00
   4   1    -0.48  -0.24   0.00     0.84  -0.15   0.00     0.44   0.01   0.00
   5   7    -0.13  -0.07   0.00    -0.11   0.03   0.00    -0.03   0.00   0.00
   6   6    -0.08  -0.02   0.00    -0.01   0.04   0.00    -0.10   0.11   0.00
   7   1    -0.28   0.56   0.00    -0.09   0.30   0.00    -0.32   0.79   0.00
                    10                     11                     12
                    A'                     A'                     A'
 Frequencies --  1266.2691              1293.8106              1452.4178
 Red. masses --     2.2233                10.9106                 3.0117
 Frc consts  --     2.1004                10.7607                 3.7432
 IR Inten    --     2.8522                13.2145                 9.3021
 Atom AN      X      Y      Z        X      Y      Z        X      Y      Z
   1   7    -0.04  -0.08   0.00    -0.02   0.58   0.00    -0.01  -0.01   0.00
   2   7     0.07   0.07   0.00     0.23  -0.47   0.00    -0.06   0.09   0.00
   3   7    -0.06  -0.08   0.00     0.11  -0.17   0.00     0.19  -0.13   0.00
   4   1     0.65  -0.05   0.00    -0.17  -0.23   0.00    -0.71  -0.21   0.00
   5   7     0.10   0.18   0.00    -0.03   0.14   0.00     0.07  -0.11   0.00
   6   6    -0.16  -0.04   0.00    -0.30  -0.07   0.00    -0.17   0.24   0.00
   7   1     0.03  -0.69   0.00    -0.37  -0.02   0.00     0.06  -0.54   0.00
                    13                     14                     15
                    A'                     A'                     A'
 Frequencies --  1508.4315              3273.6291              3649.6159
 Red. masses --     3.2006                 1.1007                 1.0836
 Frc consts  --     4.2907                 6.9501                 8.5035
 IR Inten    --    16.8052                 1.7437                93.9497
 Atom AN      X      Y      Z        X      Y      Z        X      Y      Z
   1   7     0.06  -0.08   0.00     0.00   0.00   0.00     0.00   0.00   0.00
   2   7    -0.09   0.07   0.00     0.00   0.00   0.00     0.00   0.00   0.00
   3   7     0.17   0.03   0.00     0.00   0.00   0.00     0.01  -0.08   0.00
   4   1    -0.73  -0.03   0.00     0.01   0.02   0.00    -0.06   0.99   0.00
   5   7     0.04   0.20   0.00     0.00   0.00   0.00     0.00   0.00   0.00
   6   6    -0.11  -0.28   0.00     0.09   0.03   0.00     0.00   0.00   0.00
   7   1    -0.36   0.40   0.00    -0.95  -0.30   0.00     0.01   0.00   0.00

 -------------------
 - Thermochemistry -
 -------------------
 Temperature   298.150 Kelvin.  Pressure   1.00000 Atm.
 Atom  1 has atomic number  7 and mass  14.00307
 Atom  2 has atomic number  7 and mass  14.00307
 Atom  3 has atomic number  7 and mass  14.00307
 Atom  4 has atomic number  1 and mass   1.00783
 Atom  5 has atomic number  7 and mass  14.00307
 Atom  6 has atomic number  6 and mass  12.00000
 Atom  7 has atomic number  1 and mass   1.00783
 Molecular mass:    70.02795 amu.
 Principal axes and moments of inertia in atomic units:
                           1         2         3
     EIGENVALUES --   170.63534 173.38690 344.02224
           X            0.90604   0.42318   0.00000
           Y           -0.42318   0.90604   0.00000
           Z            0.00000   0.00000   1.00000
 This molecule is an asymmetric top.
 Rotational symmetry number  1.
 Rotational temperatures (Kelvin)      0.50760     0.49954     0.25177
 Rotational constants (GHZ):          10.57660    10.40875     5.24600
 Zero-point vibrational energy     122956.5 (Joules/Mol)
                                   29.38731 (Kcal/Mol)
 Warning -- explicit consideration of   1 degrees of freedom as
           vibrations may cause significant error
 Vibrational temperatures:    842.52   995.37  1069.98  1252.50  1388.85
          (Kelvin)           1457.44  1488.26  1529.88  1647.33  1821.88
                             1861.50  2089.70  2170.29  4710.02  5250.98
 
 Zero-point correction=                           0.046832 (Hartree/Particle)
 Thermal correction to Energy=                    0.050299
 Thermal correction to Enthalpy=                  0.051243
 Thermal correction to Gibbs Free Energy=         0.020747
 Sum of electronic and zero-point Energies=           -258.297773
 Sum of electronic and thermal Energies=              -258.294305
 Sum of electronic and thermal Enthalpies=            -258.293361
 Sum of electronic and thermal Free Energies=         -258.323857
 
                     E (Thermal)             CV                S
                      KCal/Mol        Cal/Mol-Kelvin    Cal/Mol-Kelvin
 Total                   31.563             11.314             64.185
 Electronic               0.000              0.000              0.000
 Translational            0.889              2.981             38.656
 Rotational               0.889              2.981             23.835
 Vibrational             29.786              5.352              1.694
 Vibration  1             0.943              1.063              0.475
                       Q            Log10(Q)             Ln(Q)
 Total Bot       0.286528D-09         -9.542833        -21.973185
 Total V=0       0.995836D+12         11.998188         27.626848
 Vib (Bot)       0.344447D-21        -21.462877        -49.420101
 Vib (Bot)  1    0.258770D+00         -0.587087         -1.351817
 Vib (V=0)       0.119714D+01          0.078143          0.179932
 Vib (V=0)  1    0.106299D+01          0.026531          0.061089
 Electronic      0.100000D+01          0.000000          0.000000
 Translational   0.230336D+08          7.362362         16.952466
 Rotational      0.361146D+05          4.557682         10.494451
 ***** Axes restored to original set *****
 -------------------------------------------------------------------
 Center     Atomic                   Forces (Hartrees/Bohr)
 Number     Number              X              Y              Z
 -------------------------------------------------------------------
    1          7           0.000501953   -0.000109461    0.000000000
    2          7          -0.000005882    0.000200796    0.000000000
    3          7           0.000013438   -0.000258802    0.000000000
    4          1           0.000003947   -0.000005596    0.000000000
    5          7          -0.000515344   -0.000045728    0.000000000
    6          6          -0.000021126    0.000256035    0.000000000
    7          1           0.000023014   -0.000037244    0.000000000
 -------------------------------------------------------------------
 Cartesian Forces:  Max     0.000515344 RMS     0.000183496

 GradGradGradGradGradGradGradGradGradGradGradGradGradGradGradGradGradGrad
 Berny optimization.
 Internal  Forces:  Max     0.000434368 RMS     0.000101430
 Search for a local minimum.
 Step number   1 out of a maximum of   2
 All quantities printed in internal units (Hartrees-Bohrs-Radians)
 Second derivative matrix not updated -- analytic derivatives used.
     Eigenvalues ---    0.00824   0.02531   0.07292   0.07895   0.10112
     Eigenvalues ---    0.10595   0.19184   0.23723   0.34130   0.37391
     Eigenvalues ---    0.42899   0.46440   0.47643   0.57215   0.62671
     Eigenvalues --- 1000.000001000.000001000.000001000.000001000.00000
     Eigenvalues --- 1000.000001000.000001000.000001000.000001000.00000
     Eigenvalues --- 1000.00000
 Angle between quadratic step and forces=  16.05 degrees.
 Linear search not attempted -- first point.
 Iteration  1 RMS(Cart)=  0.00031499 RMS(Int)=  0.00000007
 Iteration  2 RMS(Cart)=  0.00000006 RMS(Int)=  0.00000003
 Variable       Old X    -DE/DX   Delta X   Delta X   Delta X     New X
                                 (Linear)    (Quad)   (Total)
    R1        2.42678   0.00010   0.00000   0.00070   0.00070   2.42748
    R2        2.57382  -0.00043   0.00000  -0.00192  -0.00192   2.57190
    R3        2.54660  -0.00012   0.00000  -0.00039  -0.00039   2.54621
    R4        1.90292  -0.00001   0.00000   0.00000   0.00000   1.90292
    R5        2.53642  -0.00015   0.00000  -0.00049  -0.00049   2.53592
    R6        2.47389   0.00009   0.00000   0.00058   0.00058   2.47447
    R7        2.03238   0.00001   0.00000   0.00000   0.00000   2.03237
    A1        1.94124   0.00004   0.00000   0.00019   0.00019   1.94143
    A2        1.85202  -0.00007   0.00000  -0.00045  -0.00045   1.85157
    A3        2.10358  -0.00003   0.00000  -0.00021  -0.00021   2.10337
    A4        1.89316   0.00004   0.00000   0.00040   0.00040   1.89356
    A5        2.28645  -0.00002   0.00000  -0.00019  -0.00019   2.28625
    A6        1.84521   0.00005   0.00000   0.00040   0.00040   1.84561
    A7        1.89315  -0.00007   0.00000  -0.00054  -0.00054   1.89261
    A8        2.17921   0.00007   0.00000   0.00070   0.00070   2.17991
    A9        2.21083   0.00000   0.00000  -0.00016  -0.00016   2.21067
    D1        0.00000   0.00000   0.00000   0.00000   0.00000   0.00000
    D2        0.00000   0.00000   0.00000   0.00000   0.00000   0.00000
    D3        3.14159   0.00000   0.00000   0.00000   0.00000   3.14159
    D4        0.00000   0.00000   0.00000   0.00000   0.00000   0.00000
    D5        0.00000   0.00000   0.00000   0.00000   0.00000   0.00000
    D6        3.14159   0.00000   0.00000   0.00000   0.00000   3.14159
    D7        3.14159   0.00000   0.00000   0.00000   0.00000   3.14159
    D8        0.00000   0.00000   0.00000   0.00000   0.00000   0.00000
    D9        0.00000   0.00000   0.00000   0.00000   0.00000   0.00000
   D10        3.14159   0.00000   0.00000   0.00000   0.00000   3.14159
         Item               Value     Threshold  Converged?
 Maximum Force            0.000434     0.000450     YES
 RMS     Force            0.000101     0.000300     YES
 Maximum Displacement     0.000954     0.001800     YES
 RMS     Displacement     0.000315     0.001200     YES
 Predicted change in Energy=-6.255131D-07
 Optimization completed.
    -- Stationary point found.
                           ----------------------------
                           !   Optimized Parameters   !
                           ! (Angstroms and Degrees)  !
 --------------------------                            --------------------------
 ! Name  Definition              Value          Derivative Info.                !
 --------------------------------------------------------------------------------
 ! R1    R(1,2)                  1.2842         -DE/DX =    0.0001              !
 ! R2    R(1,5)                  1.362          -DE/DX =   -0.0004              !
 ! R3    R(2,3)                  1.3476         -DE/DX =   -0.0001              !
 ! R4    R(3,4)                  1.007          -DE/DX =    0.0                 !
 ! R5    R(3,6)                  1.3422         -DE/DX =   -0.0002              !
 ! R6    R(5,6)                  1.3091         -DE/DX =    0.0001              !
 ! R7    R(6,7)                  1.0755         -DE/DX =    0.0                 !
 ! A1    A(2,1,5)              111.2249         -DE/DX =    0.0                 !
 ! A2    A(1,2,3)              106.1129         -DE/DX =   -0.0001              !
 ! A3    A(2,3,4)              120.5261         -DE/DX =    0.0                 !
 ! A4    A(2,3,6)              108.4702         -DE/DX =    0.0                 !
 ! A5    A(4,3,6)              131.0037         -DE/DX =    0.0                 !
 ! A6    A(1,5,6)              105.7225         -DE/DX =    0.0001              !
 ! A7    A(3,6,5)              108.4695         -DE/DX =   -0.0001              !
 ! A8    A(3,6,7)              124.8594         -DE/DX =    0.0001              !
 ! A9    A(5,6,7)              126.6711         -DE/DX =    0.0                 !
 ! D1    D(5,1,2,3)              0.0            -DE/DX =    0.0                 !
 ! D2    D(2,1,5,6)              0.0            -DE/DX =    0.0                 !
 ! D3    D(1,2,3,4)            180.0            -DE/DX =    0.0                 !
 ! D4    D(1,2,3,6)              0.0            -DE/DX =    0.0                 !
 ! D5    D(2,3,6,5)              0.0            -DE/DX =    0.0                 !
 ! D6    D(2,3,6,7)            180.0            -DE/DX =    0.0                 !
 ! D7    D(4,3,6,5)            180.0            -DE/DX =    0.0                 !
 ! D8    D(4,3,6,7)              0.0            -DE/DX =    0.0                 !
 ! D9    D(1,5,6,3)              0.0            -DE/DX =    0.0                 !
 ! D10   D(1,5,6,7)            180.0            -DE/DX =    0.0                 !
 --------------------------------------------------------------------------------
 GradGradGradGradGradGradGradGradGradGradGradGradGradGradGradGradGradGrad

 1|1|UNPC-UNK|Freq|RB3LYP|6-311+G(3df,2p)|C1H2N4|PCUSER|26-Jul-2004|0||
 #N GEOM=ALLCHECK GUESS=READ SCRF=CHECK GENCHK RB3LYP/6-311+G(3DF,2P) F
 REQ||1htz casno=288948 method=8 basis=10||0,1|N,-0.7252025718,-0.92135
 34421,0.|N,-1.1161850774,0.3018799046,0.|N,0.0031506053,1.05229518,0.|
 H,-0.0550303725,2.0575969254,0.|N,0.6342630362,-1.0044891472,0.|C,1.06
 52644818,0.2316542269,0.|H,2.0912615352,0.5541502464,0.||Version=x86-W
 in32-G03RevB.05|State=1-A'|HF=-258.3446042|RMSD=7.557e-009|RMSF=1.835e
 -004|Dipole=0.993926,1.8620223,0.|DipoleDeriv=0.1918568,-0.0800142,0.,
 -0.1346534,-0.1224328,0.,0.,0.,-0.1582862,-0.1860856,0.3647217,0.,0.32
 14941,0.121571,0.,0.,0.,-0.1027044,-0.0526102,-0.1434787,0.,-0.0798177
 ,-0.5343219,0.,0.,0.,-0.1132497,0.1896643,-0.0091889,0.,-0.0222732,0.2
 822274,0.,0.,0.,0.3246192,-0.4345709,0.0674018,0.,-0.044053,-0.2726427
 ,0.,0.,0.,-0.2073653,0.2172595,-0.1698497,0.,-0.0173867,0.4338252,0.,0
 .,0.,0.0884173,0.0744861,-0.029592,0.,-0.0233101,0.0917738,0.,0.,0.,0.
 1685691|Polar=45.5483324,0.5061107,45.0153138,0.,0.,26.3075535|PG=CS [
 SG(C1H2N4)]|NImag=0||0.41403800,0.06167293,0.59262578,0.,0.,0.12575638
 ,-0.13113894,0.04020820,0.,0.52334530,0.09530256,-0.32091536,0.,-0.099
 37772,0.49196668,0.,0.,-0.09818707,0.,0.,0.11632821,-0.02382465,-0.079
 07453,0.,-0.20643975,-0.04751857,0.,0.54759139,-0.00258851,-0.15301678
 ,0.,-0.01349229,-0.11151022,0.,-0.08815419,1.00428424,0.,0.,0.02730591
 ,0.,0.,-0.06983747,0.,0.,0.09409139,-0.00883758,-0.00954655,0.,0.01509
 519,-0.02898686,0.,-0.07305975,0.03353145,0.,0.05950131,-0.00098429,0.
 00016325,0.,0.00475375,-0.01028594,0.,0.02617619,-0.45839899,0.,-0.023
 90637,0.47139674,0.,0.,0.00772002,0.,0.,-0.01178956,0.,0.,-0.00700345,
 0.,0.,0.01357789,-0.17394365,0.00759542,0.,-0.08493766,0.12077500,0.,0
 .02037386,-0.02897906,0.,-0.00624487,-0.00102909,0.,0.38358023,-0.0278
 1502,-0.10230875,0.,0.01553233,-0.03910598,0.,0.08424372,-0.10725893,0
 .,0.00828431,0.00017610,0.,-0.00150838,0.60947047,0.,0.,-0.09113378,0.
 ,0.,0.03610649,0.,0.,0.02216942,0.,0.,0.00718604,0.,0.,0.11116505,-0.0
 7734981,-0.02216896,0.,-0.11573004,-0.04120268,0.,-0.25111226,0.108727
 79,0.,0.01401369,-0.00538613,0.,-0.13823778,-0.07660678,0.,0.90189603,
 -0.12130502,-0.01147308,0.,0.04844893,-0.00433901,0.,0.07899362,-0.187
 22833,0.,0.02105401,-0.00291938,0.,-0.06757107,-0.36040810,0.,0.123455
 68,0.64849485,0.,0.,0.01961329,0.,0.,0.02140275,0.,0.,-0.06497526,0.,0
 .,-0.00868108,0.,0.,-0.08095018,0.,0.,0.14460416,0.00105663,0.00131349
 ,0.,-0.00019410,0.00100827,0.,-0.01352885,-0.00904520,0.,-0.00046799,0
 .00037594,0.,-0.00059013,-0.00213018,0.,-0.33347982,-0.08307615,0.,0.3
 4720426,-0.00428266,-0.00507506,0.,0.00392680,-0.00581017,0.,0.0253337
 5,0.01312901,0.,-0.00042999,-0.00013178,0.,-0.02928281,-0.00056481,0.,
 -0.08681892,-0.08212694,0.,0.09155383,0.08057975,0.,0.,0.00892525,0.,0
 .,0.00597665,0.,0.,-0.00175053,0.,0.,-0.00100985,0.,0.,-0.00454304,0.,
 0.,-0.03101367,0.,0.,0.02341518||-0.00050195,0.00010946,0.,0.00000588,
 -0.00020080,0.,-0.00001344,0.00025880,0.,-0.00000395,0.00000560,0.,0.0
 0051534,0.00004573,0.,0.00002113,-0.00025603,0.,-0.00002301,0.00003724
 ,0.|||@


 THERE ARE TWO THINGS THAT EVERYBODY THINKS THEY CAN DO BETTER THAN
 ANYONE ELSE - PUNCH THE FIRE, AND EDIT A DAILY PAPER.
 -- UNCLE ESEK, "CENTURY MAGAZINE", 1885
 Job cpu time:  0 days  0 hours 58 minutes 46.0 seconds.
 File lengths (MBytes):  RWF=     39 Int=      0 D2E=      0 Chk=      7 Scr=      1
 Normal termination of Gaussian 03 at Mon Jul 26 14:40:09 2004.
