 Entering Gaussian System, Link 0=g98
 Initial command:
 /usr/local/apps/g98a6/g98/l1.exe /wrk/rdj3/Gau-17612.inp -scrdir=/wrk/rdj3/
 Entering Link 1 = /usr/local/apps/g98a6/g98/l1.exe PID=     15764.
  
 Copyright (c) 1988,1990,1992,1993,1995,1998 Gaussian, Inc.
                  All Rights Reserved.
  
 This is part of the Gaussian(R) 98 program.  It is based on
 the Gaussian 94(TM) system (copyright 1995 Gaussian, Inc.),
 the Gaussian 92(TM) system (copyright 1992 Gaussian, Inc.),
 the Gaussian 90(TM) system (copyright 1990 Gaussian, Inc.),
 the Gaussian 88(TM) system (copyright 1988 Gaussian, Inc.),
 the Gaussian 86(TM) system (copyright 1986 Carnegie Mellon
 University), and the Gaussian 82(TM) system (copyright 1983
 Carnegie Mellon University). Gaussian is a federally registered
 trademark of Gaussian, Inc.
  
 This software contains proprietary and confidential information,
 including trade secrets, belonging to Gaussian, Inc.
  
 This software is provided under written license and may be
 used, copied, transmitted, or stored only in accord with that
 written license.
  
 The following legend is applicable only to US Government
 contracts under DFARS:
  
                    RESTRICTED RIGHTS LEGEND
  
 Use, duplication or disclosure by the US Government is subject
 to restrictions as set forth in subparagraph (c)(1)(ii) of the
 Rights in Technical Data and Computer Software clause at DFARS
 252.227-7013.
  
 Gaussian, Inc.
 Carnegie Office Park, Building 6, Pittsburgh, PA 15106 USA
  
 The following legend is applicable only to US Government
 contracts under FAR:
  
                    RESTRICTED RIGHTS LEGEND
  
 Use, reproduction and disclosure by the US Government is subject
 to restrictions as set forth in subparagraph (c) of the
 Commercial Computer Software - Restricted Rights clause at FAR
 52.227-19.
  
 Gaussian, Inc.
 Carnegie Office Park, Building 6, Pittsburgh, PA 15106 USA
  
  
 ---------------------------------------------------------------
 Warning -- This program may not be used in any manner that
 competes with the business of Gaussian, Inc. or will provide
 assistance to any competitor of Gaussian, Inc.  The licensee
 of this program is prohibited from giving any competitor of
 Gaussian, Inc. access to this program.  By using this program,
 the user acknowledges that Gaussian, Inc. is engaged in the
 business of creating and licensing software in the field of
 computational chemistry and represents and warrants to the
 licensee that it is not a competitor of Gaussian, Inc. and that
 it will not use this program in any manner prohibited above.
 ---------------------------------------------------------------
  

 Cite this work as:
 Gaussian 98, Revision A.6,
 M. J. Frisch, G. W. Trucks, H. B. Schlegel, G. E. Scuseria, 
 M. A. Robb, J. R. Cheeseman, V. G. Zakrzewski, J. A. Montgomery, Jr., 
 R. E. Stratmann, J. C. Burant, S. Dapprich, J. M. Millam, 
 A. D. Daniels, K. N. Kudin, M. C. Strain, O. Farkas, J. Tomasi, 
 V. Barone, M. Cossi, R. Cammi, B. Mennucci, C. Pomelli, C. Adamo, 
 S. Clifford, J. Ochterski, G. A. Petersson, P. Y. Ayala, Q. Cui, 
 K. Morokuma, D. K. Malick, A. D. Rabuck, K. Raghavachari, 
 J. B. Foresman, J. Cioslowski, J. V. Ortiz, B. B. Stefanov, G. Liu, 
 A. Liashenko, P. Piskorz, I. Komaromi, R. Gomperts, R. L. Martin, 
 D. J. Fox, T. Keith, M. A. Al-Laham, C. Y. Peng, A. Nanayakkara, 
 C. Gonzalez, M. Challacombe, P. M. W. Gill, B. Johnson, W. Chen, 
 M. W. Wong, J. L. Andres, C. Gonzalez, M. Head-Gordon, 
 E. S. Replogle, and J. A. Pople, 
 Gaussian, Inc., Pittsburgh PA, 1998.

 **********************************************
 Gaussian 98:  IBM-RS6000-G98RevA.6 19-Oct-1998
                  12-Sep-2000 
 **********************************************
 %mem=24000000
 ------------------------
 #B3LYP/CEP-31G* opt freq
 ------------------------
 1/14=-1,18=20,26=3,38=1/1,3;
 2/9=110,17=6,18=5/2;
 3/5=9,6=1,7=1,11=2,16=1,25=1,30=1/1,2,3;
 4/11=1/1;
 5/5=2,38=4,42=-5/2;
 6/7=2,8=2,9=2,10=2,28=1/1;
 7//1,2,3,16;
 1/14=-1,18=20/3(1);
 99//99;
 2/9=110/2;
 3/5=9,6=1,7=1,11=2,16=1,25=1,30=1/1,2,3;
 4/5=5,11=1,16=2/1;
 5/5=2,38=4,42=-5/2;
 7//1,2,3,16;
 1/14=-1,18=20/3(-5);
 2/9=110/2;
 6/7=2,8=2,9=2,10=2,19=2,28=1/1;
 99/9=1/99;
 ----------------------------------------
 1H tetrazole c CH-NH-N=N-N= casno=288948
 ----------------------------------------
 Symbolic Z-matrix:
 Charge =  0 Multiplicity = 1
 7                    -1.12329  -0.25456   0. 
 7                    -0.67158   0.91328   0. 
 7                     0.65055   0.80984   0. 
 1                     1.224     1.62189   0. 
 7                    -0.13465  -1.16105   0. 
 6                     0.96218  -0.48332   0. 
 1                     1.95569  -0.87454   0. 

 GradGradGradGradGradGradGradGradGradGradGradGradGradGradGradGradGradGrad
 Berny optimization.
 Initialization pass.
                         ----------------------------
                         !    Initial Parameters    !
                         ! (Angstroms and Degrees)  !
 ------------------------                            -------------------------
 ! Name  Definition              Value          Derivative Info.             !
 -----------------------------------------------------------------------------
 ! R1    R(1,2)                  1.2522         estimate D2E/DX2             !
 ! R2    R(1,5)                  1.3413         estimate D2E/DX2             !
 ! R3    R(2,3)                  1.3262         estimate D2E/DX2             !
 ! R4    R(3,4)                  0.9941         estimate D2E/DX2             !
 ! R5    R(3,6)                  1.3302         estimate D2E/DX2             !
 ! R6    R(5,6)                  1.2893         estimate D2E/DX2             !
 ! R7    R(6,7)                  1.0678         estimate D2E/DX2             !
 ! A1    A(2,1,5)              111.3714         estimate D2E/DX2             !
 ! A2    A(1,2,3)              106.673          estimate D2E/DX2             !
 ! A3    A(2,3,4)              120.7559         estimate D2E/DX2             !
 ! A4    A(2,3,6)              108.0227         estimate D2E/DX2             !
 ! A5    A(4,3,6)              131.2214         estimate D2E/DX2             !
 ! A6    A(1,5,6)              105.77           estimate D2E/DX2             !
 ! A7    A(3,6,5)              108.1628         estimate D2E/DX2             !
 ! A8    A(3,6,7)              125.0426         estimate D2E/DX2             !
 ! A9    A(5,6,7)              126.7945         estimate D2E/DX2             !
 ! D1    D(5,1,2,3)              0.             estimate D2E/DX2             !
 ! D2    D(2,1,5,6)              0.             estimate D2E/DX2             !
 ! D3    D(1,2,3,4)            180.             estimate D2E/DX2             !
 ! D4    D(1,2,3,6)              0.             estimate D2E/DX2             !
 ! D5    D(2,3,6,5)              0.             estimate D2E/DX2             !
 ! D6    D(2,3,6,7)            180.             estimate D2E/DX2             !
 ! D7    D(4,3,6,5)            180.             estimate D2E/DX2             !
 ! D8    D(4,3,6,7)              0.             estimate D2E/DX2             !
 ! D9    D(1,5,6,3)              0.             estimate D2E/DX2             !
 ! D10   D(1,5,6,7)            180.             estimate D2E/DX2             !
 -----------------------------------------------------------------------------
 Trust Radius=3.00D-01 FncErr=1.00D-07 GrdErr=1.00D-06
 Number of steps in this run=  36 maximum allowed number of steps= 100.
 GradGradGradGradGradGradGradGradGradGradGradGradGradGradGradGradGradGrad

                          Input orientation:                          
 ---------------------------------------------------------------------
 Center     Atomic     Atomic              Coordinates (Angstroms)
 Number     Number      Type              X           Y           Z
 ---------------------------------------------------------------------
    1          7             0       -1.123293   -0.254560    0.000000
    2          7             0       -0.671576    0.913277    0.000000
    3          7             0        0.650545    0.809842    0.000000
    4          1             0        1.224004    1.621891    0.000000
    5          7             0       -0.134646   -1.161053    0.000000
    6          6             0        0.962183   -0.483316    0.000000
    7          1             0        1.955691   -0.874535    0.000000
 ---------------------------------------------------------------------
                    Distance matrix (angstroms):
                    1          2          3          4          5
     1  N    0.000000
     2  N    1.252155   0.000000
     3  N    2.068684   1.326161   0.000000
     4  H    3.005141   2.023699   0.994122   0.000000
     5  N    1.341325   2.142694   2.121545   3.096887   0.000000
     6  C    2.097985   2.149335   1.330179   2.121426   1.289326
     7  H    3.140782   3.177861   2.130852   2.601444   2.109882
                    6          7
     6  C    0.000000
     7  H    1.067760   0.000000
 Stoichiometry    CH2N4
 Framework group  CS[SG(CH2N4)]
 Deg. of freedom   11
 Full point group                 CS      NOp   2
 Largest Abelian subgroup         CS      NOp   2
 Largest concise Abelian subgroup C1      NOp   1
                         Standard orientation:                         
 ---------------------------------------------------------------------
 Center     Atomic     Atomic              Coordinates (Angstroms)
 Number     Number      Type              X           Y           Z
 ---------------------------------------------------------------------
    1          7             0       -0.716312   -0.901934    0.000000
    2          7             0       -1.095520    0.291420    0.000000
    3          7             0        0.000000    1.038775    0.000000
    4          1             0       -0.061479    2.030994    0.000000
    5          7             0        0.622151   -0.989495    0.000000
    6          6             0        1.052813    0.225779    0.000000
    7          1             0        2.072370    0.542976    0.000000
 ---------------------------------------------------------------------
 Rotational constants (GHZ):     10.9198679     10.7343949      5.4131685
 Isotopes: N-14,N-14,N-14,H-1,N-14,C-12,H-1
 Standard basis: CEP-31G(d) (6D, 10F)
 There are    54 symmetry adapted basis functions of A'  symmetry.
 There are    20 symmetry adapted basis functions of A"  symmetry.
 Crude estimate of integral set expansion from redundant integrals=1.000.
 Integral buffers will be    262144 words long.
 Raffenetti 2 integral format.
 Two-electron integral symmetry is turned on.
    74 basis functions      118 primitive gaussians
    13 alpha electrons       13 beta electrons
       nuclear repulsion energy        88.4010355002 Hartrees.
 One-electron integrals computed using PRISM.
   1 Symmetry operations used in ECPInt.
 ECPInt:  NShTT=     190 NPrTT=     582 LenC2=     191 LenP2D=     561.
 LDataN:  DoStor=F MaxTD1= 4 Len=   56
 LDataN:  DoStor=T MaxTD1= 4 Len=   56
 NBasis=    74 RedAO= T  NBF=    54    20
 NBsUse=    74 1.00D-04 NBFU=    54    20
 Projected Huckel Guess.
 Initial guess orbital symmetries:
       Occupied  (A') (A') (A') (A') (A') (A') (A") (A') (A") (A')
                 (A") (A') (A')
       Virtual   (A") (A") (A') (A') (A') (A') (A') (A') (A') (A')
                 (A') (A') (A') (A') (A') (A') (A') (A') (A') (A')
                 (A') (A') (A') (A') (A') (A') (A') (A') (A') (A')
                 (A') (A') (A') (A') (A') (A') (A') (A') (A') (A')
                 (A') (A') (A') (A') (A') (A') (A") (A") (A") (A")
                 (A") (A") (A") (A") (A") (A") (A") (A") (A") (A")
                 (A")
 Requested convergence on RMS density matrix=1.00D-08 within  64 cycles.
 Requested convergence on MAX density matrix=1.00D-06.
 Keep R1 and R2 integrals in memory in canonical form, NReq=     8156181.
 Integral accuracy reduced to 1.0D-05 until final iterations.
 Problem detected with inexpensive integrals.
 Switching to full accuracy and repeating last cycle.
 SCF Done:  E(RB+HF-LYP) =  -46.3933314169     A.U. after   15 cycles
             Convg  =    0.3172D-08             -V/T =  2.3201
             S**2   =   0.0000

 **********************************************************************

            Population analysis using the SCF density.

 **********************************************************************

 Orbital Symmetries:
       Occupied  (A') (A') (A') (A') (A') (A') (A") (A') (A') (A")
                 (A") (A') (A')
       Virtual   (A") (A") (A') (A') (A') (A') (A') (A') (A") (A')
                 (A') (A') (A") (A') (A") (A') (A') (A') (A") (A')
                 (A") (A') (A') (A') (A') (A') (A') (A") (A") (A")
                 (A') (A") (A") (A') (A') (A') (A') (A') (A') (A")
                 (A') (A") (A") (A') (A") (A') (A') (A") (A') (A')
                 (A') (A') (A') (A') (A') (A') (A') (A') (A') (A')
                 (A')
  The electronic state is 1-A'.
 Alpha  occ. eigenvalues --   -1.18087  -0.96903  -0.91919  -0.69635  -0.68128
 Alpha  occ. eigenvalues --   -0.61330  -0.51671  -0.51198  -0.39032  -0.34235
 Alpha  occ. eigenvalues --   -0.32114  -0.30666  -0.29010
 Alpha virt. eigenvalues --   -0.01707   0.01994   0.06842   0.12524   0.14731
 Alpha virt. eigenvalues --    0.17479   0.23645   0.26863   0.27778   0.32383
 Alpha virt. eigenvalues --    0.35357   0.45201   0.45849   0.48686   0.48816
 Alpha virt. eigenvalues --    0.49496   0.52308   0.54252   0.58331   0.60753
 Alpha virt. eigenvalues --    0.61805   0.67866   0.74088   0.82357   0.88493
 Alpha virt. eigenvalues --    1.03716   1.18499   1.24038   1.29979   1.35071
 Alpha virt. eigenvalues --    1.53276   1.53462   1.56489   1.57290   1.68245
 Alpha virt. eigenvalues --    1.72924   1.88376   1.89765   2.01731   2.15839
 Alpha virt. eigenvalues --    2.18694   2.20066   2.30830   2.34223   2.39993
 Alpha virt. eigenvalues --    2.44188   2.49189   2.63674   2.76919   2.90955
 Alpha virt. eigenvalues --    2.96326   3.11705   3.34956   3.42658   3.45626
 Alpha virt. eigenvalues --    3.84135   4.17756   4.89928   5.48279   6.01227
 Alpha virt. eigenvalues --    6.80604
          Condensed to atoms (all electrons):
              1          2          3          4          5          6
  1  N    4.658353   0.232972  -0.039605   0.014461   0.228927  -0.003561
  2  N    0.232972   4.790366   0.147128  -0.030414  -0.007258  -0.066207
  3  N   -0.039605   0.147128   4.384611   0.251361  -0.158290   0.365969
  4  H    0.014461  -0.030414   0.251361   0.446051   0.007343  -0.050842
  5  N    0.228927  -0.007258  -0.158290   0.007343   4.304492   0.477770
  6  C   -0.003561  -0.066207   0.365969  -0.050842   0.477770   3.633986
  7  H    0.006160  -0.000750  -0.032510   0.001303  -0.023298   0.384746
              7
  1  N    0.006160
  2  N   -0.000750
  3  N   -0.032510
  4  H    0.001303
  5  N   -0.023298
  6  C    0.384746
  7  H    0.371333
 Total atomic charges:
              1
  1  N   -0.097706
  2  N   -0.065837
  3  N    0.081337
  4  H    0.360737
  5  N    0.170314
  6  C   -0.741861
  7  H    0.293016
 Sum of Mulliken charges=   0.00000
 Atomic charges with hydrogens summed into heavy atoms:
              1
  1  N   -0.097706
  2  N   -0.065837
  3  N    0.442073
  4  H    0.000000
  5  N    0.170314
  6  C   -0.448845
  7  H    0.000000
 Sum of Mulliken charges=   0.00000
 Electronic spatial extent (au):  <R**2>=   199.6070
 Charge=     0.0000 electrons
 Dipole moment (Debye):
    X=     2.5090    Y=     4.8355    Z=     0.0000  Tot=     5.4476
 Quadrupole moment (Debye-Ang):
   XX=   -28.7693   YY=   -26.2556   ZZ=   -27.8567
   XY=     1.8002   XZ=     0.0000   YZ=     0.0000
 Octapole moment (Debye-Ang**2):
  XXX=    12.0905  YYY=    22.1984  ZZZ=     0.0000  XYY=    -0.5758
  XXY=     4.7718  XXZ=     0.0000  XZZ=    -0.8075  YZZ=     0.6133
  YYZ=     0.0000  XYZ=     0.0000
 Hexadecapole moment (Debye-Ang**3):
 XXXX=  -138.6831 YYYY=  -118.0673 ZZZZ=   -25.7099 XXXY=     6.9194
 XXXZ=     0.0000 YYYX=    -0.4478 YYYZ=     0.0000 ZZZX=     0.0000
 ZZZY=     0.0000 XXYY=   -52.4616 XXZZ=   -29.8928 YYZZ=   -28.0892
 XXYZ=     0.0000 YYXZ=     0.0000 ZZXY=    -0.0524
 N-N= 8.840103550019D+01 E-N=-2.819943233612D+02  KE= 3.514316827466D+01
 Symmetry A'   KE= 2.585689680239D+01
 Symmetry A"   KE= 9.286271472265D+00
   2 Symmetry operations used in ECPInt.
 ECPInt:  NShTT=     190 NPrTT=     582 LenC2=     191 LenP2D=     561.
 LDataN:  DoStor=F MaxTD1= 5 Len=  102
 LDataN:  DoStor=T MaxTD1= 5 Len=  102
 ***** Axes restored to original set *****
 -------------------------------------------------------------------
 Center     Atomic                   Forces (Hartrees/Bohr)
 Number     Number              X              Y              Z
 -------------------------------------------------------------------
    1          7          -0.055999956   -0.043899102    0.000000000
    2          7          -0.015773031    0.073551858    0.000000000
    3          7           0.022413374    0.013994264    0.000000000
    4          1           0.012970063    0.019765523    0.000000000
    5          7          -0.013114685   -0.053089972    0.000000000
    6          6           0.034714623   -0.004371326    0.000000000
    7          1           0.014789612   -0.005951244    0.000000000
 -------------------------------------------------------------------
 Cartesian Forces:  Max     0.073551858 RMS     0.027986214

 GradGradGradGradGradGradGradGradGradGradGradGradGradGradGradGradGradGrad
 Berny optimization.
 Internal  Forces:  Max     0.072858837 RMS     0.022953538
 Search for a local minimum.
 Step number   1 out of a maximum of  36
 All quantities printed in internal units (Hartrees-Bohrs-Radians)
 Second derivative matrix not updated -- first step.
     Eigenvalues ---    0.02505   0.02639   0.02674   0.02834   0.16000
     Eigenvalues ---    0.16000   0.22605   0.24688   0.37515   0.48737
     Eigenvalues ---    0.50885   0.56605   0.58506   0.66912   0.78894
     Eigenvalues --- 1000.000001000.000001000.000001000.000001000.00000
     Eigenvalues --- 1000.000001000.000001000.000001000.000001000.00000
     Eigenvalues --- 1000.00000
 RFO step:  Lambda=-1.97849226D-02.
 Linear search not attempted -- first point.
 Iteration  1 RMS(Cart)=  0.03667013 RMS(Int)=  0.00006087
 Iteration  2 RMS(Cart)=  0.00004087 RMS(Int)=  0.00003835
 Iteration  3 RMS(Cart)=  0.00000000 RMS(Int)=  0.00003835
 Variable       Old X    -DE/DX   Delta X   Delta X   Delta X     New X
                                 (Linear)    (Quad)   (Total)
    R1        2.36623   0.07286   0.00000   0.08866   0.08872   2.45495
    R2        2.53474   0.03759   0.00000   0.06565   0.06568   2.60041
    R3        2.50608   0.04295   0.00000   0.06918   0.06919   2.57527
    R4        1.87862   0.02363   0.00000   0.04659   0.04659   1.92521
    R5        2.51367   0.04018   0.00000   0.06238   0.06233   2.57600
    R6        2.43647   0.05133   0.00000   0.06918   0.06914   2.50561
    R7        2.01777   0.01594   0.00000   0.04037   0.04037   2.05814
    A1        1.94380  -0.00446   0.00000  -0.00427  -0.00417   1.93962
    A2        1.86179  -0.00301   0.00000  -0.00215  -0.00208   1.85971
    A3        2.10759  -0.00157   0.00000  -0.00397  -0.00394   2.10365
    A4        1.88535   0.00162   0.00000  -0.00055  -0.00060   1.88476
    A5        2.29025  -0.00005   0.00000   0.00451   0.00454   2.29478
    A6        1.84604   0.00095   0.00000  -0.00041  -0.00044   1.84560
    A7        1.88780   0.00491   0.00000   0.00738   0.00729   1.89509
    A8        2.18241  -0.00234   0.00000  -0.00305  -0.00301   2.17940
    A9        2.21298  -0.00257   0.00000  -0.00433  -0.00429   2.20870
    D1        0.00000   0.00000   0.00000   0.00000   0.00000   0.00000
    D2        0.00000   0.00000   0.00000   0.00000   0.00000   0.00000
    D3        3.14159   0.00000   0.00000   0.00000   0.00000   3.14159
    D4        0.00000   0.00000   0.00000   0.00000   0.00000   0.00000
    D5        0.00000   0.00000   0.00000   0.00000   0.00000   0.00000
    D6        3.14159   0.00000   0.00000   0.00000   0.00000   3.14159
    D7        3.14159   0.00000   0.00000   0.00000   0.00000   3.14159
    D8        0.00000   0.00000   0.00000   0.00000   0.00000   0.00000
    D9        0.00000   0.00000   0.00000   0.00000   0.00000   0.00000
   D10        3.14159   0.00000   0.00000   0.00000   0.00000   3.14159
         Item               Value     Threshold  Converged?
 Maximum Force            0.072859     0.000450     NO 
 RMS     Force            0.022954     0.000300     NO 
 Maximum Displacement     0.081487     0.001800     NO 
 RMS     Displacement     0.036666     0.001200     NO 
 Predicted change in Energy=-9.601186D-03
 GradGradGradGradGradGradGradGradGradGradGradGradGradGradGradGradGradGrad

                          Input orientation:                          
 ---------------------------------------------------------------------
 Center     Atomic     Atomic              Coordinates (Angstroms)
 Number     Number      Type              X           Y           Z
 ---------------------------------------------------------------------
    1          7             0       -1.166414   -0.271415    0.000000
    2          7             0       -0.697008    0.939917    0.000000
    3          7             0        0.661322    0.829950    0.000000
    4          1             0        1.247973    1.662862    0.000000
    5          7             0       -0.148852   -1.197785    0.000000
    6          6             0        0.976310   -0.496320    0.000000
    7          1             0        1.989577   -0.895664    0.000000
 ---------------------------------------------------------------------
                    Distance matrix (angstroms):
                    1          2          3          4          5
     1  N    0.000000
     2  N    1.299102   0.000000
     3  N    2.133922   1.362774   0.000000
     4  H    3.093654   2.074994   1.018775   0.000000
     5  N    1.376079   2.206863   2.183596   3.183461   0.000000
     6  C    2.154495   2.205168   1.363161   2.176205   1.325913
     7  H    3.217136   3.253781   2.177614   2.663838   2.159666
                    6          7
     6  C    0.000000
     7  H    1.089121   0.000000
 Stoichiometry    CH2N4
 Framework group  CS[SG(CH2N4)]
 Deg. of freedom   11
 Full point group                 CS      NOp   2
 Largest Abelian subgroup         CS      NOp   2
 Largest concise Abelian subgroup C1      NOp   1
                         Standard orientation:                         
 ---------------------------------------------------------------------
 Center     Atomic     Atomic              Coordinates (Angstroms)
 Number     Number      Type              X           Y           Z
 ---------------------------------------------------------------------
    1          7             0       -0.752351   -0.953557    0.000000
    2          7             0       -1.134364    0.288109    0.000000
    3          7             0        0.000000    1.043339    0.000000
    4          1             0       -0.055532    2.060599    0.000000
    5          7             0        0.620324   -1.050292    0.000000
    6          6             0        1.068939    0.197422    0.000000
    7          1             0        2.111725    0.511719    0.000000
 ---------------------------------------------------------------------
 Rotational constants (GHZ):     10.3060339     10.1679405      5.1182607
 Isotopes: N-14,N-14,N-14,H-1,N-14,C-12,H-1
 Standard basis: CEP-31G(d) (6D, 10F)
 There are    54 symmetry adapted basis functions of A'  symmetry.
 There are    20 symmetry adapted basis functions of A"  symmetry.
 Crude estimate of integral set expansion from redundant integrals=1.000.
 Integral buffers will be    262144 words long.
 Raffenetti 2 integral format.
 Two-electron integral symmetry is turned on.
    74 basis functions      118 primitive gaussians
    13 alpha electrons       13 beta electrons
       nuclear repulsion energy        85.9649560006 Hartrees.
 One-electron integrals computed using PRISM.
   1 Symmetry operations used in ECPInt.
 ECPInt:  NShTT=     190 NPrTT=     582 LenC2=     191 LenP2D=     560.
 LDataN:  DoStor=F MaxTD1= 4 Len=   56
 LDataN:  DoStor=T MaxTD1= 4 Len=   56
 NBasis=    74 RedAO= T  NBF=    54    20
 NBsUse=    74 1.00D-04 NBFU=    54    20
 Initial guess read from the read-write file:
 Initial guess orbital symmetries:
       Occupied  (A') (A') (A') (A') (A') (A') (A") (A') (A') (A")
                 (A") (A') (A')
       Virtual   (A") (A") (A') (A') (A') (A') (A') (A') (A") (A')
                 (A') (A') (A") (A') (A") (A') (A') (A') (A") (A')
                 (A") (A') (A') (A') (A') (A') (A') (A") (A") (A")
                 (A') (A") (A") (A') (A') (A') (A') (A') (A') (A")
                 (A') (A") (A") (A') (A") (A') (A') (A") (A') (A')
                 (A') (A') (A') (A') (A') (A') (A') (A') (A') (A')
                 (A')
 Requested convergence on RMS density matrix=1.00D-08 within  64 cycles.
 Requested convergence on MAX density matrix=1.00D-06.
 Keep R1 and R2 integrals in memory in canonical form, NReq=     8156181.
 Integral accuracy reduced to 1.0D-05 until final iterations.
 Initial convergence to 1.0D-05 achieved.  Increase integral accuracy.
 SCF Done:  E(RB+HF-LYP) =  -46.4034608059     A.U. after   14 cycles
             Convg  =    0.4658D-08             -V/T =  2.3440
             S**2   =   0.0000
   2 Symmetry operations used in ECPInt.
 ECPInt:  NShTT=     190 NPrTT=     582 LenC2=     191 LenP2D=     560.
 LDataN:  DoStor=F MaxTD1= 5 Len=  102
 LDataN:  DoStor=T MaxTD1= 5 Len=  102
 ***** Axes restored to original set *****
 -------------------------------------------------------------------
 Center     Atomic                   Forces (Hartrees/Bohr)
 Number     Number              X              Y              Z
 -------------------------------------------------------------------
    1          7          -0.002416110   -0.004854305    0.000000000
    2          7          -0.003652361    0.012467023    0.000000000
    3          7           0.003108504   -0.004973726    0.000000000
    4          1          -0.000364154    0.000239243    0.000000000
    5          7           0.002171317   -0.004399114    0.000000000
    6          6           0.001587712    0.001464637    0.000000000
    7          1          -0.000434909    0.000056242    0.000000000
 -------------------------------------------------------------------
 Cartesian Forces:  Max     0.012467023 RMS     0.003530034

 GradGradGradGradGradGradGradGradGradGradGradGradGradGradGradGradGradGrad
 Berny optimization.
 Internal  Forces:  Max     0.007658956 RMS     0.002303926
 Search for a local minimum.
 Step number   2 out of a maximum of  36
 All quantities printed in internal units (Hartrees-Bohrs-Radians)
 Update second derivatives using information from points  1  2
 Trust test= 1.06D+00 RLast= 1.72D-01 DXMaxT set to 4.24D-01
     Eigenvalues ---    0.02506   0.02639   0.02676   0.02834   0.15994
     Eigenvalues ---    0.16000   0.22614   0.24578   0.37749   0.49010
     Eigenvalues ---    0.51014   0.55928   0.58599   0.67885   0.76078
     Eigenvalues --- 1000.000001000.000001000.000001000.000001000.00000
     Eigenvalues --- 1000.000001000.000001000.000001000.000001000.00000
     Eigenvalues --- 1000.00000
 RFO step:  Lambda=-2.56161431D-04.
 Quartic linear search produced a step of  0.07809.
 Iteration  1 RMS(Cart)=  0.00566846 RMS(Int)=  0.00003819
 Iteration  2 RMS(Cart)=  0.00003708 RMS(Int)=  0.00001537
 Iteration  3 RMS(Cart)=  0.00000000 RMS(Int)=  0.00001537
 Variable       Old X    -DE/DX   Delta X   Delta X   Delta X     New X
                                 (Linear)    (Quad)   (Total)
    R1        2.45495   0.00766   0.00693   0.00564   0.01259   2.46753
    R2        2.60041   0.00380   0.00513   0.00416   0.00928   2.60970
    R3        2.57527   0.00423   0.00540   0.00376   0.00918   2.58445
    R4        1.92521  -0.00001   0.00364  -0.00258   0.00105   1.92626
    R5        2.57600  -0.00011   0.00487  -0.00483   0.00003   2.57603
    R6        2.50561   0.00060   0.00540  -0.00378   0.00160   2.50721
    R7        2.05814  -0.00042   0.00315  -0.00331  -0.00016   2.05799
    A1        1.93962   0.00163  -0.00033   0.01167   0.01136   1.95098
    A2        1.85971  -0.00502  -0.00016  -0.01827  -0.01838   1.84133
    A3        2.10365  -0.00205  -0.00031  -0.00918  -0.00949   2.09415
    A4        1.88476   0.00327  -0.00005   0.01298   0.01294   1.89770
    A5        2.29478  -0.00121   0.00035  -0.00380  -0.00345   2.29134
    A6        1.84560  -0.00084  -0.00003  -0.00549  -0.00556   1.84003
    A7        1.89509   0.00098   0.00057  -0.00089  -0.00035   1.89474
    A8        2.17940  -0.00038  -0.00023   0.00115   0.00093   2.18033
    A9        2.20870  -0.00060  -0.00033  -0.00026  -0.00058   2.20812
    D1        0.00000   0.00000   0.00000   0.00000   0.00000   0.00000
    D2        0.00000   0.00000   0.00000   0.00000   0.00000   0.00000
    D3        3.14159   0.00000   0.00000   0.00000   0.00000   3.14159
    D4        0.00000   0.00000   0.00000   0.00000   0.00000   0.00000
    D5        0.00000   0.00000   0.00000   0.00000   0.00000   0.00000
    D6        3.14159   0.00000   0.00000   0.00000   0.00000   3.14159
    D7        3.14159   0.00000   0.00000   0.00000   0.00000   3.14159
    D8        0.00000   0.00000   0.00000   0.00000   0.00000   0.00000
    D9        0.00000   0.00000   0.00000   0.00000   0.00000   0.00000
   D10        3.14159   0.00000   0.00000   0.00000   0.00000   3.14159
         Item               Value     Threshold  Converged?
 Maximum Force            0.007659     0.000450     NO 
 RMS     Force            0.002304     0.000300     NO 
 Maximum Displacement     0.021469     0.001800     NO 
 RMS     Displacement     0.005677     0.001200     NO 
 Predicted change in Energy=-1.845408D-04
 GradGradGradGradGradGradGradGradGradGradGradGradGradGradGradGradGradGrad

                          Input orientation:                          
 ---------------------------------------------------------------------
 Center     Atomic     Atomic              Coordinates (Angstroms)
 Number     Number      Type              X           Y           Z
 ---------------------------------------------------------------------
    1          7             0       -1.179344   -0.281093    0.000000
    2          7             0       -0.717608    0.940307    0.000000
    3          7             0        0.644379    0.816159    0.000000
    4          1             0        1.231872    1.649161    0.000000
    5          7             0       -0.161030   -1.213926    0.000000
    6          6             0        0.963112   -0.509233    0.000000
    7          1             0        1.977057   -0.906628    0.000000
 ---------------------------------------------------------------------
                    Distance matrix (angstroms):
                    1          2          3          4          5
     1  N    0.000000
     2  N    1.305763   0.000000
     3  N    2.128362   1.367633   0.000000
     4  H    3.088663   2.074354   1.019333   0.000000
     5  N    1.380992   2.224971   2.184016   3.183934   0.000000
     6  C    2.154569   2.219457   1.363179   2.175062   1.326758
     7  H    3.217788   3.266862   2.178079   2.662209   2.160057
                    6          7
     6  C    0.000000
     7  H    1.089039   0.000000
 Stoichiometry    CH2N4
 Framework group  CS[SG(CH2N4)]
 Deg. of freedom   11
 Full point group                 CS      NOp   2
 Largest Abelian subgroup         CS      NOp   2
 Largest concise Abelian subgroup C1      NOp   1
                         Standard orientation:                         
 ---------------------------------------------------------------------
 Center     Atomic     Atomic              Coordinates (Angstroms)
 Number     Number      Type              X           Y           Z
 ---------------------------------------------------------------------
    1          7             0       -0.750469   -0.952018    0.000000
    2          7             0       -1.145540    0.292545    0.000000
    3          7             0        0.000000    1.039646    0.000000
    4          1             0       -0.055580    2.057462    0.000000
    5          7             0        0.626865   -1.052475    0.000000
    6          6             0        1.071878    0.197426    0.000000
    7          1             0        2.113784    0.514343    0.000000
 ---------------------------------------------------------------------
 Rotational constants (GHZ):     10.3311888     10.0513808      5.0946821
 Isotopes: N-14,N-14,N-14,H-1,N-14,C-12,H-1
 Standard basis: CEP-31G(d) (6D, 10F)
 There are    54 symmetry adapted basis functions of A'  symmetry.
 There are    20 symmetry adapted basis functions of A"  symmetry.
 Crude estimate of integral set expansion from redundant integrals=1.000.
 Integral buffers will be    262144 words long.
 Raffenetti 2 integral format.
 Two-electron integral symmetry is turned on.
    74 basis functions      118 primitive gaussians
    13 alpha electrons       13 beta electrons
       nuclear repulsion energy        85.7714059304 Hartrees.
 One-electron integrals computed using PRISM.
   1 Symmetry operations used in ECPInt.
 ECPInt:  NShTT=     190 NPrTT=     582 LenC2=     191 LenP2D=     560.
 LDataN:  DoStor=F MaxTD1= 4 Len=   56
 LDataN:  DoStor=T MaxTD1= 4 Len=   56
 NBasis=    74 RedAO= T  NBF=    54    20
 NBsUse=    74 1.00D-04 NBFU=    54    20
 Initial guess read from the read-write file:
 Initial guess orbital symmetries:
       Occupied  (A') (A') (A') (A') (A') (A') (A') (A") (A') (A")
                 (A") (A') (A')
       Virtual   (A") (A") (A') (A') (A') (A') (A') (A') (A") (A')
                 (A') (A') (A') (A") (A') (A") (A') (A') (A') (A")
                 (A") (A') (A') (A') (A') (A') (A') (A") (A") (A")
                 (A") (A") (A') (A') (A') (A') (A') (A') (A') (A")
                 (A') (A") (A") (A') (A") (A') (A') (A") (A') (A')
                 (A') (A') (A') (A') (A') (A') (A') (A') (A') (A')
                 (A')
 Requested convergence on RMS density matrix=1.00D-08 within  64 cycles.
 Requested convergence on MAX density matrix=1.00D-06.
 Keep R1 and R2 integrals in memory in canonical form, NReq=     8156181.
 Integral accuracy reduced to 1.0D-05 until final iterations.
 Initial convergence to 1.0D-05 achieved.  Increase integral accuracy.
 SCF Done:  E(RB+HF-LYP) =  -46.4035680052     A.U. after   13 cycles
             Convg  =    0.2833D-08             -V/T =  2.3460
             S**2   =   0.0000
   2 Symmetry operations used in ECPInt.
 ECPInt:  NShTT=     190 NPrTT=     582 LenC2=     191 LenP2D=     560.
 LDataN:  DoStor=F MaxTD1= 5 Len=  102
 LDataN:  DoStor=T MaxTD1= 5 Len=  102
 ***** Axes restored to original set *****
 -------------------------------------------------------------------
 Center     Atomic                   Forces (Hartrees/Bohr)
 Number     Number              X              Y              Z
 -------------------------------------------------------------------
    1          7          -0.004007905   -0.002738005    0.000000000
    2          7           0.001967157   -0.002075262    0.000000000
    3          7           0.003547071    0.000284763    0.000000000
    4          1           0.000140835   -0.000385235    0.000000000
    5          7          -0.000721680    0.001755961    0.000000000
    6          6          -0.000687628    0.002824580    0.000000000
    7          1          -0.000237848    0.000333199    0.000000000
 -------------------------------------------------------------------
 Cartesian Forces:  Max     0.004007905 RMS     0.001644476

 GradGradGradGradGradGradGradGradGradGradGradGradGradGradGradGradGradGrad
 Berny optimization.
 Internal  Forces:  Max     0.003923518 RMS     0.001443013
 Search for a local minimum.
 Step number   3 out of a maximum of  36
 All quantities printed in internal units (Hartrees-Bohrs-Radians)
 Update second derivatives using information from points  1  2  3
 Trust test= 5.81D-01 RLast= 3.32D-02 DXMaxT set to 4.24D-01
     Eigenvalues ---    0.02507   0.02638   0.02674   0.02833   0.15986
     Eigenvalues ---    0.16044   0.23010   0.37716   0.38825   0.40464
     Eigenvalues ---    0.49175   0.52382   0.63115   0.69238   0.71862
     Eigenvalues --- 1000.000001000.000001000.000001000.000001000.00000
     Eigenvalues --- 1000.000001000.000001000.000001000.000001000.00000
     Eigenvalues --- 1000.00000
 RFO step:  Lambda=-6.87348666D-05.
 Quartic linear search produced a step of -0.28122.
 Iteration  1 RMS(Cart)=  0.00320040 RMS(Int)=  0.00000843
 Iteration  2 RMS(Cart)=  0.00000585 RMS(Int)=  0.00000470
 Iteration  3 RMS(Cart)=  0.00000000 RMS(Int)=  0.00000470
 Variable       Old X    -DE/DX   Delta X   Delta X   Delta X     New X
                                 (Linear)    (Quad)   (Total)
    R1        2.46753   0.00155  -0.00354   0.00723   0.00368   2.47122
    R2        2.60970  -0.00103  -0.00261   0.00288   0.00027   2.60997
    R3        2.58445   0.00108  -0.00258   0.00547   0.00288   2.58733
    R4        1.92626  -0.00023  -0.00030  -0.00005  -0.00035   1.92591
    R5        2.57603  -0.00308  -0.00001  -0.00416  -0.00417   2.57186
    R6        2.50721   0.00153  -0.00045   0.00202   0.00157   2.50878
    R7        2.05799  -0.00034   0.00004  -0.00096  -0.00091   2.05707
    A1        1.95098  -0.00392  -0.00319  -0.00539  -0.00858   1.94240
    A2        1.84133   0.00328   0.00517   0.00188   0.00703   1.84836
    A3        2.09415   0.00136   0.00267   0.00065   0.00333   2.09748
    A4        1.89770  -0.00208  -0.00364  -0.00107  -0.00472   1.89298
    A5        2.29134   0.00072   0.00097   0.00042   0.00139   2.29273
    A6        1.84003   0.00183   0.00156   0.00250   0.00408   1.84411
    A7        1.89474   0.00090   0.00010   0.00208   0.00218   1.89692
    A8        2.18033  -0.00068  -0.00026  -0.00177  -0.00203   2.17830
    A9        2.20812  -0.00021   0.00016  -0.00031  -0.00015   2.20797
    D1        0.00000   0.00000   0.00000   0.00000   0.00000   0.00000
    D2        0.00000   0.00000   0.00000   0.00000   0.00000   0.00000
    D3        3.14159   0.00000   0.00000   0.00000   0.00000   3.14159
    D4        0.00000   0.00000   0.00000   0.00000   0.00000   0.00000
    D5        0.00000   0.00000   0.00000   0.00000   0.00000   0.00000
    D6        3.14159   0.00000   0.00000   0.00000   0.00000   3.14159
    D7        3.14159   0.00000   0.00000   0.00000   0.00000   3.14159
    D8        0.00000   0.00000   0.00000   0.00000   0.00000   0.00000
    D9        0.00000   0.00000   0.00000   0.00000   0.00000   0.00000
   D10        3.14159   0.00000   0.00000   0.00000   0.00000   3.14159
         Item               Value     Threshold  Converged?
 Maximum Force            0.003924     0.000450     NO 
 RMS     Force            0.001443     0.000300     NO 
 Maximum Displacement     0.009431     0.001800     NO 
 RMS     Displacement     0.003201     0.001200     NO 
 Predicted change in Energy=-5.370358D-05
 GradGradGradGradGradGradGradGradGradGradGradGradGradGradGradGradGradGrad

                          Input orientation:                          
 ---------------------------------------------------------------------
 Center     Atomic     Atomic              Coordinates (Angstroms)
 Number     Number      Type              X           Y           Z
 ---------------------------------------------------------------------
    1          7             0       -1.184079   -0.284488    0.000000
    2          7             0       -0.716375    0.936727    0.000000
    3          7             0        0.647460    0.816145    0.000000
    4          1             0        1.235354    1.648638    0.000000
    5          7             0       -0.161695   -1.213071    0.000000
    6          6             0        0.963027   -0.507735    0.000000
    7          1             0        1.976532   -0.904927    0.000000
 ---------------------------------------------------------------------
                    Distance matrix (angstroms):
                    1          2          3          4          5
     1  N    0.000000
     2  N    1.307713   0.000000
     3  N    2.136803   1.369156   0.000000
     4  H    3.096875   2.077515   1.019149   0.000000
     5  N    1.381136   2.220203   2.184594   3.184513   0.000000
     6  C    2.158681   2.215144   1.360971   2.173501   1.327591
     7  H    3.220933   3.262429   2.174516   2.658954   2.160317
                    6          7
     6  C    0.000000
     7  H    1.088556   0.000000
 Stoichiometry    CH2N4
 Framework group  CS[SG(CH2N4)]
 Deg. of freedom   11
 Full point group                 CS      NOp   2
 Largest Abelian subgroup         CS      NOp   2
 Largest concise Abelian subgroup C1      NOp   1
                         Standard orientation:                         
 ---------------------------------------------------------------------
 Center     Atomic     Atomic              Coordinates (Angstroms)
 Number     Number      Type              X           Y           Z
 ---------------------------------------------------------------------
    1          7             0       -0.750762   -0.958248    0.000000
    2          7             0       -1.143372    0.289138    0.000000
    3          7             0        0.000000    1.042323    0.000000
    4          1             0       -0.056854    2.059885    0.000000
    5          7             0        0.627305   -1.050268    0.000000
    6          6             0        1.070032    0.201328    0.000000
    7          1             0        2.110873    0.520080    0.000000
 ---------------------------------------------------------------------
 Rotational constants (GHZ):     10.2719532     10.0938779      5.0910685
 Isotopes: N-14,N-14,N-14,H-1,N-14,C-12,H-1
 Standard basis: CEP-31G(d) (6D, 10F)
 There are    54 symmetry adapted basis functions of A'  symmetry.
 There are    20 symmetry adapted basis functions of A"  symmetry.
 Crude estimate of integral set expansion from redundant integrals=1.000.
 Integral buffers will be    262144 words long.
 Raffenetti 2 integral format.
 Two-electron integral symmetry is turned on.
    74 basis functions      118 primitive gaussians
    13 alpha electrons       13 beta electrons
       nuclear repulsion energy        85.7387304993 Hartrees.
 One-electron integrals computed using PRISM.
   1 Symmetry operations used in ECPInt.
 ECPInt:  NShTT=     190 NPrTT=     582 LenC2=     191 LenP2D=     560.
 LDataN:  DoStor=F MaxTD1= 4 Len=   56
 LDataN:  DoStor=T MaxTD1= 4 Len=   56
 NBasis=    74 RedAO= T  NBF=    54    20
 NBsUse=    74 1.00D-04 NBFU=    54    20
 Initial guess read from the read-write file:
 Initial guess orbital symmetries:
       Occupied  (A') (A') (A') (A') (A') (A') (A') (A") (A') (A")
                 (A") (A') (A')
       Virtual   (A") (A") (A') (A') (A') (A') (A') (A') (A") (A')
                 (A') (A') (A') (A") (A') (A") (A') (A') (A') (A")
                 (A") (A') (A') (A') (A') (A') (A') (A") (A") (A")
                 (A") (A") (A') (A') (A') (A') (A') (A') (A') (A')
                 (A") (A") (A') (A") (A") (A') (A') (A") (A') (A')
                 (A') (A') (A') (A') (A') (A') (A') (A') (A') (A')
                 (A')
 Requested convergence on RMS density matrix=1.00D-08 within  64 cycles.
 Requested convergence on MAX density matrix=1.00D-06.
 Keep R1 and R2 integrals in memory in canonical form, NReq=     8156181.
 SCF Done:  E(RB+HF-LYP) =  -46.4036135208     A.U. after   10 cycles
             Convg  =    0.4384D-08             -V/T =  2.3462
             S**2   =   0.0000
   2 Symmetry operations used in ECPInt.
 ECPInt:  NShTT=     190 NPrTT=     582 LenC2=     191 LenP2D=     560.
 LDataN:  DoStor=F MaxTD1= 5 Len=  102
 LDataN:  DoStor=T MaxTD1= 5 Len=  102
 ***** Axes restored to original set *****
 -------------------------------------------------------------------
 Center     Atomic                   Forces (Hartrees/Bohr)
 Number     Number              X              Y              Z
 -------------------------------------------------------------------
    1          7           0.001827681    0.000033194    0.000000000
    2          7          -0.000063679   -0.000078631    0.000000000
    3          7          -0.000240389   -0.000681513    0.000000000
    4          1          -0.000176803   -0.000102986    0.000000000
    5          7          -0.000428729    0.000199422    0.000000000
    6          6          -0.000896397    0.000748237    0.000000000
    7          1          -0.000021684   -0.000117721    0.000000000
 -------------------------------------------------------------------
 Cartesian Forces:  Max     0.001827681 RMS     0.000512564

 GradGradGradGradGradGradGradGradGradGradGradGradGradGradGradGradGradGrad
 Berny optimization.
 Internal  Forces:  Max     0.001015101 RMS     0.000385575
 Search for a local minimum.
 Step number   4 out of a maximum of  36
 All quantities printed in internal units (Hartrees-Bohrs-Radians)
 Update second derivatives using information from points  1  2  3  4
 Trust test= 8.48D-01 RLast= 1.51D-02 DXMaxT set to 4.24D-01
     Eigenvalues ---    0.02506   0.02638   0.02676   0.02834   0.15995
     Eigenvalues ---    0.16061   0.22720   0.37636   0.38486   0.48689
     Eigenvalues ---    0.51460   0.52216   0.59410   0.70059   0.71969
     Eigenvalues --- 1000.000001000.000001000.000001000.000001000.00000
     Eigenvalues --- 1000.000001000.000001000.000001000.000001000.00000
     Eigenvalues --- 1000.00000
 RFO step:  Lambda=-5.15053195D-06.
 Quartic linear search produced a step of -0.12944.
 Iteration  1 RMS(Cart)=  0.00076151 RMS(Int)=  0.00000040
 Iteration  2 RMS(Cart)=  0.00000033 RMS(Int)=  0.00000016
 Variable       Old X    -DE/DX   Delta X   Delta X   Delta X     New X
                                 (Linear)    (Quad)   (Total)
    R1        2.47122  -0.00055  -0.00048  -0.00027  -0.00075   2.47047
    R2        2.60997  -0.00102  -0.00004  -0.00171  -0.00174   2.60822
    R3        2.58733  -0.00063  -0.00037  -0.00058  -0.00095   2.58638
    R4        1.92591  -0.00019   0.00004  -0.00040  -0.00036   1.92556
    R5        2.57186  -0.00058   0.00054  -0.00156  -0.00102   2.57084
    R6        2.50878  -0.00053  -0.00020  -0.00039  -0.00059   2.50819
    R7        2.05707   0.00002   0.00012  -0.00010   0.00002   2.05709
    A1        1.94240   0.00081   0.00111   0.00061   0.00172   1.94412
    A2        1.84836  -0.00057  -0.00091   0.00001  -0.00090   1.84746
    A3        2.09748  -0.00012  -0.00043   0.00029  -0.00014   2.09734
    A4        1.89298   0.00007   0.00061  -0.00093  -0.00032   1.89266
    A5        2.29273   0.00005  -0.00018   0.00064   0.00046   2.29318
    A6        1.84411  -0.00058  -0.00053  -0.00110  -0.00163   1.84248
    A7        1.89692   0.00027  -0.00028   0.00141   0.00112   1.89804
    A8        2.17830  -0.00002   0.00026  -0.00029  -0.00003   2.17827
    A9        2.20797  -0.00025   0.00002  -0.00111  -0.00109   2.20688
    D1        0.00000   0.00000   0.00000   0.00000   0.00000   0.00000
    D2        0.00000   0.00000   0.00000   0.00000   0.00000   0.00000
    D3        3.14159   0.00000   0.00000   0.00000   0.00000   3.14159
    D4        0.00000   0.00000   0.00000   0.00000   0.00000   0.00000
    D5        0.00000   0.00000   0.00000   0.00000   0.00000   0.00000
    D6        3.14159   0.00000   0.00000   0.00000   0.00000   3.14159
    D7        3.14159   0.00000   0.00000   0.00000   0.00000   3.14159
    D8        0.00000   0.00000   0.00000   0.00000   0.00000   0.00000
    D9        0.00000   0.00000   0.00000   0.00000   0.00000   0.00000
   D10        3.14159   0.00000   0.00000   0.00000   0.00000   3.14159
         Item               Value     Threshold  Converged?
 Maximum Force            0.001015     0.000450     NO 
 RMS     Force            0.000386     0.000300     NO 
 Maximum Displacement     0.002951     0.001800     NO 
 RMS     Displacement     0.000762     0.001200     YES
 Predicted change in Energy=-3.605108D-06
 GradGradGradGradGradGradGradGradGradGradGradGradGradGradGradGradGradGrad

                          Input orientation:                          
 ---------------------------------------------------------------------
 Center     Atomic     Atomic              Coordinates (Angstroms)
 Number     Number      Type              X           Y           Z
 ---------------------------------------------------------------------
    1          7             0       -1.182154   -0.284098    0.000000
    2          7             0       -0.715627    0.937145    0.000000
    3          7             0        0.647702    0.816538    0.000000
    4          1             0        1.235414    1.648930    0.000000
    5          7             0       -0.161265   -1.212954    0.000000
    6          6             0        0.962659   -0.506933    0.000000
    7          1             0        1.976041   -0.904469    0.000000
 ---------------------------------------------------------------------
                    Distance matrix (angstroms):
                    1          2          3          4          5
     1  N    0.000000
     2  N    1.307318   0.000000
     3  N    2.135362   1.368653   0.000000
     4  H    3.095356   2.076824   1.018961   0.000000
     5  N    1.380213   2.220415   2.184781   3.184508   0.000000
     6  C    2.156357   2.214047   1.360432   2.173049   1.327279
     7  H    3.218549   3.261382   2.174017   2.658641   2.159454
                    6          7
     6  C    0.000000
     7  H    1.088567   0.000000
 Stoichiometry    CH2N4
 Framework group  CS[SG(CH2N4)]
 Deg. of freedom   11
 Full point group                 CS      NOp   2
 Largest Abelian subgroup         CS      NOp   2
 Largest concise Abelian subgroup C1      NOp   1
                         Standard orientation:                         
 ---------------------------------------------------------------------
 Center     Atomic     Atomic              Coordinates (Angstroms)
 Number     Number      Type              X           Y           Z
 ---------------------------------------------------------------------
    1          7             0       -0.749920   -0.957238    0.000000
    2          7             0       -1.143170    0.289532    0.000000
    3          7             0        0.000000    1.042110    0.000000
    4          1             0       -0.056690    2.059492    0.000000
    5          7             0        0.627123   -1.050732    0.000000
    6          6             0        1.069098    0.200798    0.000000
    7          1             0        2.110133    0.518957    0.000000
 ---------------------------------------------------------------------
 Rotational constants (GHZ):     10.2860975     10.0955641      5.0949701
 Isotopes: N-14,N-14,N-14,H-1,N-14,C-12,H-1
 Standard basis: CEP-31G(d) (6D, 10F)
 There are    54 symmetry adapted basis functions of A'  symmetry.
 There are    20 symmetry adapted basis functions of A"  symmetry.
 Crude estimate of integral set expansion from redundant integrals=1.000.
 Integral buffers will be    262144 words long.
 Raffenetti 2 integral format.
 Two-electron integral symmetry is turned on.
    74 basis functions      118 primitive gaussians
    13 alpha electrons       13 beta electrons
       nuclear repulsion energy        85.7706064750 Hartrees.
 One-electron integrals computed using PRISM.
   1 Symmetry operations used in ECPInt.
 ECPInt:  NShTT=     190 NPrTT=     582 LenC2=     191 LenP2D=     560.
 LDataN:  DoStor=F MaxTD1= 4 Len=   56
 LDataN:  DoStor=T MaxTD1= 4 Len=   56
 NBasis=    74 RedAO= T  NBF=    54    20
 NBsUse=    74 1.00D-04 NBFU=    54    20
 Initial guess read from the read-write file:
 Initial guess orbital symmetries:
       Occupied  (A') (A') (A') (A') (A') (A') (A') (A") (A') (A")
                 (A") (A') (A')
       Virtual   (A") (A") (A') (A') (A') (A') (A') (A') (A") (A')
                 (A') (A') (A') (A") (A') (A") (A') (A') (A') (A")
                 (A") (A') (A') (A') (A') (A') (A') (A") (A") (A")
                 (A") (A") (A') (A') (A') (A') (A') (A') (A') (A')
                 (A") (A") (A') (A") (A") (A') (A') (A") (A') (A')
                 (A') (A') (A') (A') (A') (A') (A') (A') (A') (A')
                 (A')
 Requested convergence on RMS density matrix=1.00D-08 within  64 cycles.
 Requested convergence on MAX density matrix=1.00D-06.
 Keep R1 and R2 integrals in memory in canonical form, NReq=     8156181.
 SCF Done:  E(RB+HF-LYP) =  -46.4036172418     A.U. after    9 cycles
             Convg  =    0.3657D-08             -V/T =  2.3460
             S**2   =   0.0000
   2 Symmetry operations used in ECPInt.
 ECPInt:  NShTT=     190 NPrTT=     582 LenC2=     191 LenP2D=     560.
 LDataN:  DoStor=F MaxTD1= 5 Len=  102
 LDataN:  DoStor=T MaxTD1= 5 Len=  102
 ***** Axes restored to original set *****
 -------------------------------------------------------------------
 Center     Atomic                   Forces (Hartrees/Bohr)
 Number     Number              X              Y              Z
 -------------------------------------------------------------------
    1          7           0.000234988   -0.000167667    0.000000000
    2          7          -0.000182419    0.000028589    0.000000000
    3          7           0.000025328   -0.000461592    0.000000000
    4          1          -0.000018467   -0.000019540    0.000000000
    5          7          -0.000298031    0.000385776    0.000000000
    6          6           0.000217846    0.000290612    0.000000000
    7          1           0.000020754   -0.000056178    0.000000000
 -------------------------------------------------------------------
 Cartesian Forces:  Max     0.000461592 RMS     0.000183225

 GradGradGradGradGradGradGradGradGradGradGradGradGradGradGradGradGradGrad
 Berny optimization.
 Internal  Forces:  Max     0.000319131 RMS     0.000116342
 Search for a local minimum.
 Step number   5 out of a maximum of  36
 All quantities printed in internal units (Hartrees-Bohrs-Radians)
 Update second derivatives using information from points  1  2  3  4  5

 Trust test= 1.03D+00 RLast= 3.90D-03 DXMaxT set to 4.24D-01
     Eigenvalues ---    0.02507   0.02638   0.02676   0.02834   0.15766
     Eigenvalues ---    0.16007   0.28823   0.34495   0.37831   0.45053
     Eigenvalues ---    0.49035   0.52695   0.55325   0.69973   0.75657
     Eigenvalues --- 1000.000001000.000001000.000001000.000001000.00000
     Eigenvalues --- 1000.000001000.000001000.000001000.000001000.00000
     Eigenvalues --- 1000.00000
 RFO step:  Lambda=-9.76981903D-07.
 Quartic linear search produced a step of  0.03057.
 Iteration  1 RMS(Cart)=  0.00030597 RMS(Int)=  0.00000006
 Iteration  2 RMS(Cart)=  0.00000007 RMS(Int)=  0.00000000
 Variable       Old X    -DE/DX   Delta X   Delta X   Delta X     New X
                                 (Linear)    (Quad)   (Total)
    R1        2.47047  -0.00011  -0.00002  -0.00016  -0.00018   2.47029
    R2        2.60822  -0.00031  -0.00005  -0.00078  -0.00084   2.60739
    R3        2.58638   0.00013  -0.00003   0.00017   0.00014   2.58652
    R4        1.92556  -0.00003  -0.00001  -0.00010  -0.00011   1.92545
    R5        2.57084  -0.00032  -0.00003  -0.00074  -0.00077   2.57008
    R6        2.50819   0.00004  -0.00002   0.00002   0.00000   2.50820
    R7        2.05709   0.00004   0.00000   0.00012   0.00012   2.05721
    A1        1.94412  -0.00003   0.00005  -0.00006   0.00000   1.94412
    A2        1.84746  -0.00010  -0.00003  -0.00041  -0.00043   1.84703
    A3        2.09734  -0.00007   0.00000  -0.00035  -0.00035   2.09698
    A4        1.89266   0.00013  -0.00001   0.00055   0.00054   1.89320
    A5        2.29318  -0.00006   0.00001  -0.00020  -0.00018   2.29300
    A6        1.84248   0.00018  -0.00005   0.00055   0.00050   1.84299
    A7        1.89804  -0.00018   0.00003  -0.00064  -0.00061   1.89744
    A8        2.17827   0.00013   0.00000   0.00066   0.00066   2.17892
    A9        2.20688   0.00005  -0.00003  -0.00002  -0.00005   2.20682
    D1        0.00000   0.00000   0.00000   0.00000   0.00000   0.00000
    D2        0.00000   0.00000   0.00000   0.00000   0.00000   0.00000
    D3        3.14159   0.00000   0.00000   0.00000   0.00000   3.14159
    D4        0.00000   0.00000   0.00000   0.00000   0.00000   0.00000
    D5        0.00000   0.00000   0.00000   0.00000   0.00000   0.00000
    D6        3.14159   0.00000   0.00000   0.00000   0.00000   3.14159
    D7        3.14159   0.00000   0.00000   0.00000   0.00000   3.14159
    D8        0.00000   0.00000   0.00000   0.00000   0.00000   0.00000
    D9        0.00000   0.00000   0.00000   0.00000   0.00000   0.00000
   D10        3.14159   0.00000   0.00000   0.00000   0.00000   3.14159
         Item               Value     Threshold  Converged?
 Maximum Force            0.000319     0.000450     YES
 RMS     Force            0.000116     0.000300     YES
 Maximum Displacement     0.000998     0.001800     YES
 RMS     Displacement     0.000306     0.001200     YES
 Predicted change in Energy=-4.917531D-07
 Optimization completed.
    -- Stationary point found.
                         ----------------------------
                         !   Optimized Parameters   !
                         ! (Angstroms and Degrees)  !
 ------------------------                            -------------------------
 ! Name  Definition              Value          Derivative Info.             !
 -----------------------------------------------------------------------------
 ! R1    R(1,2)                  1.3073         -DE/DX =   -0.0001           !
 ! R2    R(1,5)                  1.3802         -DE/DX =   -0.0003           !
 ! R3    R(2,3)                  1.3687         -DE/DX =    0.0001           !
 ! R4    R(3,4)                  1.019          -DE/DX =    0.               !
 ! R5    R(3,6)                  1.3604         -DE/DX =   -0.0003           !
 ! R6    R(5,6)                  1.3273         -DE/DX =    0.               !
 ! R7    R(6,7)                  1.0886         -DE/DX =    0.               !
 ! A1    A(2,1,5)              111.3901         -DE/DX =    0.               !
 ! A2    A(1,2,3)              105.8519         -DE/DX =   -0.0001           !
 ! A3    A(2,3,4)              120.1686         -DE/DX =   -0.0001           !
 ! A4    A(2,3,6)              108.4416         -DE/DX =    0.0001           !
 ! A5    A(4,3,6)              131.3898         -DE/DX =   -0.0001           !
 ! A6    A(1,5,6)              105.5665         -DE/DX =    0.0002           !
 ! A7    A(3,6,5)              108.7499         -DE/DX =   -0.0002           !
 ! A8    A(3,6,7)              124.8055         -DE/DX =    0.0001           !
 ! A9    A(5,6,7)              126.4446         -DE/DX =    0.               !
 ! D1    D(5,1,2,3)              0.             -DE/DX =    0.               !
 ! D2    D(2,1,5,6)              0.             -DE/DX =    0.               !
 ! D3    D(1,2,3,4)            180.             -DE/DX =    0.               !
 ! D4    D(1,2,3,6)              0.             -DE/DX =    0.               !
 ! D5    D(2,3,6,5)              0.             -DE/DX =    0.               !
 ! D6    D(2,3,6,7)            180.             -DE/DX =    0.               !
 ! D7    D(4,3,6,5)            180.             -DE/DX =    0.               !
 ! D8    D(4,3,6,7)              0.             -DE/DX =    0.               !
 ! D9    D(1,5,6,3)              0.             -DE/DX =    0.               !
 ! D10   D(1,5,6,7)            180.             -DE/DX =    0.               !
 -----------------------------------------------------------------------------
 GradGradGradGradGradGradGradGradGradGradGradGradGradGradGradGradGradGrad

                          Input orientation:                          
 ---------------------------------------------------------------------
 Center     Atomic     Atomic              Coordinates (Angstroms)
 Number     Number      Type              X           Y           Z
 ---------------------------------------------------------------------
    1          7             0       -1.182360   -0.284093    0.000000
    2          7             0       -0.715833    0.937149    0.000000
    3          7             0        0.647495    0.816543    0.000000
    4          1             0        1.235207    1.648935    0.000000
    5          7             0       -0.161472   -1.212950    0.000000
    6          6             0        0.962452   -0.506929    0.000000
    7          1             0        1.975835   -0.904464    0.000000
 ---------------------------------------------------------------------
                    Distance matrix (angstroms):
                    1          2          3          4          5
     1  N    0.000000
     2  N    1.307318   0.000000
     3  N    2.135362   1.368653   0.000000
     4  H    3.095356   2.076824   1.018961   0.000000
     5  N    1.380213   2.220415   2.184781   3.184508   0.000000
     6  C    2.156357   2.214047   1.360432   2.173049   1.327279
     7  H    3.218549   3.261382   2.174017   2.658641   2.159454
                    6          7
     6  C    0.000000
     7  H    1.088567   0.000000
 Stoichiometry    CH2N4
 Framework group  CS[SG(CH2N4)]
 Deg. of freedom   11
 Full point group                 CS      NOp   2
 Largest Abelian subgroup         CS      NOp   2
 Largest concise Abelian subgroup C1      NOp   1
                         Standard orientation:                         
 ---------------------------------------------------------------------
 Center     Atomic     Atomic              Coordinates (Angstroms)
 Number     Number      Type              X           Y           Z
 ---------------------------------------------------------------------
    1          7             0       -0.749920   -0.957238    0.000000
    2          7             0       -1.143170    0.289532    0.000000
    3          7             0        0.000000    1.042110    0.000000
    4          1             0       -0.056690    2.059492    0.000000
    5          7             0        0.627123   -1.050732    0.000000
    6          6             0        1.069098    0.200798    0.000000
    7          1             0        2.110133    0.518957    0.000000
 ---------------------------------------------------------------------
 Rotational constants (GHZ):     10.2860975     10.0955641      5.0949701
 Isotopes: N-14,N-14,N-14,H-1,N-14,C-12,H-1

 **********************************************************************

            Population analysis using the SCF density.

 **********************************************************************

 Orbital Symmetries:
       Occupied  (A') (A') (A') (A') (A') (A') (A') (A") (A') (A")
                 (A") (A') (A')
       Virtual   (A") (A") (A') (A') (A') (A') (A') (A') (A") (A')
                 (A') (A') (A') (A") (A') (A") (A') (A') (A') (A")
                 (A") (A') (A') (A') (A') (A') (A') (A") (A") (A")
                 (A") (A") (A') (A') (A') (A') (A') (A') (A') (A')
                 (A") (A") (A') (A") (A") (A') (A') (A") (A') (A')
                 (A') (A') (A') (A') (A') (A') (A') (A') (A') (A')
                 (A')
  The electronic state is 1-A'.
 Alpha  occ. eigenvalues --   -1.14309  -0.95266  -0.90178  -0.68651  -0.66815
 Alpha  occ. eigenvalues --   -0.60006  -0.50372  -0.49660  -0.38628  -0.33682
 Alpha  occ. eigenvalues --   -0.31488  -0.31283  -0.30118
 Alpha virt. eigenvalues --   -0.03344   0.00320   0.05836   0.11555   0.13773
 Alpha virt. eigenvalues --    0.15360   0.23267   0.25608   0.28123   0.30675
 Alpha virt. eigenvalues --    0.32619   0.45461   0.45981   0.46243   0.48738
 Alpha virt. eigenvalues --    0.49202   0.52053   0.52317   0.55402   0.57886
 Alpha virt. eigenvalues --    0.61293   0.66808   0.73171   0.80947   0.87484
 Alpha virt. eigenvalues --    1.01706   1.15216   1.25668   1.29173   1.34278
 Alpha virt. eigenvalues --    1.50939   1.54383   1.54710   1.57463   1.67413
 Alpha virt. eigenvalues --    1.73671   1.84122   1.86223   1.95584   2.12981
 Alpha virt. eigenvalues --    2.13381   2.17062   2.26585   2.27386   2.35077
 Alpha virt. eigenvalues --    2.38412   2.48820   2.56052   2.76143   2.83090
 Alpha virt. eigenvalues --    2.85439   2.99771   3.29849   3.33481   3.51807
 Alpha virt. eigenvalues --    3.73206   4.13591   4.66451   5.13816   5.65450
 Alpha virt. eigenvalues --    6.41228
          Condensed to atoms (all electrons):
              1          2          3          4          5          6
  1  N    4.716015   0.207621  -0.036016   0.011625   0.214174  -0.016502
  2  N    0.207621   4.826967   0.141100  -0.023264  -0.006006  -0.081869
  3  N   -0.036016   0.141100   4.451709   0.246476  -0.144089   0.367021
  4  H    0.011625  -0.023264   0.246476   0.433770   0.006322  -0.039292
  5  N    0.214174  -0.006006  -0.144089   0.006322   4.370440   0.467265
  6  C   -0.016502  -0.081869   0.367021  -0.039292   0.467265   3.513805
  7  H    0.005241   0.000214  -0.029061   0.001261  -0.019948   0.381800
              7
  1  N    0.005241
  2  N    0.000214
  3  N   -0.029061
  4  H    0.001261
  5  N   -0.019948
  6  C    0.381800
  7  H    0.379143
 Total atomic charges:
              1
  1  N   -0.102160
  2  N   -0.064764
  3  N    0.002859
  4  H    0.363102
  5  N    0.111841
  6  C   -0.592229
  7  H    0.281351
 Sum of Mulliken charges=   0.00000
 Atomic charges with hydrogens summed into heavy atoms:
              1
  1  N   -0.102160
  2  N   -0.064764
  3  N    0.365961
  4  H    0.000000
  5  N    0.111841
  6  C   -0.310878
  7  H    0.000000
 Sum of Mulliken charges=   0.00000
 Electronic spatial extent (au):  <R**2>=   208.4353
 Charge=     0.0000 electrons
 Dipole moment (Debye):
    X=     2.6116    Y=     4.8379    Z=     0.0000  Tot=     5.4977
 Quadrupole moment (Debye-Ang):
   XX=   -28.7630   YY=   -26.4918   ZZ=   -28.3440
   XY=     1.7968   XZ=     0.0000   YZ=     0.0000
 Octapole moment (Debye-Ang**2):
  XXX=    13.8902  YYY=    25.3761  ZZZ=     0.0000  XYY=    -0.3168
  XXY=     5.6056  XXZ=     0.0000  XZZ=    -0.4664  YZZ=     1.3222
  YYZ=     0.0000  XYZ=     0.0000
 Hexadecapole moment (Debye-Ang**3):
 XXXX=  -145.2275 YYYY=  -126.1277 ZZZZ=   -26.5811 XXXY=     7.1349
 XXXZ=     0.0000 YYYX=    -0.2888 YYYZ=     0.0000 ZZZX=     0.0000
 ZZZY=     0.0000 XXYY=   -55.6164 XXZZ=   -31.4993 YYZZ=   -29.8097
 XXYZ=     0.0000 YYXZ=     0.0000 ZZXY=    -0.0072
 N-N= 8.577060647503D+01 E-N=-2.764370198994D+02  KE= 3.447629723319D+01
 Symmetry A'   KE= 2.527830677156D+01
 Symmetry A"   KE= 9.197990461628D+00
 1\1\GINC-INDIUM\FOpt\RB3LYP\CEP-31G(d)\C1H2N4\RDJ3\12-Sep-2000\0\\#B3L
 YP/CEP-31G* OPT FREQ\\1H tetrazole c CH-NH-N=N-N= casno=288948\\0,1\N,
 -1.1823603567,-0.2840933748,0.\N,-0.7158331654,0.9371492455,0.\N,0.647
 4952304,0.8165427968,0.\H,1.2352072014,1.6489345031,0.\N,-0.1614716986
 ,-1.2129495643,0.\C,0.9624520564,-0.5069289532,0.\H,1.9758345245,-0.90
 44642062,0.\\Version=IBM-RS6000-G98RevA.6\State=1-A'\HF=-46.4036172\RM
 SD=3.657e-09\RMSF=1.832e-04\Dipole=1.9876686,0.8529687,0.\PG=CS [SG(C1
 H2N4)]\\@


 The mind is not a vessel to be filled but a fire to be kindled.
                                  -- Plutarch
 Job cpu time:  0 days  0 hours  5 minutes 47.6 seconds.
 File lengths (MBytes):  RWF=   12 Int=    0 D2E=    0 Chk=    8 Scr=    1
 Normal termination of Gaussian 98.
 Link1:  Proceeding to internal job step number  2.
 ----------------------------------------------------
 #N Geom=AllCheck Guess=TCheck RB3LYP/CEP-31G(d) Freq
 ----------------------------------------------------
 1/10=4,29=7,30=1,38=1/1,3;
 2//2;
 3/5=9,6=1,7=1,11=2,16=1,25=1,30=1/1,2,3;
 4/5=101,7=1,11=1/1;
 5/5=2,42=-5/2;
 8/6=4,11=11/1;
 11/6=1,8=1,9=11,15=111,16=11/1,2,10;
 10/6=1/2;
 6/7=2,8=2,9=2,10=2,18=1,28=1/1;
 7/8=1,10=1,25=1/1,2,3,16;
 1/10=4,30=1/3;
 99//99;
 ----------------------------------------
 1H tetrazole c CH-NH-N=N-N= casno=288948
 ----------------------------------------
 Redundant internal coordinates taken from checkpointfile:
 /wrk/rdj3/Gau-15764.chk
 Charge =  0 Multiplicity = 1
 N,0,-1.1823603567,-0.2840933748,0.
 N,0,-0.7158331654,0.9371492455,0.
 N,0,0.6474952304,0.8165427968,0.
 H,0,1.2352072014,1.6489345031,0.
 N,0,-0.1614716986,-1.2129495643,0.
 C,0,0.9624520564,-0.5069289532,0.
 H,0,1.9758345245,-0.9044642062,0.
 Recover connectivity data from disk.

 GradGradGradGradGradGradGradGradGradGradGradGradGradGradGradGradGradGrad
 Berny optimization.
 Initialization pass.
                         ----------------------------
                         !    Initial Parameters    !
                         ! (Angstroms and Degrees)  !
 ------------------------                            -------------------------
 ! Name  Definition              Value          Derivative Info.             !
 -----------------------------------------------------------------------------
 ! R1    R(1,2)                  1.3073         calculate D2E/DX2 analyticall!
 ! R2    R(1,5)                  1.3802         calculate D2E/DX2 analyticall!
 ! R3    R(2,3)                  1.3687         calculate D2E/DX2 analyticall!
 ! R4    R(3,4)                  1.019          calculate D2E/DX2 analyticall!
 ! R5    R(3,6)                  1.3604         calculate D2E/DX2 analyticall!
 ! R6    R(5,6)                  1.3273         calculate D2E/DX2 analyticall!
 ! R7    R(6,7)                  1.0886         calculate D2E/DX2 analyticall!
 ! A1    A(2,1,5)              111.3901         calculate D2E/DX2 analyticall!
 ! A2    A(1,2,3)              105.8519         calculate D2E/DX2 analyticall!
 ! A3    A(2,3,4)              120.1686         calculate D2E/DX2 analyticall!
 ! A4    A(2,3,6)              108.4416         calculate D2E/DX2 analyticall!
 ! A5    A(4,3,6)              131.3898         calculate D2E/DX2 analyticall!
 ! A6    A(1,5,6)              105.5665         calculate D2E/DX2 analyticall!
 ! A7    A(3,6,5)              108.7499         calculate D2E/DX2 analyticall!
 ! A8    A(3,6,7)              124.8055         calculate D2E/DX2 analyticall!
 ! A9    A(5,6,7)              126.4446         calculate D2E/DX2 analyticall!
 ! D1    D(5,1,2,3)              0.             calculate D2E/DX2 analyticall!
 ! D2    D(2,1,5,6)              0.             calculate D2E/DX2 analyticall!
 ! D3    D(1,2,3,4)            180.             calculate D2E/DX2 analyticall!
 ! D4    D(1,2,3,6)              0.             calculate D2E/DX2 analyticall!
 ! D5    D(2,3,6,5)              0.             calculate D2E/DX2 analyticall!
 ! D6    D(2,3,6,7)            180.             calculate D2E/DX2 analyticall!
 ! D7    D(4,3,6,5)            180.             calculate D2E/DX2 analyticall!
 ! D8    D(4,3,6,7)              0.             calculate D2E/DX2 analyticall!
 ! D9    D(1,5,6,3)              0.             calculate D2E/DX2 analyticall!
 ! D10   D(1,5,6,7)            180.             calculate D2E/DX2 analyticall!
 -----------------------------------------------------------------------------
 Trust Radius=3.00D-01 FncErr=1.00D-07 GrdErr=1.00D-07
 Number of steps in this run=  36 maximum allowed number of steps= 100.
 GradGradGradGradGradGradGradGradGradGradGradGradGradGradGradGradGradGrad

                          Input orientation:                          
 ---------------------------------------------------------------------
 Center     Atomic     Atomic              Coordinates (Angstroms)
 Number     Number      Type              X           Y           Z
 ---------------------------------------------------------------------
    1          7             0       -1.182360   -0.284093    0.000000
    2          7             0       -0.715833    0.937149    0.000000
    3          7             0        0.647495    0.816543    0.000000
    4          1             0        1.235207    1.648935    0.000000
    5          7             0       -0.161472   -1.212950    0.000000
    6          6             0        0.962452   -0.506929    0.000000
    7          1             0        1.975835   -0.904464    0.000000
 ---------------------------------------------------------------------
                    Distance matrix (angstroms):
                    1          2          3          4          5
     1  N    0.000000
     2  N    1.307318   0.000000
     3  N    2.135362   1.368653   0.000000
     4  H    3.095356   2.076824   1.018961   0.000000
     5  N    1.380213   2.220415   2.184781   3.184508   0.000000
     6  C    2.156357   2.214047   1.360432   2.173049   1.327279
     7  H    3.218549   3.261382   2.174017   2.658641   2.159454
                    6          7
     6  C    0.000000
     7  H    1.088567   0.000000
                           Interatomic angles:
       N1-N2-N3=105.8519       N1-N2-H4=130.9505       N1-N3-H4=156.2505
       N2-N3-H4=120.1686       N2-N1-N5=111.3901       N3-N1-N5= 73.3239
       N2-N3-N5= 73.323        H4-N2-N5= 95.5854       H4-N3-N5=166.5084
       N2-N1-C6= 75.0241       N1-N3-C6= 72.3597       N2-N3-C6=108.4416
       N1-C6-H4= 91.2792       N2-H4-C6= 62.7462       H4-N3-C6=131.3898
       N1-N5-C6=105.5665       N2-C6-N5= 72.8463       N3-C6-N5=108.7499
       H4-C6-N5=129.3466       N1-N3-H7= 96.6359       N2-N3-H7=132.7178
       N2-H4-H7= 86.1319       H4-N3-H7=107.1136       N1-N5-H7=129.4895
       N2-N5-H7= 96.2447       N3-H7-N5= 60.5507       H4-H7-N5= 82.0379
       N1-C6-H7=164.5121       N2-C6-H7=160.7091       N3-C6-H7=124.8055
       H4-C6-H7=104.2087       N5-C6-H7=126.4446
 Stoichiometry    CH2N4
 Framework group  CS[SG(CH2N4)]
 Deg. of freedom   11
 Full point group                 CS      NOp   2
 Largest Abelian subgroup         CS      NOp   2
 Largest concise Abelian subgroup C1      NOp   1
                         Standard orientation:                         
 ---------------------------------------------------------------------
 Center     Atomic     Atomic              Coordinates (Angstroms)
 Number     Number      Type              X           Y           Z
 ---------------------------------------------------------------------
    1          7             0       -0.749920   -0.957238    0.000000
    2          7             0       -1.143170    0.289532    0.000000
    3          7             0        0.000000    1.042110    0.000000
    4          1             0       -0.056690    2.059492    0.000000
    5          7             0        0.627123   -1.050732    0.000000
    6          6             0        1.069098    0.200798    0.000000
    7          1             0        2.110133    0.518957    0.000000
 ---------------------------------------------------------------------
 Rotational constants (GHZ):     10.2860975     10.0955641      5.0949701
 Isotopes: N-14,N-14,N-14,H-1,N-14,C-12,H-1
 Standard basis: CEP-31G(d) (6D, 10F)
 There are    54 symmetry adapted basis functions of A'  symmetry.
 There are    20 symmetry adapted basis functions of A"  symmetry.
 Crude estimate of integral set expansion from redundant integrals=1.000.
 Integral buffers will be    262144 words long.
 Raffenetti 2 integral format.
 Two-electron integral symmetry is turned on.
    74 basis functions      118 primitive gaussians
    13 alpha electrons       13 beta electrons
       nuclear repulsion energy        85.7706064750 Hartrees.
 One-electron integrals computed using PRISM.
   1 Symmetry operations used in ECPInt.
 ECPInt:  NShTT=     190 NPrTT=     582 LenC2=     191 LenP2D=     560.
 LDataN:  DoStor=F MaxTD1= 4 Len=   56
 LDataN:  DoStor=T MaxTD1= 4 Len=   56
 NBasis=    74 RedAO= T  NBF=    54    20
 NBsUse=    74 1.00D-04 NBFU=    54    20
 Initial guess read from the checkpoint file:
 /wrk/rdj3/Gau-15764.chk
 Initial guess orbital symmetries:
       Occupied  (A') (A') (A') (A') (A') (A') (A') (A") (A') (A")
                 (A") (A') (A')
       Virtual   (A") (A") (A') (A') (A') (A') (A') (A') (A") (A')
                 (A') (A') (A') (A") (A') (A") (A') (A') (A') (A")
                 (A") (A') (A') (A') (A') (A') (A') (A") (A") (A")
                 (A") (A") (A') (A') (A') (A') (A') (A') (A') (A')
                 (A") (A") (A') (A") (A") (A') (A') (A") (A') (A')
                 (A') (A') (A') (A') (A') (A') (A') (A') (A') (A')
                 (A')
 Requested convergence on RMS density matrix=1.00D-08 within  64 cycles.
 Requested convergence on MAX density matrix=1.00D-06.
 Keep R1 and R2 integrals in memory in canonical form, NReq=     8156181.
 SCF Done:  E(RB+HF-LYP) =  -46.4036172418     A.U. after    1 cycles
             Convg  =    0.3254D-08             -V/T =  2.3460
             S**2   =   0.0000
 Range of M.O.s used for correlation:     1    74
 NBasis=    74 NAE=    13 NBE=    13 NFC=     0 NFV=     0
 NROrb=     74 NOA=    13 NOB=    13 NVA=    61 NVB=    61

 **** Warning!!: The largest alpha MO coefficient is  0.10329330D+02

   2 Symmetry operations used in ECPInt.
 ECPInt:  NShTT=     190 NPrTT=     582 LenC2=     191 LenP2D=     560.
 LDataN:  DoStor=F MaxTD1= 5 Len=  102
 LDataN:  DoStor=T MaxTD1= 5 Len=  102
 G2DrvN: will do    7 atoms at a time, making    1 passes doing MaxLOS=2.
 FoFDir used for L=0 through L=2.
          Differentiating once with respect to electric field.
                with respect to dipole field.
          Differentiating once with respect to nuclear coordinates.
          Store integrals in memory, NReq=     8143796.
          There are  24 degrees of freedom in the 1st order CPHF.
  24 vectors were produced by pass  0.
 AX will form  24 AO Fock derivatives at one time.
  21 vectors were produced by pass  1.
  21 vectors were produced by pass  2.
  21 vectors were produced by pass  3.
  21 vectors were produced by pass  4.
  21 vectors were produced by pass  5.
   7 vectors were produced by pass  6.
   3 vectors were produced by pass  7.
 Inv2:  IOpt= 1 Iter= 1 AM= 1.76D-15 Conv= 1.00D-12.
 Inverted reduced A of dimension 139 with in-core refinement.

 **********************************************************************

            Population analysis using the SCF density.

 **********************************************************************

 Orbital Symmetries:
       Occupied  (A') (A') (A') (A') (A') (A') (A') (A") (A') (A")
                 (A") (A') (A')
       Virtual   (A") (A") (A') (A') (A') (A') (A') (A') (A") (A')
                 (A') (A') (A') (A") (A') (A") (A') (A') (A') (A")
                 (A") (A') (A') (A') (A') (A') (A') (A") (A") (A")
                 (A") (A") (A') (A') (A') (A') (A') (A') (A') (A')
                 (A") (A") (A') (A") (A") (A') (A') (A") (A') (A')
                 (A') (A') (A') (A') (A') (A') (A') (A') (A') (A')
                 (A')
  The electronic state is 1-A'.
 Alpha  occ. eigenvalues --   -1.14309  -0.95266  -0.90178  -0.68651  -0.66815
 Alpha  occ. eigenvalues --   -0.60006  -0.50372  -0.49660  -0.38628  -0.33682
 Alpha  occ. eigenvalues --   -0.31488  -0.31283  -0.30118
 Alpha virt. eigenvalues --   -0.03344   0.00320   0.05836   0.11555   0.13773
 Alpha virt. eigenvalues --    0.15360   0.23267   0.25608   0.28123   0.30675
 Alpha virt. eigenvalues --    0.32619   0.45461   0.45981   0.46243   0.48738
 Alpha virt. eigenvalues --    0.49202   0.52053   0.52317   0.55402   0.57886
[...]
   1   7     0.00   0.00   0.01     0.00   0.00   0.04     0.00   0.00   0.47
   2   7     0.00   0.00  -0.09     0.00   0.00   0.09     0.00   0.00  -0.40
   3   7     0.00   0.00   0.22     0.00   0.00  -0.09     0.00   0.00   0.11
   4   1     0.00   0.00  -0.94     0.00   0.00  -0.82     0.00   0.00   0.70
   5   7     0.00   0.00   0.03     0.00   0.00  -0.17     0.00   0.00  -0.32
   6   6     0.00   0.00  -0.10     0.00   0.00   0.17     0.00   0.00   0.09
   7   1     0.00   0.00  -0.23     0.00   0.00   0.51     0.00   0.00   0.09
                     4                      5                      6
                    A"                     A'                     A'
 Frequencies --   846.0686               950.1340               988.0937
 Red. masses --     1.3454                 4.7724                 6.4482
 Frc consts  --     0.5674                 2.5384                 3.7093
 IR Inten    --    31.8771                 3.2828                 0.4916
 Raman Activ --     0.0000                 0.0000                 0.0000
 Depolar     --     0.0000                 0.0000                 0.0000
 Atom AN      X      Y      Z        X      Y      Z        X      Y      Z
   1   7     0.00   0.00   0.02    -0.01   0.19   0.00     0.21  -0.07   0.00
   2   7     0.00   0.00   0.00    -0.16   0.14   0.00     0.12  -0.07   0.00
   3   7     0.00   0.00   0.03    -0.10  -0.04   0.00     0.03   0.42   0.00
   4   1     0.00   0.00   0.08     0.45  -0.01   0.00     0.19   0.44   0.00
   5   7     0.00   0.00   0.03     0.35  -0.24   0.00    -0.04  -0.23   0.00
   6   6     0.00   0.00  -0.17    -0.10  -0.11   0.00    -0.37  -0.06   0.00
   7   1     0.00   0.00   0.98    -0.32   0.63   0.00    -0.26  -0.51   0.00
                     7                      8                      9
                    A'                     A'                     A'
 Frequencies --  1035.0189              1059.7785              1131.6047
 Red. masses --     3.6851                 4.7466                 1.8079
 Frc consts  --     2.3260                 3.1410                 1.3640
 IR Inten    --    21.9296                25.6042                17.8964
 Raman Activ --     0.0000                 0.0000                 0.0000
 Depolar     --     0.0000                 0.0000                 0.0000
 Atom AN      X      Y      Z        X      Y      Z        X      Y      Z
   1   7     0.05   0.00   0.00     0.39   0.06   0.00    -0.11  -0.11   0.00
   2   7     0.33   0.18   0.00    -0.14   0.08   0.00     0.07  -0.03   0.00
   3   7    -0.19  -0.12   0.00     0.02  -0.20   0.00     0.13  -0.01   0.00
   4   1    -0.71  -0.15   0.00     0.77  -0.18   0.00     0.47   0.01   0.00
   5   7    -0.07  -0.06   0.00    -0.24   0.03   0.00    -0.02   0.00   0.00
   6   6    -0.07  -0.03   0.00    -0.09   0.04   0.00    -0.08   0.10   0.00
   7   1    -0.23   0.46   0.00    -0.17   0.25   0.00    -0.29   0.80   0.00
                    10                     11                     12
                    A'                     A'                     A'
 Frequencies --  1254.9689              1293.6443              1435.5730
 Red. masses --     2.4279                 9.3796                 3.1626
 Frc consts  --     2.2529                 9.2483                 3.8402
 IR Inten    --     0.7005                22.3710                 7.4027
 Raman Activ --     0.0000                 0.0000                 0.0000
 Depolar     --     0.0000                 0.0000                 0.0000
 Atom AN      X      Y      Z        X      Y      Z        X      Y      Z
   1   7    -0.06  -0.05   0.00    -0.04   0.55   0.00     0.00  -0.03   0.00
   2   7     0.10   0.05   0.00     0.16  -0.47   0.00    -0.08   0.11   0.00
   3   7    -0.06  -0.11   0.00     0.15  -0.12   0.00     0.21  -0.13   0.00
   4   1     0.65  -0.08   0.00    -0.43  -0.19   0.00    -0.73  -0.21   0.00
   5   7     0.12   0.18   0.00    -0.02   0.09   0.00     0.07  -0.10   0.00
   6   6    -0.18  -0.03   0.00    -0.23  -0.06   0.00    -0.17   0.24   0.00
   7   1    -0.01  -0.67   0.00    -0.33   0.14   0.00     0.03  -0.49   0.00
                    13                     14                     15
                    A'                     A'                     A'
 Frequencies --  1496.3627              3279.7830              3646.0393
 Red. masses --     3.5805                 1.1003                 1.0840
 Frc consts  --     4.7235                 6.9735                 8.4906
 IR Inten    --    16.7923                 0.2028                82.6826
 Raman Activ --     0.0000                 0.0000                 0.0000
 Depolar     --     0.0000                 0.0000                 0.0000
 Atom AN      X      Y      Z        X      Y      Z        X      Y      Z
   1   7     0.06  -0.09   0.00     0.00   0.00   0.00     0.00   0.00   0.00
   2   7    -0.10   0.08   0.00     0.00   0.00   0.00     0.00   0.00   0.00
   3   7     0.16   0.04   0.00     0.00   0.00   0.00     0.01  -0.08   0.00
   4   1    -0.69  -0.01   0.00     0.01   0.02   0.00    -0.06   1.00   0.00
   5   7     0.05   0.22   0.00     0.00   0.00   0.00     0.00   0.00   0.00
   6   6    -0.10  -0.31   0.00     0.09   0.03   0.00     0.00   0.00   0.00
   7   1    -0.36   0.41   0.00    -0.95  -0.29   0.00     0.02   0.00   0.00

 -------------------
 - Thermochemistry -
 -------------------
 Temperature   298.150 Kelvin.  Pressure   1.00000 Atm.
 Atom  1 has atomic number  7 and mass  14.00307
 Atom  2 has atomic number  7 and mass  14.00307
 Atom  3 has atomic number  7 and mass  14.00307
 Atom  4 has atomic number  1 and mass   1.00783
 Atom  5 has atomic number  7 and mass  14.00307
 Atom  6 has atomic number  6 and mass  12.00000
 Atom  7 has atomic number  1 and mass   1.00783
 Molecular mass:    70.02795 amu.
 Principal axes and moments of inertia in atomic units:
                           1         2         3
     EIGENVALUES --   175.45441 178.76576 354.22017
           X            0.83197   0.55482   0.00000
           Y           -0.55482   0.83197   0.00000
           Z            0.00000   0.00000   1.00000
 THIS MOLECULE IS AN ASYMMETRIC TOP.
 ROTATIONAL SYMMETRY NUMBER  1.
 ROTATIONAL TEMPERATURES (KELVIN)      0.49365     0.48451     0.24452
 ROTATIONAL CONSTANTS (GHZ)           10.28610    10.09556     5.09497
 Zero-point vibrational energy     121878.3 (Joules/Mol)
                                   29.12961 (Kcal/Mol)
 WARNING-- EXPLICIT CONSIDERATION OF   1 DEGREES OF FREEDOM AS
           VIBRATIONS MAY CAUSE SIGNIFICANT ERROR
 VIBRATIONAL TEMPERATURES:    819.55   972.07  1027.48  1217.30  1367.02
          (KELVIN)           1421.64  1489.15  1524.78  1628.12  1805.61
                             1861.25  2065.46  2152.92  4718.85  5245.81
 
 Zero-point correction=                           0.046421 (Hartree/Particle)
 Thermal correction to Energy=                    0.049930
 Thermal correction to Enthalpy=                  0.050874
 Thermal correction to Gibbs Free Energy=         0.020279
 Sum of electronic and zero-point Energies=            -46.357196
 Sum of electronic and thermal Energies=               -46.353687
 Sum of electronic and thermal Enthalpies=             -46.352743
 Sum of electronic and thermal Free Energies=          -46.383338
 
                     E (Thermal)             CV                S
                      KCAL/MOL        CAL/MOL-KELVIN    CAL/MOL-KELVIN
 TOTAL                   31.332             11.544             64.393
 ELECTRONIC               0.000              0.000              0.000
 TRANSLATIONAL            0.889              2.981             38.656
 ROTATIONAL               0.889              2.981             23.923
 VIBRATIONAL             29.554              5.582              1.814
 VIBRATION  1             0.926              1.097              0.505
                       Q            LOG10(Q)             LN(Q)
 TOTAL BOT       0.470338D-09         -9.327590        -21.477570
 TOTAL V=0       0.105788D+13         12.024436         27.687287
 VIB (BOT)       0.541168D-21        -21.266668        -48.968312
 VIB (BOT)  1    0.270291D+00         -0.568168         -1.308255
 VIB (V=0)       0.121719D+01          0.085358          0.196545
 VIB (V=0)  1    0.106838D+01          0.028726          0.066145
 ELECTRONIC      0.100000D+01          0.000000          0.000000
 TRANSLATIONAL   0.230339D+08          7.362368         16.952478
 ROTATIONAL      0.377320D+05          4.576710         10.538265
 ***** Axes restored to original set *****
 -------------------------------------------------------------------
 Center     Atomic                   Forces (Hartrees/Bohr)
 Number     Number              X              Y              Z
 -------------------------------------------------------------------
    1          7           0.000235020   -0.000167601    0.000000000
    2          7          -0.000182464    0.000028531    0.000000000
    3          7           0.000025321   -0.000461548    0.000000000
    4          1          -0.000018454   -0.000019542    0.000000000
    5          7          -0.000298044    0.000385766    0.000000000
    6          6           0.000217845    0.000290579    0.000000000
    7          1           0.000020777   -0.000056186    0.000000000
 -------------------------------------------------------------------
 Cartesian Forces:  Max     0.000461548 RMS     0.000183218

 GradGradGradGradGradGradGradGradGradGradGradGradGradGradGradGradGradGrad
 Berny optimization.
 Internal  Forces:  Max     0.000319093 RMS     0.000116340
 Search for a local minimum.
 Step number   1 out of a maximum of  36
 All quantities printed in internal units (Hartrees-Bohrs-Radians)
 Second derivative matrix not updated -- analytic derivatives used.
     Eigenvalues ---    0.00800   0.02523   0.06926   0.07490   0.09952
     Eigenvalues ---    0.10387   0.19836   0.24320   0.33996   0.37558
     Eigenvalues ---    0.42811   0.45734   0.47414   0.55837   0.61235
     Eigenvalues --- 1000.000001000.000001000.000001000.000001000.00000
     Eigenvalues --- 1000.000001000.000001000.000001000.000001000.00000
     Eigenvalues --- 1000.00000
 Angle between quadratic step and forces=  26.37 degrees.
 Linear search not attempted -- first point.
 Iteration  1 RMS(Cart)=  0.00034025 RMS(Int)=  0.00000010
 Iteration  2 RMS(Cart)=  0.00000011 RMS(Int)=  0.00000002
 Variable       Old X    -DE/DX   Delta X   Delta X   Delta X     New X
                                 (Linear)    (Quad)   (Total)
    R1        2.47047  -0.00011   0.00000   0.00010   0.00010   2.47057
    R2        2.60822  -0.00031   0.00000  -0.00143  -0.00143   2.60679
    R3        2.58638   0.00013   0.00000   0.00038   0.00038   2.58676
    R4        1.92556  -0.00003   0.00000  -0.00005  -0.00005   1.92551
    R5        2.57084  -0.00032   0.00000  -0.00086  -0.00086   2.56998
    R6        2.50819   0.00004   0.00000   0.00048   0.00048   2.50867
    R7        2.05709   0.00004   0.00000   0.00007   0.00007   2.05716
    A1        1.94412  -0.00003   0.00000   0.00013   0.00013   1.94425
    A2        1.84746  -0.00010   0.00000  -0.00052  -0.00052   1.84694
    A3        2.09734  -0.00007   0.00000  -0.00040  -0.00040   2.09694
    A4        1.89266   0.00013   0.00000   0.00049   0.00049   1.89316
    A5        2.29318  -0.00006   0.00000  -0.00009  -0.00009   2.29309
    A6        1.84248   0.00018   0.00000   0.00055   0.00055   1.84303
    A7        1.89804  -0.00018   0.00000  -0.00065  -0.00065   1.89740
    A8        2.17827   0.00013   0.00000   0.00091   0.00091   2.17918
    A9        2.20688   0.00005   0.00000  -0.00027  -0.00027   2.20661
    D1        0.00000   0.00000   0.00000   0.00000   0.00000   0.00000
    D2        0.00000   0.00000   0.00000   0.00000   0.00000   0.00000
    D3        3.14159   0.00000   0.00000   0.00000   0.00000   3.14159
    D4        0.00000   0.00000   0.00000   0.00000   0.00000   0.00000
    D5        0.00000   0.00000   0.00000   0.00000   0.00000   0.00000
    D6        3.14159   0.00000   0.00000   0.00000   0.00000   3.14159
    D7        3.14159   0.00000   0.00000   0.00000   0.00000   3.14159
    D8        0.00000   0.00000   0.00000   0.00000   0.00000   0.00000
    D9        0.00000   0.00000   0.00000   0.00000   0.00000   0.00000
   D10        3.14159   0.00000   0.00000   0.00000   0.00000   3.14159
         Item               Value     Threshold  Converged?
 Maximum Force            0.000319     0.000450     YES
 RMS     Force            0.000116     0.000300     YES
 Maximum Displacement     0.001038     0.001800     YES
 RMS     Displacement     0.000340     0.001200     YES
 Predicted change in Energy=-6.243183D-07
 Optimization completed.
    -- Stationary point found.
                         ----------------------------
                         !   Optimized Parameters   !
                         ! (Angstroms and Degrees)  !
 ------------------------                            -------------------------
 ! Name  Definition              Value          Derivative Info.             !
 -----------------------------------------------------------------------------
 ! R1    R(1,2)                  1.3073         -DE/DX =   -0.0001           !
 ! R2    R(1,5)                  1.3802         -DE/DX =   -0.0003           !
 ! R3    R(2,3)                  1.3687         -DE/DX =    0.0001           !
 ! R4    R(3,4)                  1.019          -DE/DX =    0.               !
 ! R5    R(3,6)                  1.3604         -DE/DX =   -0.0003           !
 ! R6    R(5,6)                  1.3273         -DE/DX =    0.               !
 ! R7    R(6,7)                  1.0886         -DE/DX =    0.               !
 ! A1    A(2,1,5)              111.3901         -DE/DX =    0.               !
 ! A2    A(1,2,3)              105.8519         -DE/DX =   -0.0001           !
 ! A3    A(2,3,4)              120.1686         -DE/DX =   -0.0001           !
 ! A4    A(2,3,6)              108.4416         -DE/DX =    0.0001           !
 ! A5    A(4,3,6)              131.3898         -DE/DX =   -0.0001           !
 ! A6    A(1,5,6)              105.5665         -DE/DX =    0.0002           !
 ! A7    A(3,6,5)              108.7499         -DE/DX =   -0.0002           !
 ! A8    A(3,6,7)              124.8055         -DE/DX =    0.0001           !
 ! A9    A(5,6,7)              126.4446         -DE/DX =    0.               !
 ! D1    D(5,1,2,3)              0.             -DE/DX =    0.               !
 ! D2    D(2,1,5,6)              0.             -DE/DX =    0.               !
 ! D3    D(1,2,3,4)            180.             -DE/DX =    0.               !
 ! D4    D(1,2,3,6)              0.             -DE/DX =    0.               !
 ! D5    D(2,3,6,5)              0.             -DE/DX =    0.               !
 ! D6    D(2,3,6,7)            180.             -DE/DX =    0.               !
 ! D7    D(4,3,6,5)            180.             -DE/DX =    0.               !
 ! D8    D(4,3,6,7)              0.             -DE/DX =    0.               !
 ! D9    D(1,5,6,3)              0.             -DE/DX =    0.               !
 ! D10   D(1,5,6,7)            180.             -DE/DX =    0.               !
 -----------------------------------------------------------------------------
 GradGradGradGradGradGradGradGradGradGradGradGradGradGradGradGradGradGrad

 1\1\GINC-INDIUM\Freq\RB3LYP\CEP-31G(d)\C1H2N4\RDJ3\12-Sep-2000\0\\#N G
 EOM=ALLCHECK GUESS=TCHECK RB3LYP/CEP-31G(D) FREQ\\1H tetrazole c CH-NH
 -N=N-N= casno=288948\\0,1\N,-1.1823603567,-0.2840933748,0.\N,-0.715833
 1654,0.9371492455,0.\N,0.6474952304,0.8165427968,0.\H,1.2352072014,1.6
 489345031,0.\N,-0.1614716986,-1.2129495643,0.\C,0.9624520564,-0.506928
 9532,0.\H,1.9758345245,-0.9044642062,0.\\Version=IBM-RS6000-G98RevA.6\
 State=1-A'\HF=-46.4036172\RMSD=3.254e-09\RMSF=1.832e-04\Dipole=1.98766
 77,0.852969,0.\DipoleDeriv=-0.0349815,-0.1662469,-0.0000817,-0.2329574
 ,0.1272272,-0.0003689,0.0004028,-0.000457,-0.155755,0.2929259,0.250574
 ,-0.0000913,0.2690518,-0.3483999,0.0002347,-0.0002417,0.0005948,-0.093
 5485,-0.3625521,-0.2961794,0.0002768,-0.2169736,-0.2485075,0.000071,0.
 0000665,-0.000311,-0.1453819,0.2026262,0.0441417,-0.0000482,0.0243517,
 0.244221,-0.0000972,-0.0000035,0.0000169,0.3525495,-0.3710599,0.146906
 ,0.0000948,-0.0266714,-0.3487033,0.000201,-0.0004583,0.000238,-0.19016
 08,0.2408275,0.0014202,-0.0002214,0.1637869,0.4550459,0.0000221,0.0001
 542,-0.0000954,0.0292681,0.0322141,0.0193847,0.0000709,0.0194118,0.119
 1166,-0.0000626,0.0000801,0.0000137,0.2030286\Polar=40.2305903,-0.0507
 979,39.2998375,-0.0045145,0.0039071,17.764797\PG=CS [SG(C1H2N4)]\NImag
 =0\\0.53117446,0.09037745,0.47856767,-0.00000815,-0.00003557,0.1159953
 2,-0.13574900,-0.11074139,-0.00000869,0.41539381,-0.05469952,-0.325244
 23,0.00002850,-0.02473981,0.59501633,0.00000876,0.00003461,-0.08991045
 ,0.00000922,-0.00003033,0.10638392,-0.10576858,-0.10318229,0.00002321,
 -0.21300107,0.02503027,-0.00002142,0.63624387,-0.02894338,-0.05814697,
 0.00001300,0.05759556,-0.11605365,-0.00000858,0.19722075,0.90147078,-0
 .00000833,-0.00001079,0.02405709,-0.00000535,0.00001709,-0.06281723,0.
 00000832,-0.00000287,0.08546475,-0.01108617,-0.00152894,-0.00000541,-0
 .00349546,-0.03120668,0.00000171,-0.19248610,-0.18037130,0.00000273,0.
 19375677,0.00771963,0.00126228,-0.00001022,0.00187839,0.01194051,0.000
 00447,-0.18594849,-0.33747671,0.00000340,0.19573686,0.33366616,0.00000
 019,-0.00000214,0.00757491,0.00000176,-0.00000010,-0.01155126,0.000000
 05,0.00000148,-0.00671923,-0.00000090,-0.00000125,0.01337255,-0.163003
 07,0.06162468,0.00000660,-0.00057409,0.08481170,-0.00000512,-0.0015358
 3,-0.10790385,0.00000115,-0.00051991,-0.00110955,-0.00000010,0.4780232
 3,0.02489700,-0.12438786,0.00001375,-0.01746623,-0.11303752,-0.0000094
 5,0.00235451,-0.07828793,-0.00000830,0.00882714,-0.00590264,0.00000256
 ,0.10199336,0.50473459,0.00001212,0.00002815,-0.08408202,0.00000784,-0
 .00002710,0.03287934,-0.00002042,-0.00000900,0.01993145,0.00000396,0.0
 0000797,0.00723475,-0.00000353,-0.00000159,0.10317678,-0.11257659,0.06
 420970,-0.00001110,-0.06229659,0.00417573,0.00000868,-0.12834452,0.065
 45312,0.00000480,0.01402648,-0.01875423,-0.00000279,-0.29828586,-0.131
 40534,0.00000292,0.90734894,-0.03307228,0.02916861,-0.00000721,0.09405
 726,-0.04649463,0.00000850,0.03379968,-0.30644403,-0.00000112,0.008644
 29,-0.00321190,0.00000065,-0.12312135,-0.19717573,-0.00000017,-0.08826
 897,0.61988161,-0.00000264,-0.00001097,0.01768462,-0.00000067,0.000007
 94,0.01903384,0.00000681,0.00000495,-0.05729118,-0.00000315,-0.0000051
 6,-0.00922406,0.00000274,0.00000540,-0.07443064,-0.00000477,-0.0000009
 3,0.13327108,-0.00299105,-0.00075921,0.00000354,-0.00027758,-0.0033716
 9,-0.00000183,0.00489221,-0.00305090,-0.00000332,-0.00019562,0.0004773
 8,0.00000180,-0.01410447,0.01079956,-0.00000289,-0.31987187,0.10796137
 ,0.00000168,0.33254838,-0.00627890,-0.00121951,-0.00000225,-0.00058377
 ,-0.00612680,0.00000077,0.03072557,-0.00506150,0.00000259,-0.00010137,
 -0.00027770,-0.00000120,-0.01629499,0.01405708,0.00000174,0.10458999,-
 0.09572393,-0.00000124,-0.11205652,0.09435237,-0.00000194,-0.00000328,
 0.00868053,-0.00000412,0.00000399,0.00598184,0.00000344,0.00000103,-0.
 00262565,0.00000106,0.00000079,-0.00068765,-0.00000172,-0.00000238,-0.
 00470967,0.00000226,0.00000026,-0.02904365,0.00000102,-0.00000042,0.02
 240425\\-0.00023502,0.00016760,0.,0.00018246,-0.00002853,0.,-0.0000253
 2,0.00046155,0.,0.00001845,0.00001954,0.,0.00029804,-0.00038577,0.,-0.
 00021784,-0.00029058,0.,-0.00002078,0.00005619,0.\\\@


 UNDER MOST GREENE GRASSE LY MOST GREATE SNAKES.
 -- PROVERBS AND REASONS OF THE YEAR 1585
           AS REPRINTED IN PAISLEY MAGAZINE 1828.
 Job cpu time:  0 days  0 hours  4 minutes 51.3 seconds.
 File lengths (MBytes):  RWF=   16 Int=    0 D2E=    0 Chk=    8 Scr=    1
 Normal termination of Gaussian 98.
