 Entering Gaussian System, Link 0=g03
 Initial command:
 /usr/local/apps/g03b05/g03/l1.exe /wrk/rdj3/Gau-26784.inp -scrdir=/wrk/rdj3/
 Entering Link 1 = /usr/local/apps/g03b05/g03/l1.exe PID=     19874.
  
 Copyright (c) 1988,1990,1992,1993,1995,1998,2003, Gaussian, Inc.
                  All Rights Reserved.
  
 This is the Gaussian(R) 03 program.  It is based on the
 the Gaussian(R) 98 system (copyright 1998, Gaussian, Inc.),
 the Gaussian(R) 94 system (copyright 1995, Gaussian, Inc.),
 the Gaussian 92(TM) system (copyright 1992, Gaussian, Inc.),
 the Gaussian 90(TM) system (copyright 1990, Gaussian, Inc.),
 the Gaussian 88(TM) system (copyright 1988, Gaussian, Inc.),
 the Gaussian 86(TM) system (copyright 1986, Carnegie Mellon
 University), and the Gaussian 82(TM) system (copyright 1983,
 Carnegie Mellon University). Gaussian is a federally registered
 trademark of Gaussian, Inc.
  
 This software contains proprietary and confidential information,
 including trade secrets, belonging to Gaussian, Inc.
  
 This software is provided under written license and may be
 used, copied, transmitted, or stored only in accord with that
 written license.
  
 The following legend is applicable only to US Government
 contracts under DFARS:
  
                    RESTRICTED RIGHTS LEGEND
  
 Use, duplication or disclosure by the US Government is subject
 to restrictions as set forth in subparagraph (c)(1)(ii) of the
 Rights in Technical Data and Computer Software clause at DFARS
 252.227-7013.
  
 Gaussian, Inc.
 Carnegie Office Park, Building 6, Pittsburgh, PA 15106 USA
  
 The following legend is applicable only to US Government
 contracts under FAR:
  
                    RESTRICTED RIGHTS LEGEND
  
 Use, reproduction and disclosure by the US Government is subject
 to restrictions as set forth in subparagraph (c) of the
 Commercial Computer Software - Restricted Rights clause at FAR
 52.227-19.
  
 Gaussian, Inc.
 Carnegie Office Park, Building 6, Pittsburgh, PA 15106 USA
  
  
 ---------------------------------------------------------------
 Warning -- This program may not be used in any manner that
 competes with the business of Gaussian, Inc. or will provide
 assistance to any competitor of Gaussian, Inc.  The licensee
 of this program is prohibited from giving any competitor of
 Gaussian, Inc. access to this program.  By using this program,
 the user acknowledges that Gaussian, Inc. is engaged in the
 business of creating and licensing software in the field of
 computational chemistry and represents and warrants to the
 licensee that it is not a competitor of Gaussian, Inc. and that
 it will not use this program in any manner prohibited above.
 ---------------------------------------------------------------
  

 Cite this work as:
 Gaussian 03, Revision B.05,
 M. J. Frisch, G. W. Trucks, H. B. Schlegel, G. E. Scuseria, 
 M. A. Robb, J. R. Cheeseman, J. A. Montgomery, Jr., T. Vreven, 
 K. N. Kudin, J. C. Burant, J. M. Millam, S. S. Iyengar, J. Tomasi, 
 V. Barone, B. Mennucci, M. Cossi, G. Scalmani, N. Rega, 
 G. A. Petersson, H. Nakatsuji, M. Hada, M. Ehara, K. Toyota, 
 R. Fukuda, J. Hasegawa, M. Ishida, T. Nakajima, Y. Honda, O. Kitao, 
 H. Nakai, M. Klene, X. Li, J. E. Knox, H. P. Hratchian, J. B. Cross, 
 C. Adamo, J. Jaramillo, R. Gomperts, R. E. Stratmann, O. Yazyev, 
 A. J. Austin, R. Cammi, C. Pomelli, J. W. Ochterski, P. Y. Ayala, 
 K. Morokuma, G. A. Voth, P. Salvador, J. J. Dannenberg, 
 V. G. Zakrzewski, S. Dapprich, A. D. Daniels, M. C. Strain, 
 O. Farkas, D. K. Malick, A. D. Rabuck, K. Raghavachari, 
 J. B. Foresman, J. V. Ortiz, Q. Cui, A. G. Baboul, S. Clifford, 
 J. Cioslowski, B. B. Stefanov, G. Liu, A. Liashenko, P. Piskorz, 
 I. Komaromi, R. L. Martin, D. J. Fox, T. Keith, M. A. Al-Laham, 
 C. Y. Peng, A. Nanayakkara, M. Challacombe, P. M. W. Gill, 
 B. Johnson, W. Chen, M. W. Wong, C. Gonzalez, and J. A. Pople, 
 Gaussian, Inc., Pittsburgh PA, 2003.
 
 *************************************************
 Gaussian 03:  IBM64-RS6000-G03RevB.05  8-Nov-2003
                     3-Aug-2004 
 *************************************************
 %mem=56000000
 ----------------------
 #B3LYP/STO-3G opt freq
 ----------------------
 1/14=-1,18=20,26=3,38=1/1,3;
 2/9=110,17=6,18=5,40=1/2;
 3/6=3,11=2,16=1,25=1,30=1,74=-5/1,2,3;
 4//1;
 5/5=2,38=5/2;
 6/7=2,8=2,9=2,10=2,28=1/1;
 7//1,2,3,16;
 1/14=-1,18=20/3(1);
 99//99;
 2/9=110/2;
 3/6=3,11=2,16=1,25=1,30=1,74=-5/1,2,3;
 4/5=5,16=3/1;
 5/5=2,38=5/2;
 7//1,2,3,16;
 1/14=-1,18=20/3(-5);
 2/9=110/2;
 6/7=2,8=2,9=2,10=2,19=2,28=1/1;
 99/9=1/99;
 ------------------------------------------------
 1htz 1H-Tetrazole casno=288948 method=8 basis=20
 ------------------------------------------------
 Symbolic Z-matrix:
 Charge =  0 Multiplicity = 1
 N                    -0.73827  -0.93751   0. 
 N                    -1.13881   0.27594   0. 
 N                     0.        1.0655    0. 
 H                    -0.07144   2.05703   0. 
 N                     0.67553  -0.99125   0. 
 C                     1.06762   0.24654   0. 
 H                     2.07655   0.57492   0. 
 

 GradGradGradGradGradGradGradGradGradGradGradGradGradGradGradGradGradGrad
 Berny optimization.
 Initialization pass.
                           ----------------------------
                           !    Initial Parameters    !
                           ! (Angstroms and Degrees)  !
 --------------------------                            --------------------------
 ! Name  Definition              Value          Derivative Info.                !
 --------------------------------------------------------------------------------
 ! R1    R(1,2)                  1.2778         estimate D2E/DX2                !
 ! R2    R(1,5)                  1.4148         estimate D2E/DX2                !
 ! R3    R(2,3)                  1.3857         estimate D2E/DX2                !
 ! R4    R(3,4)                  0.9941         estimate D2E/DX2                !
 ! R5    R(3,6)                  1.3455         estimate D2E/DX2                !
 ! R6    R(5,6)                  1.2984         estimate D2E/DX2                !
 ! R7    R(6,7)                  1.061          estimate D2E/DX2                !
 ! A1    A(2,1,5)              110.4442         estimate D2E/DX2                !
 ! A2    A(1,2,3)              106.4672         estimate D2E/DX2                !
 ! A3    A(2,3,4)              120.6135         estimate D2E/DX2                !
 ! A4    A(2,3,6)              107.7742         estimate D2E/DX2                !
 ! A5    A(4,3,6)              131.6122         estimate D2E/DX2                !
 ! A6    A(1,5,6)              105.3992         estimate D2E/DX2                !
 ! A7    A(3,6,5)              109.9152         estimate D2E/DX2                !
 ! A8    A(3,6,7)              124.4801         estimate D2E/DX2                !
 ! A9    A(5,6,7)              125.6047         estimate D2E/DX2                !
 ! D1    D(5,1,2,3)              0.0            estimate D2E/DX2                !
 ! D2    D(2,1,5,6)              0.0            estimate D2E/DX2                !
 ! D3    D(1,2,3,4)            180.0            estimate D2E/DX2                !
 ! D4    D(1,2,3,6)              0.0            estimate D2E/DX2                !
 ! D5    D(2,3,6,5)              0.0            estimate D2E/DX2                !
 ! D6    D(2,3,6,7)            180.0            estimate D2E/DX2                !
 ! D7    D(4,3,6,5)            180.0            estimate D2E/DX2                !
 ! D8    D(4,3,6,7)              0.0            estimate D2E/DX2                !
 ! D9    D(1,5,6,3)              0.0            estimate D2E/DX2                !
 ! D10   D(1,5,6,7)            180.0            estimate D2E/DX2                !
 --------------------------------------------------------------------------------
 Trust Radius=3.00D-01 FncErr=1.00D-07 GrdErr=1.00D-06
 Number of steps in this run=  36 maximum allowed number of steps= 100.
 GradGradGradGradGradGradGradGradGradGradGradGradGradGradGradGradGradGrad

                          Input orientation:                          
 ---------------------------------------------------------------------
 Center     Atomic     Atomic              Coordinates (Angstroms)
 Number     Number      Type              X           Y           Z
 ---------------------------------------------------------------------
    1          7             0        -.738270    -.937506     .000000
    2          7             0       -1.138809     .275937     .000000
    3          7             0         .000000    1.065499     .000000
    4          1             0        -.071438    2.057031     .000000
    5          7             0         .675534    -.991248     .000000
    6          6             0        1.067617     .246545     .000000
    7          1             0        2.076552     .574924     .000000
 ---------------------------------------------------------------------
                    Distance matrix (angstroms):
                    1          2          3          4          5
     1  N     .000000
     2  N    1.277840    .000000
     3  N    2.134730   1.385747    .000000
     4  H    3.067885   2.076434    .994102    .000000
     5  N    1.414825   2.213052   2.164845   3.138467    .000000
     6  C    2.159445   2.206622   1.345545   2.138996   1.298407
     7  H    3.195413   3.229232   2.133713   2.609694   2.101368
                    6          7
     6  C     .000000
     7  H    1.061029    .000000
 Stoichiometry    CH2N4
 Framework group  CS[SG(CH2N4)]
 Deg. of freedom    11
 Full point group                 CS      NOp   2
 Largest Abelian subgroup         CS      NOp   2
 Largest concise Abelian subgroup C1      NOp   1
                         Standard orientation:                         
 ---------------------------------------------------------------------
 Center     Atomic     Atomic              Coordinates (Angstroms)
 Number     Number      Type              X           Y           Z
 ---------------------------------------------------------------------
    1          7             0        -.738270    -.937506     .000000
    2          7             0       -1.138809     .275937     .000000
    3          7             0         .000000    1.065499     .000000
    4          1             0        -.071438    2.057031     .000000
    5          7             0         .675534    -.991248     .000000
    6          6             0        1.067617     .246545     .000000
    7          1             0        2.076552     .574924     .000000
 ---------------------------------------------------------------------
 Rotational constants (GHZ):     10.4723792     10.0760703      5.1352015
 Standard basis: STO-3G (5D, 7F)
 There are    22 symmetry adapted basis functions of A'  symmetry.
 There are     5 symmetry adapted basis functions of A"  symmetry.
 Integral buffers will be    131072 words long.
 Raffenetti 2 integral format.
 Two-electron integral symmetry is turned on.
    27 basis functions,    81 primitive gaussians,    27 cartesian basis functions
    18 alpha electrons       18 beta electrons
       nuclear repulsion energy       165.5537781495 Hartrees.
 NAtoms=    7 NActive=    7 NUniq=    7 SFac= 1.00D+00 NAtFMM=   60 Big=F
 One-electron integrals computed using PRISM.
 NBasis=    27 RedAO= T  NBF=    22     5
 NBsUse=    27 1.00D-06 NBFU=    22     5
 Harris functional with IExCor=  402 diagonalized for initial guess.
 ExpMin= 1.69D-01 ExpMax= 9.91D+01 ExpMxC= 9.91D+01 IAcc=1 IRadAn=         1 AccDes= 1.00D-06
 HarFok:  IExCor= 402 AccDes= 1.00D-06 IRadAn=         1 IDoV=1
 ScaDFX=  1.000000  1.000000  1.000000  1.000000
 Initial guess orbital symmetries:
       Occupied  (A') (A') (A') (A') (A') (A') (A') (A') (A') (A')
                 (A') (A') (A") (A') (A') (A") (A') (A")
       Virtual   (A") (A") (A') (A') (A') (A') (A') (A') (A')
 The electronic state of the initial guess is 1-A'.
 Requested convergence on RMS density matrix=1.00D-08 within 128 cycles.
 Requested convergence on MAX density matrix=1.00D-06.
 Requested convergence on             energy=1.00D-06.
 No special actions if energy rises.
 Keep R1 integrals in memory in canonical form, NReq=      959730.
 Integral accuracy reduced to 1.0D-05 until final iterations.
 Initial convergence to 1.0D-05 achieved.  Increase integral accuracy.
 SCF Done:  E(RB+HF-LYP) =  -254.868318874     A.U. after   14 cycles
             Convg  =     .7673D-08             -V/T =  2.0168
             S**2   =    .0000

 **********************************************************************

            Population analysis using the SCF density.

 **********************************************************************

 Orbital symmetries:
       Occupied  (A') (A') (A') (A') (A') (A') (A') (A') (A') (A')
                 (A') (A') (A") (A') (A") (A") (A') (A')
       Virtual   (A") (A") (A') (A') (A') (A') (A') (A') (A')
 The electronic state is 1-A'.
 Alpha  occ. eigenvalues --  -14.29763 -14.23634 -14.20828 -14.17088 -10.12153
 Alpha  occ. eigenvalues --   -1.11338   -.90991   -.87537   -.64037   -.62381
 Alpha  occ. eigenvalues --    -.56555   -.45597   -.44524   -.30414   -.27383
 Alpha  occ. eigenvalues --    -.25720   -.22647   -.21343
 Alpha virt. eigenvalues --     .05492    .10056    .23795    .28524    .37961
 Alpha virt. eigenvalues --     .39648    .45172    .58373    .63786
          Condensed to atoms (all electrons):
              1          2          3          4          5          6
     1  N    6.539167    .358049   -.057539    .002439    .270256   -.050123
     2  N     .358049   6.519779    .283254   -.020598   -.036917   -.059643
     3  N    -.057539    .283254   6.318570    .345840   -.058754    .403649
     4  H     .002439   -.020598    .345840    .419050    .001867   -.023572
     5  N     .270256   -.036917   -.058754    .001867   6.558113    .452884
     6  C    -.050123   -.059643    .403649   -.023572    .452884   4.800093
     7  H     .002002    .001285   -.020913   -.000680   -.019414    .395670
              7
     1  N     .002002
     2  N     .001285
     3  N    -.020913
     4  H    -.000680
     5  N    -.019414
     6  C     .395670
     7  H     .507145
 Mulliken atomic charges:
              1
     1  N    -.064252
     2  N    -.045208
     3  N    -.214107
     4  H     .275655
     5  N    -.168035
     6  C     .081042
     7  H     .134904
 Sum of Mulliken charges=    .00000
 Atomic charges with hydrogens summed into heavy atoms:
              1
     1  N    -.064252
     2  N    -.045208
     3  N     .061548
     4  H     .000000
     5  N    -.168035
     6  C     .215947
     7  H     .000000
 Sum of Mulliken charges=    .00000
 Electronic spatial extent (au):  <R**2>=   250.0272
 Charge=      .0000 electrons
 Dipole moment (field-independent basis, Debye):
    X=     2.0560    Y=     4.3858    Z=      .0000  Tot=     4.8438
 Quadrupole moment (field-independent basis, Debye-Ang):
   XX=   -27.6042   YY=   -25.0975   ZZ=   -25.7527
   XY=     1.5731   XZ=      .0000   YZ=      .0000
 Traceless Quadrupole moment (field-independent basis, Debye-Ang):
   XX=    -1.4527   YY=     1.0539   ZZ=      .3988
   XY=     1.5731   XZ=      .0000   YZ=      .0000
 Octapole moment (field-independent basis, Debye-Ang**2):
  XXX=     8.0272  YYY=    18.3661  ZZZ=      .0000  XYY=     -.8716
  XXY=     3.5538  XXZ=      .0000  XZZ=    -1.1013  YZZ=     -.3306
  YYZ=      .0000  XYZ=      .0000
 Hexadecapole moment (field-independent basis, Debye-Ang**3):
 XXXX=  -133.9128 YYYY=  -109.4153 ZZZZ=   -17.2858 XXXY=     4.5160
 XXXZ=      .0000 YYYX=    -1.9663 YYYZ=      .0000 ZZZX=      .0000
 ZZZY=      .0000 XXYY=   -48.3677 XXZZ=   -26.2529 YYZZ=   -24.3776
 XXYZ=      .0000 YYXZ=      .0000 ZZXY=     -.6081
 N-N= 1.655537781495D+02 E-N=-9.240729077430D+02  KE= 2.506559491056D+02
 Symmetry A'   KE= 2.408513523726D+02
 Symmetry A"   KE= 9.804596732940D+00
 ***** Axes restored to original set *****
 -------------------------------------------------------------------
 Center     Atomic                   Forces (Hartrees/Bohr)
 Number     Number              X              Y              Z
 -------------------------------------------------------------------
    1          7           -.006413725    -.103896845     .000000000
    2          7           -.085995708     .082153909     .000000000
    3          7           -.003245115     .010743307     .000000000
    4          1           -.002326389     .058198576     .000000000
    5          7            .026408290    -.089020933     .000000000
    6          6            .041250157     .029999882     .000000000
    7          1            .030322490     .011822103     .000000000
 -------------------------------------------------------------------
 Cartesian Forces:  Max      .103896845 RMS      .044067892

 GradGradGradGradGradGradGradGradGradGradGradGradGradGradGradGradGradGrad
 Berny optimization.
 Internal  Forces:  Max      .115977032 RMS      .036656265
 Search for a local minimum.
 Step number   1 out of a maximum of  36
 All quantities printed in internal units (Hartrees-Bohrs-Radians)
 Second derivative matrix not updated -- first step.
     Eigenvalues ---     .01972    .02202    .02344    .02644    .16000
     Eigenvalues ---     .16000    .22584    .24675    .38387    .40757
     Eigenvalues ---     .46411    .48740    .52867    .63820    .71287
     Eigenvalues --- 1000.000001000.000001000.000001000.000001000.00000
     Eigenvalues --- 1000.000001000.000001000.000001000.000001000.00000
     Eigenvalues --- 1000.00000
 RFO step:  Lambda=-5.34384677D-02.
 Linear search not attempted -- first point.
 Iteration  1 RMS(Cart)=   .06192823 RMS(Int)=   .00040153
 Iteration  2 RMS(Cart)=   .00046627 RMS(Int)=   .00007028
 Iteration  3 RMS(Cart)=   .00000016 RMS(Int)=   .00007028
 Variable       Old X    -DE/DX   Delta X   Delta X   Delta X     New X
                                 (Linear)    (Quad)   (Total)
    R1        2.41477    .11598    .00000    .14860    .14870   2.56347
    R2        2.67363    .04681    .00000    .09867    .09871   2.77234
    R3        2.61868    .05280    .00000    .09856    .09858   2.71726
    R4        1.87858    .05821    .00000    .10764    .10764   1.98622
    R5        2.54271    .06643    .00000    .10567    .10558   2.64829
    R6        2.45363    .08626    .00000    .11698    .11691   2.57054
    R7        2.00505    .03249    .00000    .07430    .07430   2.07936
    A1        1.92761    .00256    .00000    .01799    .01815   1.94577
    A2        1.85820   -.00735    .00000   -.01968   -.01953   1.83867
    A3        2.10510    .00001    .00000    .00547    .00551   2.11061
    A4        1.88102    .00346    .00000    .00541    .00534   1.88635
    A5        2.29707   -.00348    .00000   -.01088   -.01084   2.28622
    A6        1.83956   -.00592    .00000   -.02080   -.02088   1.81868
    A7        1.91838    .00725    .00000    .01708    .01692   1.93530
    A8        2.17259   -.00549    .00000   -.01729   -.01721   2.15538
    A9        2.19222   -.00176    .00000    .00020    .00028   2.19250
    D1         .00000    .00000    .00000    .00000    .00000    .00000
    D2         .00000    .00000    .00000    .00000    .00000    .00000
    D3        3.14159    .00000    .00000    .00000    .00000   3.14159
    D4         .00000    .00000    .00000    .00000    .00000    .00000
    D5         .00000    .00000    .00000    .00000    .00000    .00000
    D6        3.14159    .00000    .00000    .00000    .00000   3.14159
    D7        3.14159    .00000    .00000    .00000    .00000   3.14159
    D8         .00000    .00000    .00000    .00000    .00000    .00000
    D9         .00000    .00000    .00000    .00000    .00000    .00000
   D10        3.14159    .00000    .00000    .00000    .00000   3.14159
         Item               Value     Threshold  Converged?
 Maximum Force             .115977      .000450     NO 
 RMS     Force             .036656      .000300     NO 
 Maximum Displacement      .164112      .001800     NO 
 RMS     Displacement      .061846      .001200     NO 
 Predicted change in Energy=-2.899908D-02
 GradGradGradGradGradGradGradGradGradGradGradGradGradGradGradGradGradGrad

                          Input orientation:                          
 ---------------------------------------------------------------------
 Center     Atomic     Atomic              Coordinates (Angstroms)
 Number     Number      Type              X           Y           Z
 ---------------------------------------------------------------------
    1          7             0        -.765423    -.997506     .000000
    2          7             0       -1.203838     .286224     .000000
    3          7             0        -.014624    1.094531     .000000
    4          1             0        -.074668    2.143875     .000000
    5          7             0         .700093   -1.064785     .000000
    6          6             0        1.093969     .237214     .000000
    7          1             0        2.135677     .591629     .000000
 ---------------------------------------------------------------------
                    Distance matrix (angstroms):
                    1          2          3          4          5
     1  N     .000000
     2  N    1.356530    .000000
     3  N    2.222683   1.437911    .000000
     4  H    3.216430   2.173912   1.051061    .000000
     5  N    1.467060   2.334562   2.274525   3.300871    .000000
     6  C    2.232011   2.298329   1.401417   2.236307   1.360272
     7  H    3.307830   3.353451   2.208327   2.700943   2.191941
                    6          7
     6  C     .000000
     7  H    1.100348    .000000
 Stoichiometry    CH2N4
 Framework group  CS[SG(CH2N4)]
 Deg. of freedom    11
 Full point group                 CS      NOp   2
 Largest Abelian subgroup         CS      NOp   2
 Largest concise Abelian subgroup C1      NOp   1
                         Standard orientation:                         
 ---------------------------------------------------------------------
 Center     Atomic     Atomic              Coordinates (Angstroms)
 Number     Number      Type              X           Y           Z
 ---------------------------------------------------------------------
    1          7             0        -.759406    -.977389     .000000
    2          7             0       -1.192532     .308136     .000000
    3          7             0         .000000    1.111539     .000000
    4          1             0        -.055723    2.161122     .000000
    5          7             0         .705821   -1.050700     .000000
    6          6             0        1.105054     .249666     .000000
    7          1             0        2.148213     .599789     .000000
 ---------------------------------------------------------------------
 Rotational constants (GHZ):      9.5716981      9.2578213      4.7060718
 Standard basis: STO-3G (5D, 7F)
 There are    22 symmetry adapted basis functions of A'  symmetry.
 There are     5 symmetry adapted basis functions of A"  symmetry.
 Integral buffers will be    131072 words long.
 Raffenetti 2 integral format.
 Two-electron integral symmetry is turned on.
    27 basis functions,    81 primitive gaussians,    27 cartesian basis functions
    18 alpha electrons       18 beta electrons
       nuclear repulsion energy       158.4162277144 Hartrees.
 NAtoms=    7 NActive=    7 NUniq=    7 SFac= 1.00D+00 NAtFMM=   60 Big=F
 One-electron integrals computed using PRISM.
 NBasis=    27 RedAO= T  NBF=    22     5
 NBsUse=    27 1.00D-06 NBFU=    22     5
 Initial guess read from the read-write file:
 Initial guess orbital symmetries:
       Occupied  (A') (A') (A') (A') (A') (A') (A') (A') (A') (A')
                 (A') (A') (A") (A') (A") (A") (A') (A')
       Virtual   (A") (A") (A') (A') (A') (A') (A') (A') (A')
 Harris functional with IExCor=  402 diagonalized for initial guess.
 ExpMin= 1.69D-01 ExpMax= 9.91D+01 ExpMxC= 9.91D+01 IAcc=1 IRadAn=         1 AccDes= 1.00D-06
 HarFok:  IExCor= 402 AccDes= 1.00D-06 IRadAn=         1 IDoV=1
 ScaDFX=  1.000000  1.000000  1.000000  1.000000
 Requested convergence on RMS density matrix=1.00D-08 within 128 cycles.
 Requested convergence on MAX density matrix=1.00D-06.
 Requested convergence on             energy=1.00D-06.
 No special actions if energy rises.
 Keep R1 integrals in memory in canonical form, NReq=      959730.
 Integral accuracy reduced to 1.0D-05 until final iterations.
 Initial convergence to 1.0D-05 achieved.  Increase integral accuracy.
 SCF Done:  E(RB+HF-LYP) =  -254.894492370     A.U. after   15 cycles
             Convg  =     .3312D-08             -V/T =  2.0183
             S**2   =    .0000
 ***** Axes restored to original set *****
 -------------------------------------------------------------------
 Center     Atomic                   Forces (Hartrees/Bohr)
 Number     Number              X              Y              Z
 -------------------------------------------------------------------
    1          7            .001862121    -.013681318     .000000000
    2          7           -.009306751     .013352925     .000000000
    3          7            .004600088    -.006583866     .000000000
    4          1            .002037286    -.001175112     .000000000
    5          7            .000050504    -.000303890     .000000000
    6          6            .002227364     .007531048     .000000000
    7          1           -.001470613     .000860214     .000000000
 -------------------------------------------------------------------
 Cartesian Forces:  Max      .013681318 RMS      .005301739

 GradGradGradGradGradGradGradGradGradGradGradGradGradGradGradGradGradGrad
 Berny optimization.
 Internal  Forces:  Max      .012772750 RMS      .003438649
 Search for a local minimum.
 Step number   2 out of a maximum of  36
 All quantities printed in internal units (Hartrees-Bohrs-Radians)
 Update second derivatives using D2CorX and points  1  2
 Trust test= 9.03D-01 RLast= 2.92D-01 DXMaxT set to 4.24D-01
     Eigenvalues ---     .01981    .02199    .02347    .02646    .15969
     Eigenvalues ---     .16000    .22567    .24719    .38749    .40850
     Eigenvalues ---     .46452    .49444    .56193    .64558    .69039
     Eigenvalues --- 1000.000001000.000001000.000001000.000001000.00000
     Eigenvalues --- 1000.000001000.000001000.000001000.000001000.00000
     Eigenvalues --- 1000.00000
 RFO step:  Lambda=-6.55718898D-04.
 Quartic linear search produced a step of   .04904.
 Iteration  1 RMS(Cart)=   .01145927 RMS(Int)=   .00007148
 Iteration  2 RMS(Cart)=   .00007832 RMS(Int)=   .00002068
 Iteration  3 RMS(Cart)=   .00000000 RMS(Int)=   .00002068
 Variable       Old X    -DE/DX   Delta X   Delta X   Delta X     New X
                                 (Linear)    (Quad)   (Total)
    R1        2.56347    .01277    .00729    .01462    .02193   2.58540
    R2        2.77234    .00265    .00484    .00514    .00996   2.78230
    R3        2.71726    .00309    .00483    .00349    .00835   2.72561
    R4        1.98622   -.00129    .00528   -.00603   -.00076   1.98546
    R5        2.64829   -.00540    .00518   -.01517   -.00999   2.63830
    R6        2.57054    .00275    .00573   -.00026    .00544   2.57598
    R7        2.07936   -.00111    .00364   -.00517   -.00153   2.07783
    A1        1.94577   -.00284    .00089   -.00493   -.00404   1.94173
    A2        1.83867   -.00412   -.00096   -.01335   -.01425   1.82442
    A3        2.11061   -.00079    .00027    .00245    .00270   2.11331
    A4        1.88635    .00548    .00026    .02026    .02054   1.90689
    A5        2.28622   -.00469   -.00053   -.02270   -.02324   2.26298
    A6        1.81868    .00237   -.00102    .00984    .00875   1.82744
    A7        1.93530   -.00089    .00083   -.01180   -.01100   1.92430
    A8        2.15538   -.00090   -.00084   -.00272   -.00355   2.15184
    A9        2.19250    .00179    .00001    .01452    .01455   2.20705
    D1         .00000    .00000    .00000    .00000    .00000    .00000
    D2         .00000    .00000    .00000    .00000    .00000    .00000
    D3        3.14159    .00000    .00000    .00000    .00000   3.14159
    D4         .00000    .00000    .00000    .00000    .00000    .00000
    D5         .00000    .00000    .00000    .00000    .00000    .00000
    D6        3.14159    .00000    .00000    .00000    .00000   3.14159
    D7        3.14159    .00000    .00000    .00000    .00000   3.14159
    D8         .00000    .00000    .00000    .00000    .00000    .00000
    D9         .00000    .00000    .00000    .00000    .00000    .00000
   D10        3.14159    .00000    .00000    .00000    .00000   3.14159
         Item               Value     Threshold  Converged?
 Maximum Force             .012773      .000450     NO 
 RMS     Force             .003439      .000300     NO 
 Maximum Displacement      .031367      .001800     NO 
 RMS     Displacement      .011467      .001200     NO 
 Predicted change in Energy=-3.642792D-04
 GradGradGradGradGradGradGradGradGradGradGradGradGradGradGradGradGradGrad

                          Input orientation:                          
 ---------------------------------------------------------------------
 Center     Atomic     Atomic              Coordinates (Angstroms)
 Number     Number      Type              X           Y           Z
 ---------------------------------------------------------------------
    1          7             0        -.771803   -1.004274     .000000
    2          7             0       -1.216514     .289567     .000000
    3          7             0        -.013775    1.085644     .000000
    4          1             0        -.058069    2.135371     .000000
    5          7             0         .699359   -1.062959     .000000
    6          6             0        1.097649     .240709     .000000
    7          1             0        2.134339     .607124     .000000
 ---------------------------------------------------------------------
                    Distance matrix (angstroms):
                    1          2          3          4          5
     1  N     .000000
     2  N    1.368134    .000000
     3  N    2.223142   1.442331    .000000
     4  H    3.219749   2.179218   1.050661    .000000
     5  N    1.472332   2.345186   2.263859   3.286794    .000000
     6  C    2.246070   2.314678   1.396130   2.219331   1.363152
     7  H    3.322990   3.365867   2.200768   2.672488   2.201896
                    6          7
     6  C     .000000
     7  H    1.099539    .000000
 Stoichiometry    CH2N4
 Framework group  CS[SG(CH2N4)]
 Deg. of freedom    11
 Full point group                 CS      NOp   2
 Largest Abelian subgroup         CS      NOp   2
 Largest concise Abelian subgroup C1      NOp   1
                         Standard orientation:                         
 ---------------------------------------------------------------------
 Center     Atomic     Atomic              Coordinates (Angstroms)
 Number     Number      Type              X           Y           Z
 ---------------------------------------------------------------------
    1          7             0        -.760075    -.985268     .000000
    2          7             0       -1.203518     .309007     .000000
    3          7             0         .000000    1.103906     .000000
    4          1             0        -.043265    2.153676     .000000
    5          7             0         .711029   -1.045395     .000000
    6          6             0        1.110596     .257882     .000000
    7          1             0        2.147645     .623281     .000000
 ---------------------------------------------------------------------
 Rotational constants (GHZ):      9.5510474      9.1918383      4.6840004
 Standard basis: STO-3G (5D, 7F)
 There are    22 symmetry adapted basis functions of A'  symmetry.
 There are     5 symmetry adapted basis functions of A"  symmetry.
 Integral buffers will be    131072 words long.
 Raffenetti 2 integral format.
 Two-electron integral symmetry is turned on.
    27 basis functions,    81 primitive gaussians,    27 cartesian basis functions
    18 alpha electrons       18 beta electrons
       nuclear repulsion energy       158.0362439721 Hartrees.
 NAtoms=    7 NActive=    7 NUniq=    7 SFac= 1.00D+00 NAtFMM=   60 Big=F
 One-electron integrals computed using PRISM.
 NBasis=    27 RedAO= T  NBF=    22     5
 NBsUse=    27 1.00D-06 NBFU=    22     5
 Initial guess read from the read-write file:
 Initial guess orbital symmetries:
       Occupied  (A') (A') (A') (A') (A') (A') (A') (A') (A') (A')
                 (A') (A') (A") (A') (A") (A") (A') (A')
       Virtual   (A") (A") (A') (A') (A') (A') (A') (A') (A')
 Harris functional with IExCor=  402 diagonalized for initial guess.
 ExpMin= 1.69D-01 ExpMax= 9.91D+01 ExpMxC= 9.91D+01 IAcc=1 IRadAn=         1 AccDes= 1.00D-06
 HarFok:  IExCor= 402 AccDes= 1.00D-06 IRadAn=         1 IDoV=1
 ScaDFX=  1.000000  1.000000  1.000000  1.000000
 Requested convergence on RMS density matrix=1.00D-08 within 128 cycles.
 Requested convergence on MAX density matrix=1.00D-06.
 Requested convergence on             energy=1.00D-06.
 No special actions if energy rises.
 Keep R1 integrals in memory in canonical form, NReq=      959730.
 Integral accuracy reduced to 1.0D-05 until final iterations.
 Initial convergence to 1.0D-05 achieved.  Increase integral accuracy.
 SCF Done:  E(RB+HF-LYP) =  -254.894875603     A.U. after   13 cycles
             Convg  =     .4268D-08             -V/T =  2.0183
             S**2   =    .0000
 ***** Axes restored to original set *****
 -------------------------------------------------------------------
 Center     Atomic                   Forces (Hartrees/Bohr)
 Number     Number              X              Y              Z
 -------------------------------------------------------------------
    1          7            .004774305    -.004719583     .000000000
    2          7            .001197042     .005756250     .000000000
    3          7           -.000648159     .000285559     .000000000
    4          1            .000647452    -.000550480     .000000000
    5          7           -.001773138    -.002434780     .000000000
    6          6           -.003544997     .001631844     .000000000
    7          1           -.000652505     .000031192     .000000000
 -------------------------------------------------------------------
 Cartesian Forces:  Max      .005756250 RMS      .002242325

 GradGradGradGradGradGradGradGradGradGradGradGradGradGradGradGradGradGrad
 Berny optimization.
 Internal  Forces:  Max      .005290585 RMS      .001614535
 Search for a local minimum.
 Step number   3 out of a maximum of  36
 All quantities printed in internal units (Hartrees-Bohrs-Radians)
 Update second derivatives using D2CorX and points  1  2  3
 Trust test= 1.05D+00 RLast= 4.89D-02 DXMaxT set to 4.24D-01
     Eigenvalues ---     .01976    .02191    .02343    .02649    .14524
     Eigenvalues ---     .16004    .24164    .28931    .38698    .40074
     Eigenvalues ---     .43533    .49637    .55548    .61645    .65297
     Eigenvalues --- 1000.000001000.000001000.000001000.000001000.00000
     Eigenvalues --- 1000.000001000.000001000.000001000.000001000.00000
     Eigenvalues --- 1000.00000
 RFO step:  Lambda=-1.62842888D-04.
 Quartic linear search produced a step of   .02435.
 Iteration  1 RMS(Cart)=   .00556094 RMS(Int)=   .00001570
 Iteration  2 RMS(Cart)=   .00001620 RMS(Int)=   .00000208
 Iteration  3 RMS(Cart)=   .00000000 RMS(Int)=   .00000208
 Variable       Old X    -DE/DX   Delta X   Delta X   Delta X     New X
                                 (Linear)    (Quad)   (Total)
    R1        2.58540    .00529    .00053    .01235    .01288   2.59828
    R2        2.78230   -.00323    .00024   -.00506   -.00482   2.77749
    R3        2.72561   -.00265    .00020   -.00379   -.00359   2.72202
    R4        1.98546   -.00058   -.00002   -.00101   -.00102   1.98444
    R5        2.63830   -.00191   -.00024   -.00554   -.00578   2.63252
    R6        2.57598    .00156    .00013    .00350    .00364   2.57962
    R7        2.07783   -.00060   -.00004   -.00166   -.00170   2.07613
    A1        1.94173   -.00024   -.00010    .00048    .00038   1.94211
    A2        1.82442    .00029   -.00035   -.00028   -.00063   1.82379
    A3        2.11331    .00116    .00007    .00778    .00785   2.12116
    A4        1.90689   -.00110    .00050   -.00279   -.00229   1.90460
    A5        2.26298   -.00006   -.00057   -.00499   -.00556   2.25742
    A6        1.82744   -.00156    .00021   -.00534   -.00513   1.82231
    A7        1.92430    .00261   -.00027    .00793    .00766   1.93197
    A8        2.15184   -.00157   -.00009   -.00736   -.00745   2.14439
    A9        2.20705   -.00104    .00035   -.00057   -.00021   2.20683
    D1         .00000    .00000    .00000    .00000    .00000    .00000
    D2         .00000    .00000    .00000    .00000    .00000    .00000
    D3        3.14159    .00000    .00000    .00000    .00000   3.14159
    D4         .00000    .00000    .00000    .00000    .00000    .00000
    D5         .00000    .00000    .00000    .00000    .00000    .00000
    D6        3.14159    .00000    .00000    .00000    .00000   3.14159
    D7        3.14159    .00000    .00000    .00000    .00000   3.14159
    D8         .00000    .00000    .00000    .00000    .00000    .00000
    D9         .00000    .00000    .00000    .00000    .00000    .00000
   D10        3.14159    .00000    .00000    .00000    .00000   3.14159
         Item               Value     Threshold  Converged?
 Maximum Force             .005291      .000450     NO 
 RMS     Force             .001615      .000300     NO 
 Maximum Displacement      .015385      .001800     NO 
 RMS     Displacement      .005561      .001200     NO 
 Predicted change in Energy=-8.164413D-05
 GradGradGradGradGradGradGradGradGradGradGradGradGradGradGradGradGradGrad

                          Input orientation:                          
 ---------------------------------------------------------------------
 Center     Atomic     Atomic              Coordinates (Angstroms)
 Number     Number      Type              X           Y           Z
 ---------------------------------------------------------------------
    1          7             0        -.768353   -1.008287     .000000
    2          7             0       -1.215663     .291865     .000000
    3          7             0        -.014245    1.086493     .000000
    4          1             0        -.049927    2.136005     .000000
    5          7             0         .700256   -1.067001     .000000
    6          6             0        1.092527     .240500     .000000
    7          1             0        2.126593     .611608     .000000
 ---------------------------------------------------------------------
                    Distance matrix (angstroms):
                    1          2          3          4          5
     1  N     .000000
     2  N    1.374948    .000000
     3  N    2.226383   1.440430    .000000
     4  H    3.225324   2.181695   1.050119    .000000
     5  N    1.469782   2.348885   2.268931   3.289685    .000000
     6  C    2.241059   2.308762   1.393071   2.213175   1.365077
     7  H    3.317344   3.357516   2.192875   2.657259   2.202763
                    6          7
     6  C     .000000
     7  H    1.098642    .000000
 Stoichiometry    CH2N4
 Framework group  CS[SG(CH2N4)]
 Deg. of freedom    11
 Full point group                 CS      NOp   2
 Largest Abelian subgroup         CS      NOp   2
 Largest concise Abelian subgroup C1      NOp   1
                         Standard orientation:                         
 ---------------------------------------------------------------------
 Center     Atomic     Atomic              Coordinates (Angstroms)
 Number     Number      Type              X           Y           Z
 ---------------------------------------------------------------------
    1          7             0        -.757192    -.988065     .000000
    2          7             0       -1.202587     .312744     .000000
    3          7             0         .000000    1.105602     .000000
    4          1             0        -.034137    2.155167     .000000
    5          7             0         .711329   -1.048941     .000000
    6          6             0        1.105525     .257981     .000000
    7          1             0        2.140136     .627566     .000000
 ---------------------------------------------------------------------
 Rotational constants (GHZ):      9.5214434      9.2154578      4.6829761
 Standard basis: STO-3G (5D, 7F)
 There are    22 symmetry adapted basis functions of A'  symmetry.
 There are     5 symmetry adapted basis functions of A"  symmetry.
 Integral buffers will be    131072 words long.
 Raffenetti 2 integral format.
 Two-electron integral symmetry is turned on.
    27 basis functions,    81 primitive gaussians,    27 cartesian basis functions
    18 alpha electrons       18 beta electrons
       nuclear repulsion energy       158.0097130327 Hartrees.
 NAtoms=    7 NActive=    7 NUniq=    7 SFac= 1.00D+00 NAtFMM=   60 Big=F
 One-electron integrals computed using PRISM.
 NBasis=    27 RedAO= T  NBF=    22     5
 NBsUse=    27 1.00D-06 NBFU=    22     5
 Initial guess read from the read-write file:
 Initial guess orbital symmetries:
       Occupied  (A') (A') (A') (A') (A') (A') (A') (A') (A') (A')
                 (A') (A') (A") (A') (A") (A") (A') (A')
       Virtual   (A") (A") (A') (A') (A') (A') (A') (A') (A')
 Requested convergence on RMS density matrix=1.00D-08 within 128 cycles.
 Requested convergence on MAX density matrix=1.00D-06.
 Requested convergence on             energy=1.00D-06.
 No special actions if energy rises.
 Keep R1 integrals in memory in canonical form, NReq=      959730.
 SCF Done:  E(RB+HF-LYP) =  -254.894956556     A.U. after   10 cycles
             Convg  =     .3160D-08             -V/T =  2.0183
             S**2   =    .0000
 ***** Axes restored to original set *****
 -------------------------------------------------------------------
 Center     Atomic                   Forces (Hartrees/Bohr)
 Number     Number              X              Y              Z
 -------------------------------------------------------------------
    1          7            .002106518    -.000446569     .000000000
    2          7            .000489193     .000862854     .000000000
    3          7           -.000967332    -.001278545     .000000000
    4          1            .000026470    -.000152959     .000000000
    5          7           -.002482168     .000872983     .000000000
    6          6            .000536685     .000286796     .000000000
    7          1            .000290636    -.000144560     .000000000
 -------------------------------------------------------------------
 Cartesian Forces:  Max      .002482168 RMS      .000862281

 GradGradGradGradGradGradGradGradGradGradGradGradGradGradGradGradGradGrad
 Berny optimization.
 Internal  Forces:  Max      .001990255 RMS      .000513376
 Search for a local minimum.
 Step number   4 out of a maximum of  36
 All quantities printed in internal units (Hartrees-Bohrs-Radians)
 Update second derivatives using D2CorX and points  1  2  3  4
 Trust test= 9.92D-01 RLast= 2.22D-02 DXMaxT set to 4.24D-01
     Eigenvalues ---     .01979    .02189    .02346    .02650    .14328
     Eigenvalues ---     .16120    .23879    .29525    .38777    .39918
     Eigenvalues ---     .45618    .49165    .52017    .60678    .65143
     Eigenvalues --- 1000.000001000.000001000.000001000.000001000.00000
     Eigenvalues --- 1000.000001000.000001000.000001000.000001000.00000
     Eigenvalues --- 1000.00000
 RFO step:  Lambda=-1.84544344D-05.
 Quartic linear search produced a step of  -.00586.
 Iteration  1 RMS(Cart)=   .00105755 RMS(Int)=   .00000082
 Iteration  2 RMS(Cart)=   .00000086 RMS(Int)=   .00000036
 Variable       Old X    -DE/DX   Delta X   Delta X   Delta X     New X
                                 (Linear)    (Quad)   (Total)
    R1        2.59828    .00014   -.00008    .00189    .00182   2.60009
    R2        2.77749   -.00199    .00003   -.00503   -.00500   2.77249
    R3        2.72202   -.00093    .00002   -.00214   -.00212   2.71990
    R4        1.98444   -.00015    .00001   -.00028   -.00027   1.98417
    R5        2.63252   -.00015    .00003   -.00077   -.00074   2.63178
    R6        2.57962   -.00036   -.00002    .00005    .00003   2.57965
    R7        2.07613    .00023    .00001    .00051    .00052   2.07665
    A1        1.94211   -.00003    .00000   -.00025   -.00026   1.94186
    A2        1.82379   -.00026    .00000   -.00115   -.00114   1.82265
    A3        2.12116   -.00016   -.00005    .00011    .00007   2.12123
    A4        1.90460    .00035    .00001    .00167    .00169   1.90629
    A5        2.25742   -.00019    .00003   -.00179   -.00175   2.25567
    A6        1.82231    .00071    .00003    .00209    .00212   1.82443
    A7        1.93197   -.00077   -.00004   -.00236   -.00241   1.92956
    A8        2.14439    .00062    .00004    .00218    .00222   2.14661
    A9        2.20683    .00015    .00000    .00018    .00019   2.20702
    D1         .00000    .00000    .00000    .00000    .00000    .00000
    D2         .00000    .00000    .00000    .00000    .00000    .00000
    D3        3.14159    .00000    .00000    .00000    .00000   3.14159
    D4         .00000    .00000    .00000    .00000    .00000    .00000
    D5         .00000    .00000    .00000    .00000    .00000    .00000
    D6        3.14159    .00000    .00000    .00000    .00000   3.14159
    D7        3.14159    .00000    .00000    .00000    .00000   3.14159
    D8         .00000    .00000    .00000    .00000    .00000    .00000
    D9         .00000    .00000    .00000    .00000    .00000    .00000
   D10        3.14159    .00000    .00000    .00000    .00000   3.14159
         Item               Value     Threshold  Converged?
 Maximum Force             .001990      .000450     NO 
 RMS     Force             .000513      .000300     NO 
 Maximum Displacement      .002853      .001800     NO 
 RMS     Displacement      .001058      .001200     YES
 Predicted change in Energy=-9.230096D-06
 GradGradGradGradGradGradGradGradGradGradGradGradGradGradGradGradGradGrad

                          Input orientation:                          
 ---------------------------------------------------------------------
 Center     Atomic     Atomic              Coordinates (Angstroms)
 Number     Number      Type              X           Y           Z
 ---------------------------------------------------------------------
    1          7             0        -.767269   -1.008495     .000000
    2          7             0       -1.215690     .292293     .000000
    3          7             0        -.014787    1.085667     .000000
    4          1             0        -.049841    2.135056     .000000
    5          7             0         .698746   -1.065829     .000000
    6          6             0        1.092654     .241195     .000000
    7          1             0        2.127374     .611296     .000000
 ---------------------------------------------------------------------
                    Distance matrix (angstroms):
                    1          2          3          4          5
     1  N     .000000
     2  N    1.375911    .000000
     3  N    2.225251   1.439309    .000000
     4  H    3.224379   2.180592   1.049975    .000000
     5  N    1.467136   2.347246   2.266730   3.287256    .000000
     6  C    2.240767   2.308910   1.392680   2.211788   1.365092
     7  H    3.317029   3.358249   2.194055   2.657463   2.203117
                    6          7
     6  C     .000000
     7  H    1.098918    .000000
 Stoichiometry    CH2N4
 Framework group  CS[SG(CH2N4)]
 Deg. of freedom    11
 Full point group                 CS      NOp   2
 Largest Abelian subgroup         CS      NOp   2
 Largest concise Abelian subgroup C1      NOp   1
                         Standard orientation:                         
 ---------------------------------------------------------------------
 Center     Atomic     Atomic              Coordinates (Angstroms)
 Number     Number      Type              X           Y           Z
 ---------------------------------------------------------------------
    1          7             0        -.756314    -.988195     .000000
    2          7             0       -1.202354     .313411     .000000
    3          7             0         .000000    1.104586     .000000
    4          1             0        -.033133    2.154038     .000000
    5          7             0         .709594   -1.048212     .000000
    6          6             0        1.105893     .258089     .000000
    7          1             0        2.141289     .626296     .000000
 ---------------------------------------------------------------------
 Rotational constants (GHZ):      9.5283674      9.2250367      4.6871244
 Standard basis: STO-3G (5D, 7F)
 There are    22 symmetry adapted basis functions of A'  symmetry.
 There are     5 symmetry adapted basis functions of A"  symmetry.
 Integral buffers will be    131072 words long.
 Raffenetti 2 integral format.
 Two-electron integral symmetry is turned on.
    27 basis functions,    81 primitive gaussians,    27 cartesian basis functions
    18 alpha electrons       18 beta electrons
       nuclear repulsion energy       158.0734289867 Hartrees.
 NAtoms=    7 NActive=    7 NUniq=    7 SFac= 1.00D+00 NAtFMM=   60 Big=F
 One-electron integrals computed using PRISM.
 NBasis=    27 RedAO= T  NBF=    22     5
 NBsUse=    27 1.00D-06 NBFU=    22     5
 Initial guess read from the read-write file:
 Initial guess orbital symmetries:
       Occupied  (A') (A') (A') (A') (A') (A') (A') (A') (A') (A')
                 (A') (A') (A") (A') (A") (A") (A') (A')
       Virtual   (A") (A") (A') (A') (A') (A') (A') (A') (A')
 Requested convergence on RMS density matrix=1.00D-08 within 128 cycles.
 Requested convergence on MAX density matrix=1.00D-06.
 Requested convergence on             energy=1.00D-06.
 No special actions if energy rises.
 Keep R1 integrals in memory in canonical form, NReq=      959730.
 SCF Done:  E(RB+HF-LYP) =  -254.894969668     A.U. after    9 cycles
             Convg  =     .5046D-08             -V/T =  2.0183
             S**2   =    .0000
 ***** Axes restored to original set *****
 -------------------------------------------------------------------
 Center     Atomic                   Forces (Hartrees/Bohr)
 Number     Number              X              Y              Z
 -------------------------------------------------------------------
    1          7            .001078730    -.000175982     .000000000
    2          7            .000302946     .000353506     .000000000
    3          7           -.000536555    -.000271479     .000000000
    4          1           -.000091782    -.000005320     .000000000
    5          7           -.001253019     .000108117     .000000000
    6          6            .000502283     .000126492     .000000000
    7          1           -.000002603    -.000135333     .000000000
 -------------------------------------------------------------------
 Cartesian Forces:  Max      .001253019 RMS      .000416892

 GradGradGradGradGradGradGradGradGradGradGradGradGradGradGradGradGradGrad
 Berny optimization.
 Internal  Forces:  Max      .001029459 RMS      .000245428
 Search for a local minimum.
 Step number   5 out of a maximum of  36
 All quantities printed in internal units (Hartrees-Bohrs-Radians)
 Update second derivatives using D2CorX and points  1  2  3  4  5

 Trust test= 1.42D+00 RLast= 7.50D-03 DXMaxT set to 4.24D-01
     Eigenvalues ---     .01979    .02189    .02345    .02650    .15034
     Eigenvalues ---     .15565    .19016    .24366    .38035    .39601
     Eigenvalues ---     .44254    .48065    .50085    .62215    .68352
     Eigenvalues --- 1000.000001000.000001000.000001000.000001000.00000
     Eigenvalues --- 1000.000001000.000001000.000001000.000001000.00000
     Eigenvalues --- 1000.00000
 RFO step:  Lambda=-1.81303077D-06.
 Quartic linear search produced a step of   .69115.
 Iteration  1 RMS(Cart)=   .00094390 RMS(Int)=   .00000067
 Iteration  2 RMS(Cart)=   .00000056 RMS(Int)=   .00000044
 Variable       Old X    -DE/DX   Delta X   Delta X   Delta X     New X
                                 (Linear)    (Quad)   (Total)
    R1        2.60009    .00009    .00126    .00000    .00125   2.60135
    R2        2.77249   -.00103   -.00346   -.00112   -.00457   2.76791
    R3        2.71990   -.00045   -.00146   -.00029   -.00175   2.71815
    R4        1.98417    .00000   -.00019    .00009   -.00009   1.98407
    R5        2.63178    .00022   -.00051    .00077    .00026   2.63204
    R6        2.57965    .00006    .00002    .00042    .00044   2.58009
    R7        2.07665   -.00005    .00036   -.00064   -.00028   2.07638
    A1        1.94186    .00007   -.00018    .00015   -.00003   1.94183
    A2        1.82265    .00000   -.00079    .00040   -.00039   1.82225
    A3        2.12123   -.00009    .00004   -.00075   -.00071   2.12052
    A4        1.90629   -.00001    .00117   -.00058    .00059   1.90687
    A5        2.25567    .00010   -.00121    .00133    .00012   2.25579
    A6        1.82443    .00024    .00146    .00005    .00151   1.82594
    A7        1.92956   -.00029   -.00166   -.00001   -.00168   1.92788
    A8        2.14661    .00027    .00154    .00035    .00189   2.14849
    A9        2.20702    .00002    .00013   -.00034   -.00021   2.20681
    D1         .00000    .00000    .00000    .00000    .00000    .00000
    D2         .00000    .00000    .00000    .00000    .00000    .00000
    D3        3.14159    .00000    .00000    .00000    .00000   3.14159
    D4         .00000    .00000    .00000    .00000    .00000    .00000
    D5         .00000    .00000    .00000    .00000    .00000    .00000
    D6        3.14159    .00000    .00000    .00000    .00000   3.14159
    D7        3.14159    .00000    .00000    .00000    .00000   3.14159
    D8         .00000    .00000    .00000    .00000    .00000    .00000
    D9         .00000    .00000    .00000    .00000    .00000    .00000
   D10        3.14159    .00000    .00000    .00000    .00000   3.14159
         Item               Value     Threshold  Converged?
 Maximum Force             .001029      .000450     NO 
 RMS     Force             .000245      .000300     YES
 Maximum Displacement      .002340      .001800     NO 
 RMS     Displacement      .000944      .001200     YES
 Predicted change in Energy=-3.662533D-06
 GradGradGradGradGradGradGradGradGradGradGradGradGradGradGradGradGradGrad

                          Input orientation:                          
 ---------------------------------------------------------------------
 Center     Atomic     Atomic              Coordinates (Angstroms)
 Number     Number      Type              X           Y           Z
 ---------------------------------------------------------------------
    1          7             0        -.766112   -1.008553     .000000
    2          7             0       -1.215231     .292696     .000000
    3          7             0        -.015082    1.085530     .000000
    4          1             0        -.050849    2.134846     .000000
    5          7             0         .697508   -1.065211     .000000
    6          6             0        1.092940     .241597     .000000
    7          1             0        2.128011     .610278     .000000
 ---------------------------------------------------------------------
                    Distance matrix (angstroms):
                    1          2          3          4          5
     1  N     .000000
     2  N    1.376574    .000000
     3  N    2.224686   1.438382    .000000
     4  H    3.223749   2.179289   1.049926    .000000
     5  N    1.464716   2.345737   2.265716   3.286397    .000000
     6  C    2.240302   2.308736   1.392816   2.211933   1.365325
     7  H    3.316107   3.358292   2.195156   2.659275   2.203089
                    6          7
     6  C     .000000
     7  H    1.098771    .000000
 Stoichiometry    CH2N4
 Framework group  CS[SG(CH2N4)]
 Deg. of freedom    11
 Full point group                 CS      NOp   2
 Largest Abelian subgroup         CS      NOp   2
 Largest concise Abelian subgroup C1      NOp   1
                         Standard orientation:                         
 ---------------------------------------------------------------------
 Center     Atomic     Atomic              Coordinates (Angstroms)
 Number     Number      Type              X           Y           Z
 ---------------------------------------------------------------------
    1          7             0        -.755524    -.988210     .000000
    2          7             0       -1.201848     .314001     .000000
    3          7             0         .000000    1.104256     .000000
    4          1             0        -.033515    2.153647     .000000
    5          7             0         .707972   -1.048009     .000000
    6          6             0        1.106208     .257947     .000000
    7          1             0        2.142068     .624406     .000000
 ---------------------------------------------------------------------
 Rotational constants (GHZ):      9.5318569      9.2334945      4.6901519
 Standard basis: STO-3G (5D, 7F)
 There are    22 symmetry adapted basis functions of A'  symmetry.
 There are     5 symmetry adapted basis functions of A"  symmetry.
 Integral buffers will be    131072 words long.
 Raffenetti 2 integral format.
 Two-electron integral symmetry is turned on.
    27 basis functions,    81 primitive gaussians,    27 cartesian basis functions
    18 alpha electrons       18 beta electrons
       nuclear repulsion energy       158.1201092356 Hartrees.
 NAtoms=    7 NActive=    7 NUniq=    7 SFac= 1.00D+00 NAtFMM=   60 Big=F
 One-electron integrals computed using PRISM.
 NBasis=    27 RedAO= T  NBF=    22     5
 NBsUse=    27 1.00D-06 NBFU=    22     5
 Initial guess read from the read-write file:
 Initial guess orbital symmetries:
       Occupied  (A') (A') (A') (A') (A') (A') (A') (A') (A') (A')
                 (A') (A') (A") (A') (A") (A") (A') (A')
       Virtual   (A") (A") (A') (A') (A') (A') (A') (A') (A')
 Requested convergence on RMS density matrix=1.00D-08 within 128 cycles.
 Requested convergence on MAX density matrix=1.00D-06.
 Requested convergence on             energy=1.00D-06.
 No special actions if energy rises.
 Keep R1 integrals in memory in canonical form, NReq=      959730.
 SCF Done:  E(RB+HF-LYP) =  -254.894973489     A.U. after   10 cycles
             Convg  =     .1545D-08             -V/T =  2.0183
             S**2   =    .0000
 ***** Axes restored to original set *****
 -------------------------------------------------------------------
 Center     Atomic                   Forces (Hartrees/Bohr)
 Number     Number              X              Y              Z
 -------------------------------------------------------------------
    1          7            .000072604    -.000017327     .000000000
    2          7           -.000045374     .000040743     .000000000
    3          7            .000015924     .000018926     .000000000
    4          1           -.000062334     .000050442     .000000000
    5          7           -.000098862    -.000116463     .000000000
    6          6            .000077662     .000024158     .000000000
    7          1            .000040378    -.000000479     .000000000
 -------------------------------------------------------------------
 Cartesian Forces:  Max      .000116463 RMS      .000047767

 GradGradGradGradGradGradGradGradGradGradGradGradGradGradGradGradGradGrad
 Berny optimization.
 Internal  Forces:  Max      .000111071 RMS      .000040605
 Search for a local minimum.
 Step number   6 out of a maximum of  36
 All quantities printed in internal units (Hartrees-Bohrs-Radians)
 Update second derivatives using D2CorX and points  1  2  3  4  5
                                                        6
 Trust test= 1.04D+00 RLast= 5.97D-03 DXMaxT set to 4.24D-01
     Eigenvalues ---     .01979    .02189    .02345    .02650    .14631
     Eigenvalues ---     .15862    .18053    .24405    .37889    .39652
     Eigenvalues ---     .43245    .48614    .49870    .61846    .67189
     Eigenvalues --- 1000.000001000.000001000.000001000.000001000.00000
     Eigenvalues --- 1000.000001000.000001000.000001000.000001000.00000
     Eigenvalues --- 1000.00000
 RFO step:  Lambda=-1.00404439D-07.
 Quartic linear search produced a step of   .06415.
 Iteration  1 RMS(Cart)=   .00019392 RMS(Int)=   .00000004
 Iteration  2 RMS(Cart)=   .00000003 RMS(Int)=   .00000001
 Variable       Old X    -DE/DX   Delta X   Delta X   Delta X     New X
                                 (Linear)    (Quad)   (Total)
    R1        2.60135    .00004    .00008    .00001    .00009   2.60144
    R2        2.76791   -.00005   -.00029    .00000   -.00029   2.76762
    R3        2.71815    .00002   -.00011    .00008   -.00004   2.71811
    R4        1.98407    .00005   -.00001    .00009    .00009   1.98416
    R5        2.63204    .00010    .00002    .00017    .00018   2.63222
    R6        2.58009    .00011    .00003    .00015    .00018   2.58027
    R7        2.07638    .00004   -.00002    .00010    .00009   2.07646
    A1        1.94183    .00004    .00000    .00009    .00008   1.94191
    A2        1.82225    .00001   -.00003   -.00001   -.00004   1.82222
    A3        2.12052   -.00006   -.00005   -.00039   -.00043   2.12009
    A4        1.90687   -.00001    .00004   -.00001    .00003   1.90690
    A5        2.25579    .00007    .00001    .00040    .00041   2.25620
    A6        1.82594    .00000    .00010   -.00003    .00007   1.82601
    A7        1.92788   -.00003   -.00011   -.00003   -.00014   1.92774
    A8        2.14849    .00002    .00012    .00004    .00016   2.14865
    A9        2.20681    .00000   -.00001   -.00001   -.00002   2.20679
    D1         .00000    .00000    .00000    .00000    .00000    .00000
    D2         .00000    .00000    .00000    .00000    .00000    .00000
    D3        3.14159    .00000    .00000    .00000    .00000   3.14159
    D4         .00000    .00000    .00000    .00000    .00000    .00000
    D5         .00000    .00000    .00000    .00000    .00000    .00000
    D6        3.14159    .00000    .00000    .00000    .00000   3.14159
    D7        3.14159    .00000    .00000    .00000    .00000   3.14159
    D8         .00000    .00000    .00000    .00000    .00000    .00000
    D9         .00000    .00000    .00000    .00000    .00000    .00000
   D10        3.14159    .00000    .00000    .00000    .00000   3.14159
         Item               Value     Threshold  Converged?
 Maximum Force             .000111      .000450     YES
 RMS     Force             .000041      .000300     YES
 Maximum Displacement      .000725      .001800     YES
 RMS     Displacement      .000194      .001200     YES
 Predicted change in Energy=-6.490974D-08
 Optimization completed.
    -- Stationary point found.
                           ----------------------------
                           !   Optimized Parameters   !
                           ! (Angstroms and Degrees)  !
 --------------------------                            --------------------------
 ! Name  Definition              Value          Derivative Info.                !
 --------------------------------------------------------------------------------
 ! R1    R(1,2)                  1.3766         -DE/DX =    0.0                 !
 ! R2    R(1,5)                  1.4647         -DE/DX =   -0.0001              !
 ! R3    R(2,3)                  1.4384         -DE/DX =    0.0                 !
 ! R4    R(3,4)                  1.0499         -DE/DX =    0.0001              !
 ! R5    R(3,6)                  1.3928         -DE/DX =    0.0001              !
 ! R6    R(5,6)                  1.3653         -DE/DX =    0.0001              !
 ! R7    R(6,7)                  1.0988         -DE/DX =    0.0                 !
 ! A1    A(2,1,5)              111.2587         -DE/DX =    0.0                 !
 ! A2    A(1,2,3)              104.4075         -DE/DX =    0.0                 !
 ! A3    A(2,3,4)              121.497          -DE/DX =   -0.0001              !
 ! A4    A(2,3,6)              109.2558         -DE/DX =    0.0                 !
 ! A5    A(4,3,6)              129.2472         -DE/DX =    0.0001              !
 ! A6    A(1,5,6)              104.6186         -DE/DX =    0.0                 !
 ! A7    A(3,6,5)              110.4595         -DE/DX =    0.0                 !
 ! A8    A(3,6,7)              123.0997         -DE/DX =    0.0                 !
 ! A9    A(5,6,7)              126.4409         -DE/DX =    0.0                 !
 ! D1    D(5,1,2,3)              0.0            -DE/DX =    0.0                 !
 ! D2    D(2,1,5,6)              0.0            -DE/DX =    0.0                 !
 ! D3    D(1,2,3,4)            180.0            -DE/DX =    0.0                 !
 ! D4    D(1,2,3,6)              0.0            -DE/DX =    0.0                 !
 ! D5    D(2,3,6,5)              0.0            -DE/DX =    0.0                 !
 ! D6    D(2,3,6,7)            180.0            -DE/DX =    0.0                 !
 ! D7    D(4,3,6,5)            180.0            -DE/DX =    0.0                 !
 ! D8    D(4,3,6,7)              0.0            -DE/DX =    0.0                 !
 ! D9    D(1,5,6,3)              0.0            -DE/DX =    0.0                 !
 ! D10   D(1,5,6,7)            180.0            -DE/DX =    0.0                 !
 --------------------------------------------------------------------------------
 GradGradGradGradGradGradGradGradGradGradGradGradGradGradGradGradGradGrad

                          Input orientation:                          
 ---------------------------------------------------------------------
 Center     Atomic     Atomic              Coordinates (Angstroms)
 Number     Number      Type              X           Y           Z
 ---------------------------------------------------------------------
    1          7             0        -.766112   -1.008553     .000000
    2          7             0       -1.215231     .292696     .000000
    3          7             0        -.015082    1.085530     .000000
    4          1             0        -.050849    2.134846     .000000
    5          7             0         .697508   -1.065211     .000000
    6          6             0        1.092940     .241597     .000000
    7          1             0        2.128011     .610278     .000000
 ---------------------------------------------------------------------
                    Distance matrix (angstroms):
                    1          2          3          4          5
     1  N     .000000
     2  N    1.376574    .000000
     3  N    2.224686   1.438382    .000000
     4  H    3.223749   2.179289   1.049926    .000000
     5  N    1.464716   2.345737   2.265716   3.286397    .000000
     6  C    2.240302   2.308736   1.392816   2.211933   1.365325
     7  H    3.316107   3.358292   2.195156   2.659275   2.203089
                    6          7
     6  C     .000000
     7  H    1.098771    .000000
 Stoichiometry    CH2N4
 Framework group  CS[SG(CH2N4)]
 Deg. of freedom    11
 Full point group                 CS      NOp   2
 Largest Abelian subgroup         CS      NOp   2
 Largest concise Abelian subgroup C1      NOp   1
                         Standard orientation:                         
 ---------------------------------------------------------------------
 Center     Atomic     Atomic              Coordinates (Angstroms)
 Number     Number      Type              X           Y           Z
 ---------------------------------------------------------------------
    1          7             0        -.755524    -.988210     .000000
    2          7             0       -1.201848     .314001     .000000
    3          7             0         .000000    1.104256     .000000
    4          1             0        -.033515    2.153647     .000000
    5          7             0         .707972   -1.048009     .000000
    6          6             0        1.106208     .257947     .000000
    7          1             0        2.142068     .624406     .000000
 ---------------------------------------------------------------------
 Rotational constants (GHZ):      9.5318569      9.2334945      4.6901519

 **********************************************************************

            Population analysis using the SCF density.

 **********************************************************************

 Orbital symmetries:
       Occupied  (A') (A') (A') (A') (A') (A') (A') (A') (A') (A')
                 (A') (A') (A") (A') (A") (A") (A') (A')
       Virtual   (A") (A") (A') (A') (A') (A') (A') (A') (A')
 The electronic state is 1-A'.
 Alpha  occ. eigenvalues --  -14.28292 -14.21810 -14.18980 -14.16706 -10.10963
 Alpha  occ. eigenvalues --   -1.04679   -.87542   -.83369   -.61740   -.59735
 Alpha  occ. eigenvalues --    -.53358   -.43042   -.40521   -.29478   -.24749
 Alpha  occ. eigenvalues --    -.23804   -.23222   -.21630
 Alpha virt. eigenvalues --     .03758    .08133    .20658    .23758    .33156
 Alpha virt. eigenvalues --     .34240    .36345    .50070    .56001
          Condensed to atoms (all electrons):
              1          2          3          4          5          6
     1  N    6.580220    .307992   -.041181    .001702    .250794   -.037634
     2  N     .307992   6.554819    .264209   -.016353   -.022350   -.046731
     3  N    -.041181    .264209   6.318387    .330348   -.043421    .390016
     4  H     .001702   -.016353    .330348    .447888    .001342   -.022067
     5  N     .250794   -.022350   -.043421    .001342   6.567865    .413814
     6  C    -.037634   -.046731    .390016   -.022067    .413814   4.844732
     7  H     .001426    .000994   -.019082   -.000432   -.015993    .384509
              7
     1  N     .001426
     2  N     .000994
     3  N    -.019082
     4  H    -.000432
     5  N    -.015993
     6  C     .384509
     7  H     .522286
 Mulliken atomic charges:
              1
     1  N    -.063319
     2  N    -.042579
     3  N    -.199276
     4  H     .257572
     5  N    -.152050
     6  C     .073361
     7  H     .126291
 Sum of Mulliken charges=    .00000
 Atomic charges with hydrogens summed into heavy atoms:
              1
     1  N    -.063319
     2  N    -.042579
     3  N     .058296
     4  H     .000000
     5  N    -.152050
     6  C     .199652
     7  H     .000000
 Sum of Mulliken charges=    .00000
 Electronic spatial extent (au):  <R**2>=   267.6874
 Charge=      .0000 electrons
 Dipole moment (field-independent basis, Debye):
    X=     2.1051    Y=     4.3603    Z=      .0000  Tot=     4.8419
 Quadrupole moment (field-independent basis, Debye-Ang):
   XX=   -27.3511   YY=   -24.6869   ZZ=   -25.9453
   XY=     1.7951   XZ=      .0000   YZ=      .0000
 Traceless Quadrupole moment (field-independent basis, Debye-Ang):
   XX=    -1.3567   YY=     1.3076   ZZ=      .0491
   XY=     1.7951   XZ=      .0000   YZ=      .0000
 Octapole moment (field-independent basis, Debye-Ang**2):
  XXX=     8.3852  YYY=    19.7498  ZZZ=      .0000  XYY=     -.5828
  XXY=     3.7257  XXZ=      .0000  XZZ=    -1.1240  YZZ=     -.3757
  YYZ=      .0000  XYZ=      .0000
 Hexadecapole moment (field-independent basis, Debye-Ang**3):
 XXXX=  -142.4335 YYYY=  -116.8644 ZZZZ=   -17.4780 XXXY=     5.9766
 XXXZ=      .0000 YYYX=     -.8066 YYYZ=      .0000 ZZZX=      .0000
 ZZZY=      .0000 XXYY=   -51.9821 XXZZ=   -28.0641 YYZZ=   -26.4040
 XXYZ=      .0000 YYXZ=      .0000 ZZXY=     -.4768
 N-N= 1.581201092356D+02 E-N=-9.098033314297D+02  KE= 2.503118024148D+02
 Symmetry A'   KE= 2.404487044358D+02
 Symmetry A"   KE= 9.863097978937D+00
 1\1\GINC-HAL2\FOpt\RB3LYP\STO-3G\C1H2N4\RDJ3\03-Aug-2004\0\\#B3LYP/STO
 -3G OPT FREQ\\1htz 1H-Tetrazole casno=288948 method=8 basis=20\\0,1\N,
 -0.753400804,-0.9898291761,0.\N,-1.2025190872,0.3114201137,0.\N,-0.002
 3702049,1.1042536449,0.\H,-0.0381377067,2.1535699781,0.\N,0.7102193654
 ,-1.0464870015,0.\C,1.1056516678,0.2603208363,0.\H,2.1407228145,0.6290
 01937,0.\\Version=IBM64-RS6000-G03RevB.05\State=1-A'\HF=-254.8949735\R
 MSD=1.545e-09\RMSF=4.777e-05\Dipole=0.8245373,1.7172377,0.\PG=CS [SG(C
 1H2N4)]\\@


 FROM AN ANONYMOUS WRITER, ON PERSPECTIVE:

 MAN, DESPITE HIS ARTISTIC PRETENSIONS, HIS SOPHISTICATION AND MANY 
 ACCOMPLISHMENTS, OWES THE FACT OF HIS EXISTENCE TO A SIX-INCH LAYER OF 
 TOPSOIL AND THE FACT THAT IT RAINS.
 Job cpu time:  0 days  0 hours  0 minutes 49.3 seconds.
 File lengths (MBytes):  RWF=     13 Int=      0 D2E=      0 Chk=      6 Scr=      1
 Normal termination of Gaussian 03 at Tue Aug  3 07:59:03 2004.
 Link1:  Proceeding to internal job step number  2.
 ----------------------------------------------------------------
 #N Geom=AllCheck Guess=Read SCRF=Check GenChk RB3LYP/STO-3G Freq
 ----------------------------------------------------------------
 1/10=4,29=7,30=1,38=1,40=1,46=1/1,3;
 2/40=1/2;
 3/6=3,11=2,16=1,25=1,30=1,70=2,71=2,74=-5/1,2,3;
 4/5=1,7=1/1;
 5/5=2,38=6/2;
 8/6=4,10=90,11=11/1;
 11/6=1,8=1,9=11,15=111,16=1/1,2,10;
 10/6=1/2;
 6/7=2,8=2,9=2,10=2,18=1,28=1/1;
 7/8=1,10=1,25=1/1,2,3,16;
 1/10=4,30=1,46=1/3;
 99//99;
 ------------------------------------------------
 1htz 1H-Tetrazole casno=288948 method=8 basis=20
 ------------------------------------------------
 Redundant internal coordinates taken from checkpoint file:
 /wrk/rdj3/Gau-19874.chk
 Charge =  0 Multiplicity = 1
 N,0,-0.753400804,-0.9898291761,0.
 N,0,-1.2025190872,0.3114201137,0.
 N,0,-0.0023702049,1.1042536449,0.
 H,0,-0.0381377067,2.1535699781,0.
 N,0,0.7102193654,-1.0464870015,0.
 C,0,1.1056516678,0.2603208363,0.
 H,0,2.1407228145,0.629001937,0.
 Recover connectivity data from disk.

 GradGradGradGradGradGradGradGradGradGradGradGradGradGradGradGradGradGrad
 Berny optimization.
 Initialization pass.
                           ----------------------------
                           !    Initial Parameters    !
                           ! (Angstroms and Degrees)  !
 --------------------------                            --------------------------
 ! Name  Definition              Value          Derivative Info.                !
 --------------------------------------------------------------------------------
 ! R1    R(1,2)                  1.3766         calculate D2E/DX2 analytically  !
 ! R2    R(1,5)                  1.4647         calculate D2E/DX2 analytically  !
 ! R3    R(2,3)                  1.4384         calculate D2E/DX2 analytically  !
 ! R4    R(3,4)                  1.0499         calculate D2E/DX2 analytically  !
 ! R5    R(3,6)                  1.3928         calculate D2E/DX2 analytically  !
 ! R6    R(5,6)                  1.3653         calculate D2E/DX2 analytically  !
 ! R7    R(6,7)                  1.0988         calculate D2E/DX2 analytically  !
 ! A1    A(2,1,5)              111.2587         calculate D2E/DX2 analytically  !
 ! A2    A(1,2,3)              104.4075         calculate D2E/DX2 analytically  !
 ! A3    A(2,3,4)              121.497          calculate D2E/DX2 analytically  !
 ! A4    A(2,3,6)              109.2558         calculate D2E/DX2 analytically  !
 ! A5    A(4,3,6)              129.2472         calculate D2E/DX2 analytically  !
 ! A6    A(1,5,6)              104.6186         calculate D2E/DX2 analytically  !
 ! A7    A(3,6,5)              110.4595         calculate D2E/DX2 analytically  !
 ! A8    A(3,6,7)              123.0997         calculate D2E/DX2 analytically  !
 ! A9    A(5,6,7)              126.4409         calculate D2E/DX2 analytically  !
 ! D1    D(5,1,2,3)              0.0            calculate D2E/DX2 analytically  !
 ! D2    D(2,1,5,6)              0.0            calculate D2E/DX2 analytically  !
 ! D3    D(1,2,3,4)            180.0            calculate D2E/DX2 analytically  !
 ! D4    D(1,2,3,6)              0.0            calculate D2E/DX2 analytically  !
 ! D5    D(2,3,6,5)              0.0            calculate D2E/DX2 analytically  !
 ! D6    D(2,3,6,7)            180.0            calculate D2E/DX2 analytically  !
 ! D7    D(4,3,6,5)            180.0            calculate D2E/DX2 analytically  !
 ! D8    D(4,3,6,7)              0.0            calculate D2E/DX2 analytically  !
 ! D9    D(1,5,6,3)              0.0            calculate D2E/DX2 analytically  !
 ! D10   D(1,5,6,7)            180.0            calculate D2E/DX2 analytically  !
 --------------------------------------------------------------------------------
 Trust Radius=3.00D-01 FncErr=1.00D-07 GrdErr=1.00D-07
 Number of steps in this run=   2 maximum allowed number of steps=   2.
 GradGradGradGradGradGradGradGradGradGradGradGradGradGradGradGradGradGrad

                          Input orientation:                          
 ---------------------------------------------------------------------
 Center     Atomic     Atomic              Coordinates (Angstroms)
 Number     Number      Type              X           Y           Z
 ---------------------------------------------------------------------
    1          7             0        -.753401    -.989829     .000000
    2          7             0       -1.202519     .311420     .000000
    3          7             0        -.002370    1.104254     .000000
    4          1             0        -.038138    2.153570     .000000
    5          7             0         .710219   -1.046487     .000000
    6          6             0        1.105652     .260321     .000000
    7          1             0        2.140723     .629002     .000000
 ---------------------------------------------------------------------
                    Distance matrix (angstroms):
                    1          2          3          4          5
     1  N     .000000
     2  N    1.376574    .000000
     3  N    2.224686   1.438382    .000000
     4  H    3.223749   2.179289   1.049926    .000000
     5  N    1.464716   2.345737   2.265716   3.286397    .000000
     6  C    2.240302   2.308736   1.392816   2.211933   1.365325
     7  H    3.316107   3.358292   2.195156   2.659275   2.203089
                    6          7
     6  C     .000000
     7  H    1.098771    .000000
 Stoichiometry    CH2N4
 Framework group  CS[SG(CH2N4)]
 Deg. of freedom    11
 Full point group                 CS      NOp   2
 Largest Abelian subgroup         CS      NOp   2
 Largest concise Abelian subgroup C1      NOp   1
                         Standard orientation:                         
 ---------------------------------------------------------------------
 Center     Atomic     Atomic              Coordinates (Angstroms)
 Number     Number      Type              X           Y           Z
 ---------------------------------------------------------------------
    1          7             0        -.755524    -.988210     .000000
    2          7             0       -1.201848     .314001     .000000
    3          7             0         .000000    1.104256     .000000
    4          1             0        -.033515    2.153647     .000000
    5          7             0         .707972   -1.048009     .000000
    6          6             0        1.106208     .257947     .000000
    7          1             0        2.142068     .624406     .000000
 ---------------------------------------------------------------------
 Rotational constants (GHZ):      9.5318569      9.2334945      4.6901519
[...]
 XXXX=  -142.4335 YYYY=  -116.8644 ZZZZ=   -17.4780 XXXY=     5.9766
 XXXZ=      .0000 YYYX=     -.8066 YYYZ=      .0000 ZZZX=      .0000
 ZZZY=      .0000 XXYY=   -51.9821 XXZZ=   -28.0641 YYZZ=   -26.4040
 XXYZ=      .0000 YYXZ=      .0000 ZZXY=     -.4768
 N-N= 1.581201092356D+02 E-N=-9.098033314438D+02  KE= 2.503118024197D+02
 Symmetry A'   KE= 2.404487044412D+02
 Symmetry A"   KE= 9.863097978501D+00
  Exact polarizability:  25.224   1.257  26.116    .000    .000   6.269
 Approx polarizability:  57.266  -1.176  66.843    .000    .000   8.124
 Full mass-weighted force constant matrix:
 Low frequencies ---  -11.5499    -.0006    -.0002     .0003    3.9015    6.7404
 Low frequencies ---  455.0709  630.6024  643.4823
 Diagonal vibrational polarizability:
        1.0548004        .8349776      12.7583934
 Harmonic frequencies (cm**-1), IR intensities (KM/Mole), Raman scattering
 activities (A**4/AMU), depolarization ratios for plane and unpolarized
 incident light, reduced masses (AMU), force constants (mDyne/A),
 and normal coordinates:
                     1                      2                      3
                    A"                     A"                     A"
 Frequencies --   455.0706               630.6024               643.4823
 Red. masses --     1.8716                 2.0505                 8.7200
 Frc consts  --      .2284                  .4804                 2.1274
 IR Inten    --    83.4255                15.1128                 6.8610
 Atom AN      X      Y      Z        X      Y      Z        X      Y      Z
   1   7      .00    .00    .03      .00    .00    .00      .00    .00    .50
   2   7      .00    .00   -.10      .00    .00    .13      .00    .00   -.38
   3   7      .00    .00    .22      .00    .00   -.11      .00    .00    .05
   4   1      .00    .00   -.95      .00    .00   -.86      .00    .00    .62
   5   7      .00    .00    .01      .00    .00   -.14      .00    .00   -.40
   6   6      .00    .00   -.09      .00    .00    .19      .00    .00    .20
   7   1      .00    .00   -.17      .00    .00    .42      .00    .00    .12
                     4                      5                      6
                    A"                     A'                     A'
 Frequencies --   829.1625               894.0405               945.9759
 Red. masses --     1.2532                 6.8395                 5.1456
 Frc consts  --      .5076                 3.2210                 2.7130
 IR Inten    --    11.4608                 2.5359                  .0340
 Atom AN      X      Y      Z        X      Y      Z        X      Y      Z
   1   7      .00    .00    .03     -.14    .23    .00      .19   -.01    .00
   2   7      .00    .00    .00     -.22    .14    .00      .01   -.05    .00
   3   7      .00    .00    .02     -.11   -.10    .00      .02    .35    .00
   4   1      .00    .00    .05      .31   -.09    .00      .59    .38    .00
   5   7      .00    .00    .01      .48   -.21    .00      .04   -.23    .00
   6   6      .00    .00   -.14     -.01   -.12    .00     -.34   -.07    .00
   7   1      .00    .00    .99     -.26    .61    .00     -.28   -.31    .00
                     7                      8                      9
                    A'                     A'                     A'
 Frequencies --  1000.6377              1012.0129              1123.3559
 Red. masses --     8.3133                 2.8652                 1.6178
 Frc consts  --     4.9043                 1.7289                 1.2028
 IR Inten    --    14.7009                16.4967                 7.1643
 Atom AN      X      Y      Z        X      Y      Z        X      Y      Z
   1   7      .51    .15    .00     -.07   -.01    .00     -.07   -.14    .00
   2   7     -.02    .28    .00      .31    .09    .00      .06    .05    .00
   3   7     -.16   -.32    .00     -.14    .03    .00      .07   -.03    .00
   4   1      .12   -.33    .00     -.89    .00    .00      .50   -.03    .00
   5   7     -.23   -.08    .00      .04   -.09    .00     -.02   -.01    .00
   6   6     -.09   -.04    .00     -.07   -.05    .00     -.06    .09    .00
   7   1     -.30    .47    .00     -.16    .18    .00     -.31    .78    .00
                    10                     11                     12
                    A'                     A'                     A'
 Frequencies --  1194.5280              1233.4673              1448.1498
 Red. masses --     7.3888                 2.8421                 3.5063
 Frc consts  --     6.2118                 2.5477                 4.3324
 IR Inten    --      .7538                 1.7974                11.9930
 Atom AN      X      Y      Z        X      Y      Z        X      Y      Z
   1   7     -.05    .46    .00     -.03   -.04    .00      .00    .00    .00
   2   7      .19   -.43    .00      .11    .06    .00     -.07    .06    .00
   3   7      .10   -.12    .00     -.06   -.12    .00      .26   -.14    .00
   4   1      .20   -.15    .00      .60   -.12    .00     -.74   -.21    .00
   5   7     -.08    .05    .00      .11    .23    .00      .07   -.07    .00
   6   6     -.16    .01    .00     -.19   -.09    .00     -.23    .23    .00
   7   1     -.38    .55    .00     -.02   -.69    .00     -.02   -.45    .00
                    13                     14                     15
                    A'                     A'                     A'
 Frequencies --  1489.8364              3493.4402              3711.9725
 Red. masses --     3.1379                 1.1006                 1.0867
 Frc consts  --     4.1036                 7.9136                 8.8219
 IR Inten    --    33.1474                33.5047                74.9248
 Atom AN      X      Y      Z        X      Y      Z        X      Y      Z
   1   7      .05   -.04    .00      .00    .00    .00      .00    .00    .00
   2   7     -.10    .01    .00      .00    .00    .00      .00    .00    .00
   3   7      .16    .06    .00      .00    .00    .00      .00   -.08    .00
   4   1     -.63    .04    .00      .00    .06    .00     -.04   1.00    .00
   5   7      .02    .19    .00      .00    .00    .00      .00    .00    .00
   6   6     -.07   -.30    .00      .09    .03    .00     -.01    .00    .00
   7   1     -.39    .52    .00     -.94   -.33    .00      .05    .01    .00

 -------------------
 - Thermochemistry -
 -------------------
 Temperature   298.150 Kelvin.  Pressure   1.00000 Atm.
 Atom  1 has atomic number  7 and mass  14.00307
 Atom  2 has atomic number  7 and mass  14.00307
 Atom  3 has atomic number  7 and mass  14.00307
 Atom  4 has atomic number  1 and mass   1.00783
 Atom  5 has atomic number  7 and mass  14.00307
 Atom  6 has atomic number  6 and mass  12.00000
 Atom  7 has atomic number  1 and mass   1.00783
 Molecular mass:    70.02795 amu.
 Principal axes and moments of inertia in atomic units:
                           1         2         3
     EIGENVALUES --   189.33784 195.45592 384.79377
           X             .92489    .38023    .00000
           Y            -.38023    .92489    .00000
           Z             .00000    .00000   1.00000
 This molecule is an asymmetric top.
 Rotational symmetry number  1.
 Rotational temperatures (Kelvin)       .45746      .44314      .22509
 Rotational constants (GHZ):           9.53186     9.23349     4.69015
 Zero-point vibrational energy     120259.0 (Joules/Mol)
                                   28.74259 (Kcal/Mol)
 Warning -- explicit consideration of   1 degrees of freedom as
           vibrations may cause significant error
 Vibrational temperatures:    654.74   907.30   925.83  1192.98  1286.32
          (Kelvin)           1361.05  1439.69  1456.06  1616.26  1718.66
                             1774.68  2083.56  2143.54  5026.28  5340.69
 
 Zero-point correction=                            .045804 (Hartree/Particle)
 Thermal correction to Energy=                     .049486
 Thermal correction to Enthalpy=                   .050431
 Thermal correction to Gibbs Free Energy=          .019464
 Sum of electronic and zero-point Energies=           -254.849169
 Sum of electronic and thermal Energies=              -254.845487
 Sum of electronic and thermal Enthalpies=            -254.844543
 Sum of electronic and thermal Free Energies=         -254.875510
 
                     E (Thermal)             CV                S
                      KCal/Mol        Cal/Mol-Kelvin    Cal/Mol-Kelvin
 Total                   31.053             12.334             65.175
 Electronic                .000               .000               .000
 Translational             .889              2.981             38.656
 Rotational                .889              2.981             24.169
 Vibrational             29.276              6.372              2.350
 Vibration  1              .813              1.350               .781
                       Q            Log10(Q)             Ln(Q)
 Total Bot        .111486D-08         -8.952779        -20.614535
 Total V=0        .130516D+13         12.115662         27.897344
 Vib (Bot)        .113307D-20        -20.945745        -48.229359
 Vib (Bot)  1     .375282D+00          -.425643          -.980078
 Vib (V=0)        .132647D+01           .122697           .282519
 Vib (V=0)  1     .112517D+01           .051218           .117933
 Electronic       .100000D+01           .000000           .000000
 Translational    .230336D+08          7.362362         16.952466
 Rotational       .427173D+05          4.630604         10.662359
 ***** Axes restored to original set *****
 -------------------------------------------------------------------
 Center     Atomic                   Forces (Hartrees/Bohr)
 Number     Number              X              Y              Z
 -------------------------------------------------------------------
    1          7            .000072604    -.000017325     .000000000
    2          7           -.000045375     .000040741     .000000000
    3          7            .000015924     .000018926     .000000000
    4          1           -.000062334     .000050442     .000000000
    5          7           -.000098861    -.000116463     .000000000
    6          6            .000077663     .000024158     .000000000
    7          1            .000040378    -.000000479     .000000000
 -------------------------------------------------------------------
 Cartesian Forces:  Max      .000116463 RMS      .000047767

 GradGradGradGradGradGradGradGradGradGradGradGradGradGradGradGradGradGrad
 Berny optimization.
 Internal  Forces:  Max      .000111071 RMS      .000040605
 Search for a local minimum.
 Step number   1 out of a maximum of   2
 All quantities printed in internal units (Hartrees-Bohrs-Radians)
 Second derivative matrix not updated -- analytic derivatives used.
     Eigenvalues ---     .00607    .02479    .06024    .06866    .10093
     Eigenvalues ---     .10705    .17674    .24100    .33570    .38626
     Eigenvalues ---     .42710    .44270    .48892    .54794    .58908
     Eigenvalues --- 1000.000001000.000001000.000001000.000001000.00000
     Eigenvalues --- 1000.000001000.000001000.000001000.000001000.00000
     Eigenvalues --- 1000.00000
 Angle between quadratic step and forces=  38.61 degrees.
 Linear search not attempted -- first point.
 Iteration  1 RMS(Cart)=   .00025478 RMS(Int)=   .00000007
 Iteration  2 RMS(Cart)=   .00000007 RMS(Int)=   .00000000
 Variable       Old X    -DE/DX   Delta X   Delta X   Delta X     New X
                                 (Linear)    (Quad)   (Total)
    R1        2.60135    .00004    .00000    .00012    .00012   2.60147
    R2        2.76791   -.00005    .00000   -.00031   -.00031   2.76760
    R3        2.71815    .00002    .00000    .00001    .00001   2.71816
    R4        1.98407    .00005    .00000    .00011    .00011   1.98418
    R5        2.63204    .00010    .00000    .00017    .00017   2.63221
    R6        2.58009    .00011    .00000    .00026    .00026   2.58035
    R7        2.07638    .00004    .00000    .00009    .00009   2.07647
    A1        1.94183    .00004    .00000    .00006    .00006   1.94189
    A2        1.82225    .00001    .00000   -.00002   -.00002   1.82224
    A3        2.12052   -.00006    .00000   -.00064   -.00064   2.11989
    A4        1.90687   -.00001    .00000    .00002    .00002   1.90689
    A5        2.25579    .00007    .00000    .00062    .00062   2.25641
    A6        1.82594    .00000    .00000    .00009    .00009   1.82603
    A7        1.92788   -.00003    .00000   -.00015   -.00015   1.92773
    A8        2.14849    .00002    .00000    .00016    .00016   2.14866
    A9        2.20681    .00000    .00000   -.00001   -.00001   2.20680
    D1         .00000    .00000    .00000    .00000    .00000    .00000
    D2         .00000    .00000    .00000    .00000    .00000    .00000
    D3        3.14159    .00000    .00000    .00000    .00000   3.14159
    D4         .00000    .00000    .00000    .00000    .00000    .00000
    D5         .00000    .00000    .00000    .00000    .00000    .00000
    D6        3.14159    .00000    .00000    .00000    .00000   3.14159
    D7        3.14159    .00000    .00000    .00000    .00000   3.14159
    D8         .00000    .00000    .00000    .00000    .00000    .00000
    D9         .00000    .00000    .00000    .00000    .00000    .00000
   D10        3.14159    .00000    .00000    .00000    .00000   3.14159
         Item               Value     Threshold  Converged?
 Maximum Force             .000111      .000450     YES
 RMS     Force             .000041      .000300     YES
 Maximum Displacement      .000978      .001800     YES
 RMS     Displacement      .000255      .001200     YES
 Predicted change in Energy=-8.396301D-08
 Optimization completed.
    -- Stationary point found.
                           ----------------------------
                           !   Optimized Parameters   !
                           ! (Angstroms and Degrees)  !
 --------------------------                            --------------------------
 ! Name  Definition              Value          Derivative Info.                !
 --------------------------------------------------------------------------------
 ! R1    R(1,2)                  1.3766         -DE/DX =    0.0                 !
 ! R2    R(1,5)                  1.4647         -DE/DX =   -0.0001              !
 ! R3    R(2,3)                  1.4384         -DE/DX =    0.0                 !
 ! R4    R(3,4)                  1.0499         -DE/DX =    0.0001              !
 ! R5    R(3,6)                  1.3928         -DE/DX =    0.0001              !
 ! R6    R(5,6)                  1.3653         -DE/DX =    0.0001              !
 ! R7    R(6,7)                  1.0988         -DE/DX =    0.0                 !
 ! A1    A(2,1,5)              111.2587         -DE/DX =    0.0                 !
 ! A2    A(1,2,3)              104.4075         -DE/DX =    0.0                 !
 ! A3    A(2,3,4)              121.497          -DE/DX =   -0.0001              !
 ! A4    A(2,3,6)              109.2558         -DE/DX =    0.0                 !
 ! A5    A(4,3,6)              129.2472         -DE/DX =    0.0001              !
 ! A6    A(1,5,6)              104.6186         -DE/DX =    0.0                 !
 ! A7    A(3,6,5)              110.4595         -DE/DX =    0.0                 !
 ! A8    A(3,6,7)              123.0997         -DE/DX =    0.0                 !
 ! A9    A(5,6,7)              126.4409         -DE/DX =    0.0                 !
 ! D1    D(5,1,2,3)              0.0            -DE/DX =    0.0                 !
 ! D2    D(2,1,5,6)              0.0            -DE/DX =    0.0                 !
 ! D3    D(1,2,3,4)            180.0            -DE/DX =    0.0                 !
 ! D4    D(1,2,3,6)              0.0            -DE/DX =    0.0                 !
 ! D5    D(2,3,6,5)              0.0            -DE/DX =    0.0                 !
 ! D6    D(2,3,6,7)            180.0            -DE/DX =    0.0                 !
 ! D7    D(4,3,6,5)            180.0            -DE/DX =    0.0                 !
 ! D8    D(4,3,6,7)              0.0            -DE/DX =    0.0                 !
 ! D9    D(1,5,6,3)              0.0            -DE/DX =    0.0                 !
 ! D10   D(1,5,6,7)            180.0            -DE/DX =    0.0                 !
 --------------------------------------------------------------------------------
 GradGradGradGradGradGradGradGradGradGradGradGradGradGradGradGradGradGrad

 1\1\GINC-HAL2\Freq\RB3LYP\STO-3G\C1H2N4\RDJ3\03-Aug-2004\0\\#N GEOM=AL
 LCHECK GUESS=READ SCRF=CHECK GENCHK RB3LYP/STO-3G FREQ\\1htz 1H-Tetraz
 ole casno=288948 method=8 basis=20\\0,1\N,-0.753400804,-0.9898291761,0
 .\N,-1.2025190872,0.3114201137,0.\N,-0.0023702049,1.1042536449,0.\H,-0
 .0381377067,2.1535699781,0.\N,0.7102193654,-1.0464870015,0.\C,1.105651
 6678,0.2603208363,0.\H,2.1407228145,0.629001937,0.\\Version=IBM64-RS60
 00-G03RevB.05\State=1-A'\HF=-254.8949735\RMSD=2.194e-10\RMSF=4.777e-05
 \Dipole=0.8245373,1.7172377,0.\DipoleDeriv=0.0587248,0.21066,0.,0.1578
 79,-0.0728256,0.,0.,0.,-0.1470533,0.0616329,0.3050998,0.,0.0835352,0.0
 769932,0.,0.,0.,-0.0541515,-0.232821,-0.0835564,0.,-0.129729,-0.441692
 4,0.,0.,0.,-0.2071222,0.2012996,-0.0376742,0.,-0.009788,0.2493953,0.,0
 .,0.,0.3402994,-0.3504085,-0.1889831,0.,-0.1733586,-0.0935556,0.,0.,0.
 ,-0.1610421,0.0583592,-0.2406826,0.,0.0701952,0.177453,0.,0.,0.,0.0995
 896,0.203213,0.0351365,0.,0.0012663,0.1042322,0.,0.,0.,0.1294801\Polar
 =25.2186056,1.2549019,26.1215362,0.,0.,6.2689604\PG=CS [SG(C1H2N4)]\NI
 mag=0\\0.37009415,0.05080130,0.49670920,0.,0.,0.09388127,-0.12153347,0
 .02846200,0.,0.48886865,0.08702924,-0.26930476,0.,-0.05538197,0.420604
 26,0.,0.,-0.07086513,0.,0.,0.08200340,-0.01734149,-0.05985234,0.,-0.22
 635906,-0.06674752,0.,0.58044635,0.00831280,-0.12745274,0.,-0.03988341
 ,-0.10890769,0.,-0.08560645,1.00504781,0.,0.,0.01625088,0.,0.,-0.04515
 939,0.,0.,0.05959009,-0.00949202,-0.00866811,0.,0.02027043,-0.01978446
 ,0.,-0.07310909,0.01640855,0.,0.05304663,-0.00157414,0.00116224,0.,0.0
 0864203,-0.00483438,0.,0.02166814,-0.48541136,0.,-0.01620883,0.4869133
 6,0.,0.,0.00722486,0.,0.,-0.01152178,0.,0.,-0.00150640,0.,0.,0.0100849
 0,-0.15782652,0.00503143,0.,-0.06681331,0.10095784,0.,0.01982312,-0.02
 933794,0.,-0.00548882,0.00047355,0.,0.33760866,-0.02742300,-0.08138004
 ,0.,0.00074206,-0.03514887,0.,0.08423274,-0.09630968,0.,0.00794382,0.0
 0187163,0.,0.00344360,0.56265527,0.,0.,-0.06885342,0.,0.,0.02636086,0.
 ,0.,0.01839513,0.,0.,0.00601566,0.,0.,0.08588142,-0.06446972,-0.017936
 61,0.,-0.09729211,-0.04790442,0.,-0.27005230,0.14414412,0.,0.01412124,
 -0.01383497,0.,-0.13041241,-0.07215218,0.,0.92690169,-0.11419086,-0.01
 487791,0.,0.05396808,0.00407766,0.,0.07862611,-0.19823945,0.,0.0202702
 7,-0.00023375,0.,-0.05352128,-0.35435989,0.,0.12693481,0.65984491,0.,0
 .,0.01268223,0.,0.,0.01449414,0.,0.,-0.04509801,0.,0.,-0.00944097,0.,0
 .,-0.06210394,0.,0.,0.11685608,0.00056907,0.00216234,0.,0.00285887,0.0
 0183129,0.,-0.01340753,-0.01403767,0.,0.00065164,0.00083423,0.,0.00310
 928,0.00321295,0.,-0.37879639,-0.11208713,0.,0.38501507,-0.00295534,-0
 .00485598,0.,0.00345121,-0.00648622,0.,0.02767932,0.01127310,0.,0.0000
 3875,0.00053226,0.,-0.02704720,0.00267158,0.,-0.11925074,-0.09621157,0
 .,0.11808400,0.09307684,0.,0.,0.00967932,0.,0.,0.00468790,0.,0.,-0.002
 47230,0.,0.,-0.00085626,0.,0.,-0.00569572,0.,0.,-0.02738953,0.,0.,0.02
 204660\\-0.00007260,0.00001733,0.,0.00004537,-0.00004074,0.,-0.0000159
 2,-0.00001893,0.,0.00006233,-0.00005044,0.,0.00009886,0.00011646,0.,-0
 .00007766,-0.00002416,0.,-0.00004038,0.00000048,0.\\\@


 LOGIC IS A SYSTEMATIC METHOD OF COMING TO THE
 WRONG CONCLUSION WITH CONFIDENCE.
 Job cpu time:  0 days  0 hours  0 minutes 21.1 seconds.
 File lengths (MBytes):  RWF=     13 Int=      0 D2E=      0 Chk=      6 Scr=      1
 Normal termination of Gaussian 03 at Tue Aug  3 07:59:24 2004.
