 host = p601 (kernel = 2.6.18-92.el5)
 Running revision A02

 Current disk usage on p601
/dev/hda1              69G   11G   55G  17% /

 START DATE Tue Feb  1 08:47:05 EST 2011
 GAUSS_LFLAGS = '-nodelist "p601"'
 Entering Gaussian System, Link 0=/usr/local/gaussian09-A02-64/g09/g09
 Initial command:
 /usr/local/gaussian09-A02-64/g09/l1.exe /gaussian/Gau-10322.inp -scrdir=/gaussian/
 Entering Link 1 = /usr/local/gaussian09-A02-64/g09/l1.exe PID=     10324.
  
 Copyright (c) 1988,1990,1992,1993,1995,1998,2003,2009, Gaussian, Inc.
                  All Rights Reserved.
  
 This is part of the Gaussian(R) 09 program.  It is based on
 the Gaussian(R) 03 system (copyright 2003, Gaussian, Inc.),
 the Gaussian(R) 98 system (copyright 1998, Gaussian, Inc.),
 the Gaussian(R) 94 system (copyright 1995, Gaussian, Inc.),
 the Gaussian 92(TM) system (copyright 1992, Gaussian, Inc.),
 the Gaussian 90(TM) system (copyright 1990, Gaussian, Inc.),
 the Gaussian 88(TM) system (copyright 1988, Gaussian, Inc.),
 the Gaussian 86(TM) system (copyright 1986, Carnegie Mellon
 University), and the Gaussian 82(TM) system (copyright 1983,
 Carnegie Mellon University). Gaussian is a federally registered
 trademark of Gaussian, Inc.
  
 This software contains proprietary and confidential information,
 including trade secrets, belonging to Gaussian, Inc.
  
 This software is provided under written license and may be
 used, copied, transmitted, or stored only in accord with that
 written license.
  
 The following legend is applicable only to US Government
 contracts under FAR:
  
                    RESTRICTED RIGHTS LEGEND
  
 Use, reproduction and disclosure by the US Government is
 subject to restrictions as set forth in subparagraphs (a)
 and (c) of the Commercial Computer Software - Restricted
 Rights clause in FAR 52.227-19.
  
 Gaussian, Inc.
 340 Quinnipiac St., Bldg. 40, Wallingford CT 06492
  
  
 ---------------------------------------------------------------
 Warning -- This program may not be used in any manner that
 competes with the business of Gaussian, Inc. or will provide
 assistance to any competitor of Gaussian, Inc.  The licensee
 of this program is prohibited from giving any competitor of
 Gaussian, Inc. access to this program.  By using this program,
 the user acknowledges that Gaussian, Inc. is engaged in the
 business of creating and licensing software in the field of
 computational chemistry and represents and warrants to the
 licensee that it is not a competitor of Gaussian, Inc. and that
 it will not use this program in any manner prohibited above.
 ---------------------------------------------------------------
  

 Cite this work as:
 Gaussian 09, Revision A.02,
 M. J. Frisch, G. W. Trucks, H. B. Schlegel, G. E. Scuseria, 
 M. A. Robb, J. R. Cheeseman, G. Scalmani, V. Barone, B. Mennucci, 
 G. A. Petersson, H. Nakatsuji, M. Caricato, X. Li, H. P. Hratchian, 
 A. F. Izmaylov, J. Bloino, G. Zheng, J. L. Sonnenberg, M. Hada, 
 M. Ehara, K. Toyota, R. Fukuda, J. Hasegawa, M. Ishida, T. Nakajima, 
 Y. Honda, O. Kitao, H. Nakai, T. Vreven, J. A. Montgomery, Jr., 
 J. E. Peralta, F. Ogliaro, M. Bearpark, J. J. Heyd, E. Brothers, 
 K. N. Kudin, V. N. Staroverov, R. Kobayashi, J. Normand, 
 K. Raghavachari, A. Rendell, J. C. Burant, S. S. Iyengar, J. Tomasi, 
 M. Cossi, N. Rega, J. M. Millam, M. Klene, J. E. Knox, J. B. Cross, 
 V. Bakken, C. Adamo, J. Jaramillo, R. Gomperts, R. E. Stratmann, 
 O. Yazyev, A. J. Austin, R. Cammi, C. Pomelli, J. W. Ochterski, 
 R. L. Martin, K. Morokuma, V. G. Zakrzewski, G. A. Voth, 
 P. Salvador, J. J. Dannenberg, S. Dapprich, A. D. Daniels, 
 O. Farkas, J. B. Foresman, J. V. Ortiz, J. Cioslowski, 
 and D. J. Fox, Gaussian, Inc., Wallingford CT, 2009.
 
 ******************************************
 Gaussian 09:  AM64L-G09RevA.02 11-Jun-2009
                 1-Feb-2011 
 ******************************************
 %mem=24000000
 --------------------
 #B3LYP/TZVP opt freq
 --------------------
 1/14=-1,18=20,19=15,26=3,38=1/1,3;
 2/9=110,12=2,17=6,18=5,40=1/2;
 3/5=19,7=101,11=2,16=1,25=1,30=1,71=1,74=-5/1,2,3;
 4//1;
 5/5=2,38=5/2;
 6/7=2,8=2,9=2,10=2,28=1/1;
 7//1,2,3,16;
 1/14=-1,18=20,19=15/3(2);
 2/9=110/2;
 99//99;
 2/9=110/2;
 3/5=19,7=101,11=2,16=1,25=1,30=1,71=1,74=-5/1,2,3;
 4/5=5,16=3/1;
 5/5=2,38=5/2;
 7//1,2,3,16;
 1/14=-1,18=20,19=15/3(-5);
 2/9=110/2;
 6/7=2,8=2,9=2,10=2,19=2,28=1/1;
 99/9=1/99;
 ----------------------------------------------------------
 1H tetrazole c CH-NH-N=N-N= casno=288948 method=8 basis=32
 ----------------------------------------------------------
 Symbolic Z-matrix:
 Charge =  0 Multiplicity = 1
 7                    -1.12329  -0.25456   0. 
 7                    -0.67158   0.91328   0. 
 7                     0.65055   0.80984   0. 
 1                     1.224     1.62189   0. 
 7                    -0.13465  -1.16105   0. 
 6                     0.96218  -0.48332   0. 
 1                     1.95569  -0.87454   0. 
 

 GradGradGradGradGradGradGradGradGradGradGradGradGradGradGradGradGradGrad
 Berny optimization.
 Initialization pass.
                           ----------------------------
                           !    Initial Parameters    !
                           ! (Angstroms and Degrees)  !
 --------------------------                            --------------------------
 ! Name  Definition              Value          Derivative Info.                !
 --------------------------------------------------------------------------------
 ! R1    R(1,2)                  1.2522         estimate D2E/DX2                !
 ! R2    R(1,5)                  1.3413         estimate D2E/DX2                !
 ! R3    R(2,3)                  1.3262         estimate D2E/DX2                !
 ! R4    R(3,4)                  0.9941         estimate D2E/DX2                !
 ! R5    R(3,6)                  1.3302         estimate D2E/DX2                !
 ! R6    R(5,6)                  1.2893         estimate D2E/DX2                !
 ! R7    R(6,7)                  1.0678         estimate D2E/DX2                !
 ! A1    A(2,1,5)              111.3714         estimate D2E/DX2                !
 ! A2    A(1,2,3)              106.673          estimate D2E/DX2                !
 ! A3    A(2,3,4)              120.7559         estimate D2E/DX2                !
 ! A4    A(2,3,6)              108.0227         estimate D2E/DX2                !
 ! A5    A(4,3,6)              131.2214         estimate D2E/DX2                !
 ! A6    A(1,5,6)              105.77           estimate D2E/DX2                !
 ! A7    A(3,6,5)              108.1628         estimate D2E/DX2                !
 ! A8    A(3,6,7)              125.0426         estimate D2E/DX2                !
 ! A9    A(5,6,7)              126.7945         estimate D2E/DX2                !
 ! D1    D(5,1,2,3)              0.0            estimate D2E/DX2                !
 ! D2    D(2,1,5,6)              0.0            estimate D2E/DX2                !
 ! D3    D(1,2,3,4)            180.0            estimate D2E/DX2                !
 ! D4    D(1,2,3,6)              0.0            estimate D2E/DX2                !
 ! D5    D(2,3,6,5)              0.0            estimate D2E/DX2                !
 ! D6    D(2,3,6,7)            180.0            estimate D2E/DX2                !
 ! D7    D(4,3,6,5)            180.0            estimate D2E/DX2                !
 ! D8    D(4,3,6,7)              0.0            estimate D2E/DX2                !
 ! D9    D(1,5,6,3)              0.0            estimate D2E/DX2                !
 ! D10   D(1,5,6,7)            180.0            estimate D2E/DX2                !
 --------------------------------------------------------------------------------
 Trust Radius=3.00D-01 FncErr=1.00D-07 GrdErr=1.00D-06
 Number of steps in this run=  36 maximum allowed number of steps= 100.
 GradGradGradGradGradGradGradGradGradGradGradGradGradGradGradGradGradGrad

                          Input orientation:                          
 ---------------------------------------------------------------------
 Center     Atomic      Atomic             Coordinates (Angstroms)
 Number     Number       Type             X           Y           Z
 ---------------------------------------------------------------------
      1          7           0       -1.123293   -0.254560    0.000000
      2          7           0       -0.671576    0.913277    0.000000
      3          7           0        0.650545    0.809842    0.000000
      4          1           0        1.224004    1.621891    0.000000
      5          7           0       -0.134646   -1.161053    0.000000
      6          6           0        0.962183   -0.483316    0.000000
      7          1           0        1.955691   -0.874535    0.000000
 ---------------------------------------------------------------------
                    Distance matrix (angstroms):
                    1          2          3          4          5
     1  N    0.000000
     2  N    1.252155   0.000000
     3  N    2.068684   1.326161   0.000000
     4  H    3.005141   2.023699   0.994122   0.000000
     5  N    1.341325   2.142694   2.121545   3.096887   0.000000
     6  C    2.097985   2.149335   1.330179   2.121426   1.289326
     7  H    3.140782   3.177861   2.130852   2.601444   2.109882
                    6          7
     6  C    0.000000
     7  H    1.067760   0.000000
 Stoichiometry    CH2N4
 Framework group  CS[SG(CH2N4)]
 Deg. of freedom    11
 Full point group                 CS      NOp   2
 Largest Abelian subgroup         CS      NOp   2
 Largest concise Abelian subgroup C1      NOp   1
                         Standard orientation:                         
 ---------------------------------------------------------------------
 Center     Atomic      Atomic             Coordinates (Angstroms)
 Number     Number       Type             X           Y           Z
 ---------------------------------------------------------------------
      1          7           0       -0.716312   -0.901934    0.000000
      2          7           0       -1.095520    0.291420    0.000000
      3          7           0        0.000000    1.038775    0.000000
      4          1           0       -0.061479    2.030994    0.000000
      5          7           0        0.622151   -0.989495    0.000000
      6          6           0        1.052813    0.225779    0.000000
      7          1           0        2.072370    0.542976    0.000000
 ---------------------------------------------------------------------
 Rotational constants (GHZ):     10.9198664     10.7343935      5.4131678
 Standard basis: TZVP (5D, 7F)
 There are    80 symmetry adapted basis functions of A'  symmetry.
 There are    27 symmetry adapted basis functions of A"  symmetry.
 Integral buffers will be    131072 words long.
 Raffenetti 2 integral format.
 Two-electron integral symmetry is turned on.
   107 basis functions,   191 primitive gaussians,   112 cartesian basis functions
    18 alpha electrons       18 beta electrons
       nuclear repulsion energy       169.8288292541 Hartrees.
 NAtoms=    7 NActive=    7 NUniq=    7 SFac= 7.50D-01 NAtFMM=   80 NAOKFM=F Big=F
 One-electron integrals computed using PRISM.
 NBasis=   107 RedAO= T  NBF=    80    27
 NBsUse=   107 1.00D-06 NBFU=    80    27
 Harris functional with IExCor=  402 diagonalized for initial guess.
 ExpMin= 9.52D-02 ExpMax= 1.97D+04 ExpMxC= 6.73D+02 IAcc=2 IRadAn=         0 AccDes= 0.00D+00
 HarFok:  IExCor=  402 AccDes= 0.00D+00 IRadAn=         0 IDoV= 1
 ScaDFX=  1.000000  1.000000  1.000000  1.000000
 FoFCou: FMM=F IPFlag=           0 FMFlag=      100000 FMFlg1=           0
         NFxFlg=           0 DoJE=T BraDBF=F KetDBF=T FulRan=T
         Omega=  0.000000  0.000000  1.000000  0.000000  0.000000 ICntrl=     500 IOpCl=  0
         NMat0=    1 NMatS0=    1 NMatT0=    0 NMatD0=    1 NMtDS0=    0 NMtDT0=    0
         I1Cent=           4 NGrid=           0.
 Petite list used in FoFCou.
 Initial guess orbital symmetries:
       Occupied  (A') (A') (A') (A') (A') (A') (A') (A') (A') (A')
                 (A') (A') (A") (A') (A") (A') (A") (A')
       Virtual   (A") (A") (A') (A') (A') (A') (A') (A') (A") (A')
                 (A') (A') (A') (A") (A') (A") (A') (A') (A') (A')
                 (A") (A') (A") (A') (A') (A') (A') (A') (A') (A')
                 (A') (A") (A') (A') (A") (A') (A") (A") (A') (A")
                 (A') (A") (A') (A') (A") (A') (A') (A') (A") (A')
                 (A') (A') (A") (A') (A") (A') (A") (A') (A') (A")
                 (A') (A') (A') (A') (A') (A') (A") (A") (A') (A')
                 (A') (A') (A") (A") (A') (A") (A') (A') (A') (A')
                 (A') (A') (A') (A') (A') (A') (A') (A') (A')
 The electronic state of the initial guess is 1-A'.
 Requested convergence on RMS density matrix=1.00D-08 within 128 cycles.
 Requested convergence on MAX density matrix=1.00D-06.
 Requested convergence on             energy=1.00D-06.
 No special actions if energy rises.
 Keep R1 ints in memory in canonical form, NReq=21074773.
 Integral accuracy reduced to 1.0D-05 until final iterations.
 Initial convergence to 1.0D-05 achieved.  Increase integral accuracy.
 SCF Done:  E(RB3LYP) =  -258.333336063     A.U. after   14 cycles
             Convg  =    0.5247D-08             -V/T =  2.0027

 **********************************************************************

            Population analysis using the SCF density.

 **********************************************************************

 Orbital symmetries:
       Occupied  (A') (A') (A') (A') (A') (A') (A') (A') (A') (A')
                 (A') (A") (A') (A') (A") (A") (A') (A')
       Virtual   (A") (A') (A") (A') (A') (A') (A') (A") (A') (A')
                 (A') (A') (A") (A') (A") (A') (A') (A') (A') (A')
                 (A") (A") (A') (A') (A') (A') (A') (A') (A') (A')
                 (A') (A") (A') (A') (A") (A') (A") (A") (A') (A')
                 (A") (A") (A') (A') (A") (A') (A') (A') (A') (A")
                 (A') (A") (A') (A') (A') (A") (A') (A") (A') (A")
                 (A') (A') (A') (A') (A') (A") (A') (A") (A') (A')
                 (A') (A') (A") (A") (A') (A") (A') (A') (A') (A')
                 (A') (A') (A') (A') (A') (A') (A') (A') (A')
 The electronic state is 1-A'.
 Alpha  occ. eigenvalues --  -14.43492 -14.39904 -14.38054 -14.35108 -10.26780
 Alpha  occ. eigenvalues --   -1.18326  -0.97101  -0.92091  -0.69972  -0.68768
 Alpha  occ. eigenvalues --   -0.61909  -0.52305  -0.51812  -0.39661  -0.34963
 Alpha  occ. eigenvalues --   -0.32943  -0.31426  -0.29774
 Alpha virt. eigenvalues --   -0.02816   0.00773   0.00865   0.06250   0.10902
 Alpha virt. eigenvalues --    0.12066   0.16420   0.19125   0.23562   0.26837
 Alpha virt. eigenvalues --    0.27713   0.31700   0.32856   0.34325   0.35322
 Alpha virt. eigenvalues --    0.36795   0.38085   0.41089   0.43554   0.44761
 Alpha virt. eigenvalues --    0.45108   0.48583   0.50873   0.52971   0.53678
 Alpha virt. eigenvalues --    0.57683   0.60029   0.63403   0.66804   0.68605
 Alpha virt. eigenvalues --    0.73168   1.18560   1.22945   1.27049   1.29779
 Alpha virt. eigenvalues --    1.33624   1.41396   1.49696   1.60784   1.67150
 Alpha virt. eigenvalues --    1.68732   1.75950   1.77914   1.81522   1.83048
 Alpha virt. eigenvalues --    1.85439   1.87953   1.94050   1.97234   1.97257
 Alpha virt. eigenvalues --    2.01680   2.02837   2.04726   2.08806   2.10368
 Alpha virt. eigenvalues --    2.11545   2.13602   2.15012   2.20610   2.22742
 Alpha virt. eigenvalues --    2.26864   2.30422   2.40583   2.41800   2.55105
 Alpha virt. eigenvalues --    2.60293   2.61241   2.64326   2.67193   2.69510
 Alpha virt. eigenvalues --    2.80320   2.84691   2.86193   2.91717   2.92235
 Alpha virt. eigenvalues --    2.99382   3.19719   3.40710   3.50909   3.62310
 Alpha virt. eigenvalues --    3.82134   3.97834   4.05412   4.34142  21.99724
 Alpha virt. eigenvalues --   31.30060  31.60150  31.65438  31.70808
          Condensed to atoms (all electrons):
              1          2          3          4          5          6
     1  N    6.818381   0.183116  -0.031580   0.008420   0.132472  -0.039027
     2  N    0.183116   6.960147   0.053384  -0.031269  -0.010365  -0.086555
     3  N   -0.031580   0.053384   6.583908   0.339003  -0.151200   0.328454
     4  H    0.008420  -0.031269   0.339003   0.458418   0.010420  -0.047257
     5  N    0.132472  -0.010365  -0.151200   0.010420   6.651107   0.452519
     6  C   -0.039027  -0.086555   0.328454  -0.047257   0.452519   5.083638
     7  H    0.005765   0.005271  -0.035305  -0.000518  -0.017427   0.405403
              7
     1  N    0.005765
     2  N    0.005271
     3  N   -0.035305
     4  H   -0.000518
     5  N   -0.017427
     6  C    0.405403
     7  H    0.496954
 Mulliken atomic charges:
              1
     1  N   -0.077547
     2  N   -0.073729
     3  N   -0.086662
     4  H    0.262783
     5  N   -0.067526
     6  C   -0.097176
     7  H    0.139857
 Sum of Mulliken atomic charges =   0.00000
 Mulliken charges with hydrogens summed into heavy atoms:
              1
     1  N   -0.077547
     2  N   -0.073729
     3  N    0.176121
     5  N   -0.067526
     6  C    0.042681
 Sum of Mulliken charges with hydrogens summed into heavy atoms =   0.00000
 Electronic spatial extent (au):  <R**2>=            245.3683
 Charge=              0.0000 electrons
 Dipole moment (field-independent basis, Debye):
    X=              2.5417    Y=              4.8495    Z=              0.0000  Tot=              5.4752
 Quadrupole moment (field-independent basis, Debye-Ang):
   XX=            -29.4376   YY=            -26.9434   ZZ=            -28.3341
   XY=              1.8226   XZ=              0.0000   YZ=              0.0000
 Traceless Quadrupole moment (field-independent basis, Debye-Ang):
   XX=             -1.1992   YY=              1.2950   ZZ=             -0.0958
   XY=              1.8226   XZ=              0.0000   YZ=              0.0000
 Octapole moment (field-independent basis, Debye-Ang**2):
  XXX=             11.9989  YYY=             22.6162  ZZZ=              0.0000  XYY=             -0.5654
  XXY=              4.7299  XXZ=              0.0000  XZZ=             -0.6418  YZZ=              0.6886
  YYZ=              0.0000  XYZ=              0.0000
 Hexadecapole moment (field-independent basis, Debye-Ang**3):
 XXXX=           -143.3662 YYYY=           -121.5127 ZZZZ=            -26.5636 XXXY=              6.6924
 XXXZ=              0.0000 YYYX=             -0.2706 YYYZ=              0.0000 ZZZX=              0.0000
 ZZZY=              0.0000 XXYY=            -53.9560 XXZZ=            -30.7423 YYZZ=            -29.0327
 XXYZ=              0.0000 YYXZ=              0.0000 ZZXY=             -0.0127
 N-N= 1.698288292541D+02 E-N=-9.429777993719D+02  KE= 2.576279742624D+02
 Symmetry A'   KE= 2.480460551176D+02
 Symmetry A"   KE= 9.581919144816D+00
 Calling FoFJK, ICntrl=      2127 FMM=F ISym2X=1 I1Cent= 0 IOpClX= 0 NMat=1 NMatS=1 NMatT=0.
 ***** Axes restored to original set *****
 -------------------------------------------------------------------
 Center     Atomic                   Forces (Hartrees/Bohr)
 Number     Number              X              Y              Z
 -------------------------------------------------------------------
      1        7          -0.031646339   -0.023033423    0.000000000
      2        7          -0.009564092    0.040300601    0.000000000
      3        7           0.012160867    0.005431260    0.000000000
      4        1           0.007320324    0.010418105    0.000000000
      5        7          -0.005337994   -0.028252957    0.000000000
      6        6           0.021200345   -0.002448181    0.000000000
      7        1           0.005866888   -0.002415405    0.000000000
 -------------------------------------------------------------------
 Cartesian Forces:  Max     0.040300601 RMS     0.015290170

 GradGradGradGradGradGradGradGradGradGradGradGradGradGradGradGradGradGrad
 Berny optimization.
 Internal  Forces:  Max     0.039175960 RMS     0.012346571
 Search for a local minimum.
 Step number   1 out of a maximum of   36
 All quantities printed in internal units (Hartrees-Bohrs-Radians)
 Mixed Optimization -- RFO/linear search
 Second derivative matrix not updated -- first step.
     Eigenvalues ---    0.02505   0.02639   0.02674   0.02834   0.16000
     Eigenvalues ---    0.16000   0.22605   0.24688   0.37515   0.48737
     Eigenvalues ---    0.50885   0.56605   0.58506   0.66912   0.78894
     Eigenvalues --- 1000.000001000.000001000.000001000.000001000.00000
     Eigenvalues --- 1000.000001000.000001000.000001000.000001000.00000
     Eigenvalues --- 1000.00000
 RFO step:  Lambda=-5.83153869D-03 EMin= 2.50523105D-02
 Linear search not attempted -- first point.
 Iteration  1 RMS(Cart)=  0.01969150 RMS(Int)=  0.00002252
 Iteration  2 RMS(Cart)=  0.00001208 RMS(Int)=  0.00001727
 Iteration  3 RMS(Cart)=  0.00000000 RMS(Int)=  0.00001727
 ClnCor:  largest displacement from symmetrization is 4.44D-16 for atom     4.
 Variable       Old X    -DE/DX   Delta X   Delta X   Delta X     New X
                                 (Linear)    (Quad)   (Total)
    R1        2.36623   0.03918   0.00000   0.04866   0.04868   2.41491
    R2        2.53474   0.02166   0.00000   0.03887   0.03889   2.57362
    R3        2.50608   0.02430   0.00000   0.04000   0.04000   2.54608
    R4        1.87862   0.01273   0.00000   0.02582   0.02582   1.90443
    R5        2.51367   0.02028   0.00000   0.03186   0.03183   2.54551
    R6        2.43647   0.02695   0.00000   0.03690   0.03688   2.47335
    R7        2.01777   0.00634   0.00000   0.01665   0.01665   2.03443
    A1        1.94380  -0.00314   0.00000  -0.00421  -0.00417   1.93963
    A2        1.86179  -0.00220   0.00000  -0.00295  -0.00292   1.85888
    A3        2.10759  -0.00097   0.00000  -0.00188  -0.00186   2.10572
    A4        1.88535   0.00187   0.00000   0.00335   0.00332   1.88868
    A5        2.29025  -0.00090   0.00000  -0.00147  -0.00146   2.28879
    A6        1.84604   0.00128   0.00000   0.00268   0.00267   1.84871
    A7        1.88780   0.00218   0.00000   0.00113   0.00109   1.88889
    A8        2.18241  -0.00100   0.00000   0.00000   0.00001   2.18242
    A9        2.21298  -0.00118   0.00000  -0.00112  -0.00111   2.21188
    D1        0.00000   0.00000   0.00000   0.00000   0.00000   0.00000
    D2        0.00000   0.00000   0.00000   0.00000   0.00000   0.00000
    D3        3.14159   0.00000   0.00000   0.00000   0.00000   3.14159
    D4        0.00000   0.00000   0.00000   0.00000   0.00000   0.00000
    D5        0.00000   0.00000   0.00000   0.00000   0.00000   0.00000
    D6        3.14159   0.00000   0.00000   0.00000   0.00000   3.14159
    D7        3.14159   0.00000   0.00000   0.00000   0.00000   3.14159
    D8        0.00000   0.00000   0.00000   0.00000   0.00000   0.00000
    D9        0.00000   0.00000   0.00000   0.00000   0.00000   0.00000
   D10        3.14159   0.00000   0.00000   0.00000   0.00000   3.14159
         Item               Value     Threshold  Converged?
 Maximum Force            0.039176     0.000450     NO 
 RMS     Force            0.012347     0.000300     NO 
 Maximum Displacement     0.047274     0.001800     NO 
 RMS     Displacement     0.019690     0.001200     NO 
 Predicted change in Energy=-2.941201D-03
 GradGradGradGradGradGradGradGradGradGradGradGradGradGradGradGradGradGrad

                          Input orientation:                          
 ---------------------------------------------------------------------
 Center     Atomic      Atomic             Coordinates (Angstroms)
 Number     Number       Type             X           Y           Z
 ---------------------------------------------------------------------
      1          7           0       -1.148309   -0.263343    0.000000
      2          7           0       -0.687092    0.928441    0.000000
      3          7           0        0.655802    0.819206    0.000000
      4          1           0        1.238149    1.641701    0.000000
      5          7           0       -0.140824   -1.179724    0.000000
      6          6           0        0.971694   -0.490254    0.000000
      7          1           0        1.973489   -0.884481    0.000000
 ---------------------------------------------------------------------
                    Distance matrix (angstroms):
                    1          2          3          4          5
     1  N    0.000000
     2  N    1.277916   0.000000
     3  N    2.103979   1.347330   0.000000
     4  H    3.053584   2.053118   1.007783   0.000000
     5  N    1.361903   2.177790   2.151821   3.140383   0.000000
     6  C    2.132112   2.182720   1.347024   2.148541   1.308842
     7  H    3.182992   3.219531   2.153799   2.631031   2.134828
                    6          7
     6  C    0.000000
     7  H    1.076573   0.000000
 Stoichiometry    CH2N4
 Framework group  CS[SG(CH2N4)]
 Deg. of freedom    11
 Full point group                 CS      NOp   2
 Largest Abelian subgroup         CS      NOp   2
 Largest concise Abelian subgroup C1      NOp   1
                         Standard orientation:                         
 ---------------------------------------------------------------------
 Center     Atomic      Atomic             Coordinates (Angstroms)
 Number     Number       Type             X           Y           Z
 ---------------------------------------------------------------------
      1          7           0       -0.725399   -0.920975    0.000000
      2          7           0       -1.114140    0.296378    0.000000
      3          7           0        0.000000    1.053999    0.000000
      4          1           0       -0.062697    2.059830    0.000000
      5          7           0        0.634075   -1.002280    0.000000
      6          6           0        1.067650    0.232661    0.000000
      7          1           0        2.095040    0.554342    0.000000
 ---------------------------------------------------------------------
 Rotational constants (GHZ):     10.5744643     10.4189674      5.2480700
 Standard basis: TZVP (5D, 7F)
 There are    80 symmetry adapted basis functions of A'  symmetry.
 There are    27 symmetry adapted basis functions of A"  symmetry.
 Integral buffers will be    131072 words long.
 Raffenetti 2 integral format.
 Two-electron integral symmetry is turned on.
   107 basis functions,   191 primitive gaussians,   112 cartesian basis functions
    18 alpha electrons       18 beta electrons
       nuclear repulsion energy       167.2129684277 Hartrees.
 NAtoms=    7 NActive=    7 NUniq=    7 SFac= 7.50D-01 NAtFMM=   80 NAOKFM=F Big=F
 One-electron integrals computed using PRISM.
 NBasis=   107 RedAO= T  NBF=    80    27
 NBsUse=   107 1.00D-06 NBFU=    80    27
 Initial guess read from the read-write file.
 B after Tr=     0.000000    0.000000    0.000000
         Rot=    1.000000    0.000000    0.000000    0.000000 Ang=   0.00 deg.
 Initial guess orbital symmetries:
       Occupied  (A') (A') (A') (A') (A') (A') (A') (A') (A') (A')
                 (A') (A") (A') (A') (A") (A") (A') (A')
       Virtual   (A") (A') (A") (A') (A') (A') (A') (A") (A') (A')
                 (A') (A') (A") (A') (A") (A') (A') (A') (A') (A')
                 (A") (A") (A') (A') (A') (A') (A') (A') (A') (A')
                 (A') (A") (A') (A') (A") (A') (A") (A") (A') (A')
                 (A") (A") (A') (A') (A") (A') (A') (A') (A') (A")
                 (A') (A") (A') (A') (A') (A") (A') (A") (A') (A")
                 (A') (A') (A') (A') (A') (A") (A') (A") (A') (A')
                 (A') (A') (A") (A") (A') (A") (A') (A') (A') (A')
                 (A') (A') (A') (A') (A') (A') (A') (A') (A')
 Harris functional with IExCor=  402 diagonalized for initial guess.
 ExpMin= 9.52D-02 ExpMax= 1.97D+04 ExpMxC= 6.73D+02 IAcc=2 IRadAn=         0 AccDes= 0.00D+00
 HarFok:  IExCor=  402 AccDes= 0.00D+00 IRadAn=         0 IDoV= 1
 ScaDFX=  1.000000  1.000000  1.000000  1.000000
 FoFCou: FMM=F IPFlag=           0 FMFlag=      100000 FMFlg1=           0
         NFxFlg=           0 DoJE=T BraDBF=F KetDBF=T FulRan=T
         Omega=  0.000000  0.000000  1.000000  0.000000  0.000000 ICntrl=     500 IOpCl=  0
         NMat0=    1 NMatS0=    1 NMatT0=    0 NMatD0=    1 NMtDS0=    0 NMtDT0=    0
         I1Cent=           4 NGrid=           0.
 Petite list used in FoFCou.
 Requested convergence on RMS density matrix=1.00D-08 within 128 cycles.
 Requested convergence on MAX density matrix=1.00D-06.
 Requested convergence on             energy=1.00D-06.
 No special actions if energy rises.
 Keep R1 ints in memory in canonical form, NReq=21074773.
 Integral accuracy reduced to 1.0D-05 until final iterations.
 Initial convergence to 1.0D-05 achieved.  Increase integral accuracy.
 SCF Done:  E(RB3LYP) =  -258.336470585     A.U. after   12 cycles
             Convg  =    0.6143D-08             -V/T =  2.0040
 Calling FoFJK, ICntrl=      2127 FMM=F ISym2X=1 I1Cent= 0 IOpClX= 0 NMat=1 NMatS=1 NMatT=0.
 ***** Axes restored to original set *****
 -------------------------------------------------------------------
 Center     Atomic                   Forces (Hartrees/Bohr)
 Number     Number              X              Y              Z
 -------------------------------------------------------------------
      1        7          -0.002339557   -0.004133214    0.000000000
      2        7          -0.001729003    0.008819989    0.000000000
      3        7           0.002911815   -0.002660524    0.000000000
      4        1          -0.000188248    0.000191748    0.000000000
      5        7           0.001480412   -0.004013316    0.000000000
      6        6           0.000204613    0.001786523    0.000000000
      7        1          -0.000340031    0.000008794    0.000000000
 -------------------------------------------------------------------
 Cartesian Forces:  Max     0.008819989 RMS     0.002587658

 GradGradGradGradGradGradGradGradGradGradGradGradGradGradGradGradGradGrad
 Berny optimization.
 Using GEDIIS/GDIIS optimizer.
 Internal  Forces:  Max     0.006331938 RMS     0.001680396
 Search for a local minimum.
 Step number   2 out of a maximum of   36
 All quantities printed in internal units (Hartrees-Bohrs-Radians)
 Mixed Optimization -- RFO/linear search
 Update second derivatives using D2CorX and points    1    2
 DE= -3.13D-03 DEPred=-2.94D-03 R= 1.07D+00
 SS=  1.41D+00  RLast= 9.41D-02 DXNew= 5.0454D-01 2.8225D-01
 Trust test= 1.07D+00 RLast= 9.41D-02 DXMaxT set to 3.00D-01
 Use linear search instead of GDIIS.
     Eigenvalues ---    0.02505   0.02638   0.02675   0.02834   0.15997
     Eigenvalues ---    0.16000   0.22586   0.24563   0.37671   0.48885
     Eigenvalues ---    0.50460   0.55055   0.58625   0.67830   0.73901
     Eigenvalues --- 1000.000001000.000001000.000001000.000001000.00000
     Eigenvalues --- 1000.000001000.000001000.000001000.000001000.00000
     Eigenvalues --- 1000.00000
 RFO step:  Lambda=-1.03690731D-04 EMin= 2.50518494D-02
 Quartic linear search produced a step of  0.11496.
 Iteration  1 RMS(Cart)=  0.00349324 RMS(Int)=  0.00001422
 Iteration  2 RMS(Cart)=  0.00001430 RMS(Int)=  0.00000520
 Iteration  3 RMS(Cart)=  0.00000000 RMS(Int)=  0.00000520
 ClnCor:  largest displacement from symmetrization is 4.44D-16 for atom     4.
 Variable       Old X    -DE/DX   Delta X   Delta X   Delta X     New X
                                 (Linear)    (Quad)   (Total)
    R1        2.41491   0.00633   0.00560   0.00481   0.01041   2.42533
    R2        2.57362   0.00266   0.00447   0.00229   0.00676   2.58038
    R3        2.54608   0.00277   0.00460   0.00163   0.00624   2.55232
    R4        1.90443   0.00005   0.00297  -0.00216   0.00081   1.90524
    R5        2.54551  -0.00014   0.00366  -0.00401  -0.00035   2.54515
    R6        2.47335   0.00089   0.00424  -0.00250   0.00173   2.47509
    R7        2.03443  -0.00032   0.00191  -0.00236  -0.00045   2.03398
    A1        1.93963   0.00081  -0.00048   0.00762   0.00715   1.94678
    A2        1.85888  -0.00290  -0.00034  -0.01000  -0.01032   1.84856
    A3        2.10572  -0.00102  -0.00021  -0.00429  -0.00450   2.10122
    A4        1.88868   0.00153   0.00038   0.00502   0.00540   1.89408
    A5        2.28879  -0.00051  -0.00017  -0.00073  -0.00090   2.28788
    A6        1.84871  -0.00104   0.00031  -0.00633  -0.00604   1.84267
    A7        1.88889   0.00160   0.00013   0.00369   0.00380   1.89269
    A8        2.18242  -0.00069   0.00000  -0.00110  -0.00109   2.18133
    A9        2.21188  -0.00092  -0.00013  -0.00259  -0.00271   2.20917
    D1        0.00000   0.00000   0.00000   0.00000   0.00000   0.00000
    D2        0.00000   0.00000   0.00000   0.00000   0.00000   0.00000
    D3        3.14159   0.00000   0.00000   0.00000   0.00000   3.14159
    D4        0.00000   0.00000   0.00000   0.00000   0.00000   0.00000
    D5        0.00000   0.00000   0.00000   0.00000   0.00000   0.00000
    D6        3.14159   0.00000   0.00000   0.00000   0.00000   3.14159
    D7        3.14159   0.00000   0.00000   0.00000   0.00000   3.14159
    D8        0.00000   0.00000   0.00000   0.00000   0.00000   0.00000
    D9        0.00000   0.00000   0.00000   0.00000   0.00000   0.00000
   D10        3.14159   0.00000   0.00000   0.00000   0.00000   3.14159
         Item               Value     Threshold  Converged?
 Maximum Force            0.006332     0.000450     NO 
 RMS     Force            0.001680     0.000300     NO 
 Maximum Displacement     0.012976     0.001800     NO 
 RMS     Displacement     0.003496     0.001200     NO 
 Predicted change in Energy=-8.088399D-05
 GradGradGradGradGradGradGradGradGradGradGradGradGradGradGradGradGradGrad

                          Input orientation:                          
 ---------------------------------------------------------------------
 Center     Atomic      Atomic             Coordinates (Angstroms)
 Number     Number       Type             X           Y           Z
 ---------------------------------------------------------------------
      1          7           0       -1.147289   -0.263889    0.000000
      2          7           0       -0.690000    0.935307    0.000000
      3          7           0        0.655576    0.818568    0.000000
      4          1           0        1.238892    1.640901    0.000000
      5          7           0       -0.139196   -1.184910    0.000000
      6          6           0        0.971456   -0.490703    0.000000
      7          1           0        1.973469   -0.883728    0.000000
 ---------------------------------------------------------------------
                    Distance matrix (angstroms):
                    1          2          3          4          5
     1  N    0.000000
     2  N    1.283427   0.000000
     3  N    2.102864   1.350631   0.000000
     4  H    3.053210   2.053896   1.008212   0.000000
     5  N    1.365479   2.190595   2.155362   3.143936   0.000000
     6  C    2.130851   2.189507   1.346838   2.148316   1.309759
     7  H    3.181719   3.225362   2.152825   2.629327   2.134025
                    6          7
     6  C    0.000000
     7  H    1.076336   0.000000
 Stoichiometry    CH2N4
 Framework group  CS[SG(CH2N4)]
 Deg. of freedom    11
 Full point group                 CS      NOp   2
 Largest Abelian subgroup         CS      NOp   2
 Largest concise Abelian subgroup C1      NOp   1
                         Standard orientation:                         
 ---------------------------------------------------------------------
 Center     Atomic      Atomic             Coordinates (Angstroms)
 Number     Number       Type             X           Y           Z
 ---------------------------------------------------------------------
      1          7           0       -0.723876   -0.920929    0.000000
      2          7           0       -1.120704    0.299609    0.000000
      3          7           0        0.000000    1.053417    0.000000
      4          1           0       -0.062152    2.059711    0.000000
      5          7           0        0.639010   -1.005042    0.000000
      6          6           0        1.067776    0.232548    0.000000
      7          1           0        2.094482    0.555620    0.000000
 ---------------------------------------------------------------------
 Rotational constants (GHZ):     10.5789658     10.3400866      5.2290811
 Standard basis: TZVP (5D, 7F)
 There are    80 symmetry adapted basis functions of A'  symmetry.
 There are    27 symmetry adapted basis functions of A"  symmetry.
 Integral buffers will be    131072 words long.
 Raffenetti 2 integral format.
 Two-electron integral symmetry is turned on.
   107 basis functions,   191 primitive gaussians,   112 cartesian basis functions
    18 alpha electrons       18 beta electrons
       nuclear repulsion energy       166.9084128422 Hartrees.
 NAtoms=    7 NActive=    7 NUniq=    7 SFac= 7.50D-01 NAtFMM=   80 NAOKFM=F Big=F
 One-electron integrals computed using PRISM.
 NBasis=   107 RedAO= T  NBF=    80    27
 NBsUse=   107 1.00D-06 NBFU=    80    27
 Initial guess read from the read-write file.
 B after Tr=     0.000000    0.000000    0.000000
         Rot=    1.000000    0.000000    0.000000    0.000000 Ang=   0.00 deg.
 Initial guess orbital symmetries:
       Occupied  (A') (A') (A') (A') (A') (A') (A') (A') (A') (A')
                 (A') (A') (A") (A') (A") (A") (A') (A')
       Virtual   (A") (A") (A') (A') (A') (A') (A') (A") (A') (A')
                 (A') (A') (A") (A') (A") (A') (A') (A') (A') (A')
                 (A") (A") (A') (A') (A') (A') (A') (A') (A') (A')
                 (A') (A") (A') (A') (A") (A') (A") (A") (A') (A')
                 (A") (A") (A') (A') (A") (A') (A') (A') (A") (A')
                 (A') (A") (A') (A') (A') (A") (A') (A") (A') (A")
                 (A') (A') (A') (A') (A') (A') (A") (A') (A") (A')
                 (A') (A') (A") (A") (A') (A") (A') (A') (A') (A')
                 (A') (A') (A') (A') (A') (A') (A') (A') (A')
 Requested convergence on RMS density matrix=1.00D-08 within 128 cycles.
 Requested convergence on MAX density matrix=1.00D-06.
 Requested convergence on             energy=1.00D-06.
 No special actions if energy rises.
 Keep R1 ints in memory in canonical form, NReq=21074773.
 SCF Done:  E(RB3LYP) =  -258.336532313     A.U. after   10 cycles
             Convg  =    0.5769D-08             -V/T =  2.0041
 Calling FoFJK, ICntrl=      2127 FMM=F ISym2X=1 I1Cent= 0 IOpClX= 0 NMat=1 NMatS=1 NMatT=0.
 ***** Axes restored to original set *****
 -------------------------------------------------------------------
 Center     Atomic                   Forces (Hartrees/Bohr)
 Number     Number              X              Y              Z
 -------------------------------------------------------------------
      1        7          -0.002956362   -0.001621181    0.000000000
      2        7           0.001013231   -0.001161853    0.000000000
      3        7           0.002132279   -0.000557855    0.000000000
      4        1           0.000035087   -0.000289765    0.000000000
      5        7          -0.000033877    0.001762121    0.000000000
      6        6          -0.000172548    0.001749169    0.000000000
      7        1          -0.000017811    0.000119364    0.000000000
 -------------------------------------------------------------------
 Cartesian Forces:  Max     0.002956362 RMS     0.001088861

 GradGradGradGradGradGradGradGradGradGradGradGradGradGradGradGradGradGrad
 Berny optimization.
 Using GEDIIS/GDIIS optimizer.
 Internal  Forces:  Max     0.002790749 RMS     0.000937243
 Search for a local minimum.
 Step number   3 out of a maximum of   36
 All quantities printed in internal units (Hartrees-Bohrs-Radians)
 Mixed Optimization -- En-DIIS/RFO-DIIS
 Update second derivatives using D2CorX and points    1    2    3
 DE= -6.17D-05 DEPred=-8.09D-05 R= 7.63D-01
 SS=  1.41D+00  RLast= 2.15D-02 DXNew= 5.0454D-01 6.4639D-02
 Trust test= 7.63D-01 RLast= 2.15D-02 DXMaxT set to 3.00D-01
 Use linear search instead of GDIIS.
     Eigenvalues ---    0.02506   0.02638   0.02674   0.02833   0.15999
     Eigenvalues ---    0.16037   0.22628   0.34469   0.37550   0.40196
     Eigenvalues ---    0.49155   0.52452   0.64070   0.66903   0.73588
     Eigenvalues --- 1000.000001000.000001000.000001000.000001000.00000
     Eigenvalues --- 1000.000001000.000001000.000001000.000001000.00000
     Eigenvalues --- 1000.00000
 RFO step:  Lambda=-4.12778012D-05 EMin= 2.50558833D-02
 Quartic linear search produced a step of -0.20719.
 Iteration  1 RMS(Cart)=  0.00225180 RMS(Int)=  0.00000451
 Iteration  2 RMS(Cart)=  0.00000340 RMS(Int)=  0.00000193
 Iteration  3 RMS(Cart)=  0.00000000 RMS(Int)=  0.00000193
 ClnCor:  largest displacement from symmetrization is 1.40D-15 for atom     4.
 Variable       Old X    -DE/DX   Delta X   Delta X   Delta X     New X
                                 (Linear)    (Quad)   (Total)
    R1        2.42533   0.00081  -0.00216   0.00547   0.00332   2.42864
    R2        2.58038  -0.00041  -0.00140   0.00242   0.00102   2.58140
    R3        2.55232   0.00097  -0.00129   0.00405   0.00276   2.55508
    R4        1.90524  -0.00022  -0.00017  -0.00002  -0.00019   1.90506
    R5        2.54515  -0.00228   0.00007  -0.00340  -0.00333   2.54182
    R6        2.47509   0.00065  -0.00036   0.00141   0.00105   2.47613
    R7        2.03398  -0.00006   0.00009  -0.00034  -0.00025   2.03373
    A1        1.94678  -0.00279  -0.00148  -0.00525  -0.00673   1.94005
    A2        1.84856   0.00189   0.00214   0.00232   0.00445   1.85302
    A3        2.10122   0.00062   0.00093   0.00071   0.00165   2.10287
    A4        1.89408  -0.00088  -0.00112  -0.00113  -0.00226   1.89182
    A5        2.28788   0.00026   0.00019   0.00042   0.00061   2.28849
    A6        1.84267   0.00167   0.00125   0.00260   0.00385   1.84652
    A7        1.89269   0.00012  -0.00079   0.00147   0.00068   1.89337
    A8        2.18133  -0.00017   0.00023  -0.00096  -0.00073   2.18060
    A9        2.20917   0.00005   0.00056  -0.00051   0.00005   2.20922
    D1        0.00000   0.00000   0.00000   0.00000   0.00000   0.00000
    D2        0.00000   0.00000   0.00000   0.00000   0.00000   0.00000
    D3        3.14159   0.00000   0.00000   0.00000   0.00000   3.14159
    D4        0.00000   0.00000   0.00000   0.00000   0.00000   0.00000
    D5        0.00000   0.00000   0.00000   0.00000   0.00000   0.00000
    D6        3.14159   0.00000   0.00000   0.00000   0.00000   3.14159
    D7        3.14159   0.00000   0.00000   0.00000   0.00000   3.14159
    D8        0.00000   0.00000   0.00000   0.00000   0.00000   0.00000
    D9        0.00000   0.00000   0.00000   0.00000   0.00000   0.00000
   D10        3.14159   0.00000   0.00000   0.00000   0.00000   3.14159
         Item               Value     Threshold  Converged?
 Maximum Force            0.002791     0.000450     NO 
 RMS     Force            0.000937     0.000300     NO 
 Maximum Displacement     0.007765     0.001800     NO 
 RMS     Displacement     0.002252     0.001200     NO 
 Predicted change in Energy=-2.509873D-05
 GradGradGradGradGradGradGradGradGradGradGradGradGradGradGradGradGradGrad

                          Input orientation:                          
 ---------------------------------------------------------------------
 Center     Atomic      Atomic             Coordinates (Angstroms)
 Number     Number       Type             X           Y           Z
 ---------------------------------------------------------------------
      1          7           0       -1.151398   -0.265806    0.000000
      2          7           0       -0.689738    0.933596    0.000000
      3          7           0        0.657446    0.818527    0.000000
      4          1           0        1.240964    1.640596    0.000000
      5          7           0       -0.139589   -1.183549    0.000000
      6          6           0        0.971704   -0.489323    0.000000
      7          1           0        1.973519   -0.882496    0.000000
 ---------------------------------------------------------------------
                    Distance matrix (angstroms):
                    1          2          3          4          5
     1  N    0.000000
     2  N    1.285183   0.000000
     3  N    2.108956   1.352090   0.000000
     4  H    3.059046   2.056078   1.008112   0.000000
     5  N    1.366020   2.187457   2.154895   3.143520   0.000000
     6  C    2.134835   2.187485   1.345075   2.146871   1.310313
     7  H    3.185186   3.223527   2.150703   2.627285   2.134445
                    6          7
     6  C    0.000000
     7  H    1.076205   0.000000
 Stoichiometry    CH2N4
 Framework group  CS[SG(CH2N4)]
 Deg. of freedom    11
 Full point group                 CS      NOp   2
 Largest Abelian subgroup         CS      NOp   2
 Largest concise Abelian subgroup C1      NOp   1
                         Standard orientation:                         
 ---------------------------------------------------------------------
 Center     Atomic      Atomic             Coordinates (Angstroms)
 Number     Number       Type             X           Y           Z
 ---------------------------------------------------------------------
      1          7           0       -0.724272   -0.925752    0.000000
      2          7           0       -1.119730    0.297076    0.000000
      3          7           0        0.000000    1.054937    0.000000
      4          1           0       -0.063395    2.061053    0.000000
      5          7           0        0.639570   -1.002859    0.000000
      6          6           0        1.066897    0.235815    0.000000
      7          1           0        2.093037    0.560244    0.000000
 ---------------------------------------------------------------------
 Rotational constants (GHZ):     10.5342806     10.3671739      5.2250296
 Standard basis: TZVP (5D, 7F)
 There are    80 symmetry adapted basis functions of A'  symmetry.
 There are    27 symmetry adapted basis functions of A"  symmetry.
 Integral buffers will be    131072 words long.
 Raffenetti 2 integral format.
 Two-electron integral symmetry is turned on.
   107 basis functions,   191 primitive gaussians,   112 cartesian basis functions
    18 alpha electrons       18 beta electrons
       nuclear repulsion energy       166.8394302256 Hartrees.
 NAtoms=    7 NActive=    7 NUniq=    7 SFac= 7.50D-01 NAtFMM=   80 NAOKFM=F Big=F
 One-electron integrals computed using PRISM.
 NBasis=   107 RedAO= T  NBF=    80    27
 NBsUse=   107 1.00D-06 NBFU=    80    27
 Initial guess read from the read-write file.
 B after Tr=     0.000000    0.000000    0.000000
         Rot=    1.000000    0.000000    0.000000    0.000000 Ang=   0.00 deg.
 Initial guess orbital symmetries:
       Occupied  (A') (A') (A') (A') (A') (A') (A') (A') (A') (A')
                 (A') (A') (A") (A') (A") (A") (A') (A')
       Virtual   (A") (A") (A') (A') (A') (A') (A') (A") (A') (A')
                 (A') (A') (A") (A') (A") (A') (A') (A') (A') (A')
                 (A") (A') (A") (A') (A') (A') (A') (A') (A') (A')
                 (A') (A") (A') (A') (A") (A') (A") (A") (A') (A')
                 (A") (A") (A') (A') (A") (A') (A') (A') (A") (A')
                 (A') (A") (A') (A') (A') (A") (A') (A") (A') (A")
                 (A') (A') (A') (A') (A') (A') (A") (A') (A") (A')
                 (A') (A') (A") (A") (A') (A") (A') (A') (A') (A')
                 (A') (A') (A') (A') (A') (A') (A') (A') (A')
 Requested convergence on RMS density matrix=1.00D-08 within 128 cycles.
 Requested convergence on MAX density matrix=1.00D-06.
 Requested convergence on             energy=1.00D-06.
 No special actions if energy rises.
 Keep R1 ints in memory in canonical form, NReq=21074773.
 SCF Done:  E(RB3LYP) =  -258.336547835     A.U. after    9 cycles
             Convg  =    0.5894D-08             -V/T =  2.0042
 Calling FoFJK, ICntrl=      2127 FMM=F ISym2X=1 I1Cent= 0 IOpClX= 0 NMat=1 NMatS=1 NMatT=0.
 ***** Axes restored to original set *****
 -------------------------------------------------------------------
 Center     Atomic                   Forces (Hartrees/Bohr)
 Number     Number              X              Y              Z
 -------------------------------------------------------------------
      1        7           0.002000935    0.000487604    0.000000000
      2        7          -0.000254522   -0.000114809    0.000000000
      3        7          -0.000657709   -0.000746150    0.000000000
      4        1          -0.000187871   -0.000095598    0.000000000
      5        7          -0.000207706    0.000281901    0.000000000
      6        6          -0.000681262    0.000308459    0.000000000
      7        1          -0.000011864   -0.000121407    0.000000000
 -------------------------------------------------------------------
 Cartesian Forces:  Max     0.002000935 RMS     0.000536744

 GradGradGradGradGradGradGradGradGradGradGradGradGradGradGradGradGradGrad
 Berny optimization.
 Using GEDIIS/GDIIS optimizer.
 Internal  Forces:  Max     0.000990725 RMS     0.000429016
 Search for a local minimum.
 Step number   4 out of a maximum of   36
 All quantities printed in internal units (Hartrees-Bohrs-Radians)
 Mixed Optimization -- En-DIIS/RFO-DIIS
 Swaping is turned off.
 Update second derivatives using D2CorX and points    1    2    3    4
 DE= -1.55D-05 DEPred=-2.51D-05 R= 6.18D-01
 SS=  1.41D+00  RLast= 1.10D-02 DXNew= 5.0454D-01 3.3009D-02
 Trust test= 6.18D-01 RLast= 1.10D-02 DXMaxT set to 3.00D-01
     Eigenvalues ---    0.02505   0.02637   0.02675   0.02834   0.16002
     Eigenvalues ---    0.16013   0.22671   0.36836   0.38063   0.48680
     Eigenvalues ---    0.51814   0.53187   0.59534   0.70283   0.73536
     Eigenvalues --- 1000.000001000.000001000.000001000.000001000.00000
     Eigenvalues --- 1000.000001000.000001000.000001000.000001000.00000
     Eigenvalues --- 1000.00000
 En-DIIS/RFO-DIIS IScMMF=        0 using points:     4    3
 RFO step:  Lambda=-6.15029338D-06.
 DIIS coeffs:      0.72662      0.27338
 Iteration  1 RMS(Cart)=  0.00074076 RMS(Int)=  0.00000048
 Iteration  2 RMS(Cart)=  0.00000031 RMS(Int)=  0.00000032
 ClnCor:  largest displacement from symmetrization is 3.08D-15 for atom     7.
 Variable       Old X    -DE/DX   Delta X   Delta X   Delta X     New X
                                  (DIIS)     (GDIIS)  (Total)
    R1        2.42864  -0.00091  -0.00091  -0.00059  -0.00150   2.42714
    R2        2.58140  -0.00081  -0.00028  -0.00121  -0.00149   2.57991
    R3        2.55508  -0.00070  -0.00075  -0.00045  -0.00121   2.55387
    R4        1.90506  -0.00019   0.00005  -0.00042  -0.00036   1.90469
    R5        2.54182  -0.00034   0.00091  -0.00138  -0.00047   2.54135
    R6        2.47613  -0.00077  -0.00029  -0.00059  -0.00088   2.47526
    R7        2.03373   0.00003   0.00007  -0.00001   0.00006   2.03379
    A1        1.94005   0.00099   0.00184  -0.00010   0.00174   1.94179
    A2        1.85302  -0.00077  -0.00122  -0.00005  -0.00127   1.85175
    A3        2.10287  -0.00026  -0.00045  -0.00011  -0.00056   2.10232
    A4        1.89182   0.00032   0.00062  -0.00003   0.00059   1.89240
    A5        2.28849  -0.00006  -0.00017   0.00014  -0.00003   2.28847
    A6        1.84652  -0.00055  -0.00105   0.00012  -0.00093   1.84559
    A7        1.89337   0.00001  -0.00019   0.00006  -0.00012   1.89324
    A8        2.18060   0.00011   0.00020   0.00026   0.00046   2.18106
    A9        2.20922  -0.00012  -0.00001  -0.00032  -0.00034   2.20888
    D1        0.00000   0.00000   0.00000   0.00000   0.00000   0.00000
    D2        0.00000   0.00000   0.00000   0.00000   0.00000   0.00000
    D3        3.14159   0.00000   0.00000   0.00000   0.00000   3.14159
    D4        0.00000   0.00000   0.00000   0.00000   0.00000   0.00000
    D5        0.00000   0.00000   0.00000   0.00000   0.00000   0.00000
    D6        3.14159   0.00000   0.00000   0.00000   0.00000   3.14159
    D7        3.14159   0.00000   0.00000   0.00000   0.00000   3.14159
    D8        0.00000   0.00000   0.00000   0.00000   0.00000   0.00000
    D9        0.00000   0.00000   0.00000   0.00000   0.00000   0.00000
   D10        3.14159   0.00000   0.00000   0.00000   0.00000   3.14159
         Item               Value     Threshold  Converged?
 Maximum Force            0.000991     0.000450     NO 
 RMS     Force            0.000429     0.000300     NO 
 Maximum Displacement     0.002904     0.001800     NO 
 RMS     Displacement     0.000741     0.001200     YES
 Predicted change in Energy=-3.973367D-06
 GradGradGradGradGradGradGradGradGradGradGradGradGradGradGradGradGradGrad

                          Input orientation:                          
 ---------------------------------------------------------------------
 Center     Atomic      Atomic             Coordinates (Angstroms)
 Number     Number       Type             X           Y           Z
 ---------------------------------------------------------------------
      1          7           0       -1.149861   -0.265322    0.000000
      2          7           0       -0.689564    0.933754    0.000000
      3          7           0        0.656943    0.818244    0.000000
      4          1           0        1.240193    1.640266    0.000000
      5          7           0       -0.139405   -1.183381    0.000000
      6          6           0        0.971427   -0.489294    0.000000
      7          1           0        1.973175   -0.882720    0.000000
 ---------------------------------------------------------------------
                    Distance matrix (angstroms):
                    1          2          3          4          5
     1  N    0.000000
     2  N    1.284389   0.000000
     3  N    2.106812   1.351452   0.000000
     4  H    3.056734   2.055023   1.007919   0.000000
     5  N    1.365230   2.187449   2.154222   3.142654   0.000000
     6  C    2.133080   2.187225   1.344825   2.146453   1.309850
     7  H    3.183479   3.223314   2.150755   2.627303   2.133868
                    6          7
     6  C    0.000000
     7  H    1.076236   0.000000
 Stoichiometry    CH2N4
 Framework group  CS[SG(CH2N4)]
 Deg. of freedom    11
 Full point group                 CS      NOp   2
 Largest Abelian subgroup         CS      NOp   2
 Largest concise Abelian subgroup C1      NOp   1
                         Standard orientation:                         
 ---------------------------------------------------------------------
 Center     Atomic      Atomic             Coordinates (Angstroms)
 Number     Number       Type             X           Y           Z
 ---------------------------------------------------------------------
      1          7           0       -0.723743   -0.924392    0.000000
      2          7           0       -1.119700    0.297440    0.000000
      3          7           0        0.000000    1.054207    0.000000
      4          1           0       -0.063281    2.060137    0.000000
      5          7           0        0.639223   -1.002992    0.000000
      6          6           0        1.066639    0.235161    0.000000
      7          1           0        2.092981    0.559053    0.000000
 ---------------------------------------------------------------------
 Rotational constants (GHZ):     10.5512392     10.3685249      5.2295421
 Standard basis: TZVP (5D, 7F)
 There are    80 symmetry adapted basis functions of A'  symmetry.
 There are    27 symmetry adapted basis functions of A"  symmetry.
 Integral buffers will be    131072 words long.
 Raffenetti 2 integral format.
 Two-electron integral symmetry is turned on.
   107 basis functions,   191 primitive gaussians,   112 cartesian basis functions
    18 alpha electrons       18 beta electrons
       nuclear repulsion energy       166.9113006133 Hartrees.
 NAtoms=    7 NActive=    7 NUniq=    7 SFac= 7.50D-01 NAtFMM=   80 NAOKFM=F Big=F
 One-electron integrals computed using PRISM.
 NBasis=   107 RedAO= T  NBF=    80    27
 NBsUse=   107 1.00D-06 NBFU=    80    27
 Initial guess read from the read-write file.
 B after Tr=     0.000000    0.000000    0.000000
         Rot=    1.000000    0.000000    0.000000    0.000000 Ang=   0.00 deg.
 Initial guess orbital symmetries:
       Occupied  (A') (A') (A') (A') (A') (A') (A') (A') (A') (A')
                 (A') (A') (A") (A') (A") (A") (A') (A')
       Virtual   (A") (A") (A') (A') (A') (A') (A') (A") (A') (A')
                 (A') (A') (A") (A') (A") (A') (A') (A') (A') (A')
                 (A") (A') (A") (A') (A') (A') (A') (A') (A') (A')
                 (A') (A") (A') (A') (A") (A') (A") (A") (A') (A')
                 (A") (A") (A') (A') (A") (A') (A') (A') (A") (A')
                 (A') (A") (A') (A') (A') (A") (A') (A") (A') (A")
                 (A') (A') (A') (A') (A') (A') (A") (A') (A") (A')
                 (A') (A') (A") (A") (A') (A") (A') (A') (A') (A')
                 (A') (A') (A') (A') (A') (A') (A') (A') (A')
 Requested convergence on RMS density matrix=1.00D-08 within 128 cycles.
 Requested convergence on MAX density matrix=1.00D-06.
 Requested convergence on             energy=1.00D-06.
 No special actions if energy rises.
 Keep R1 ints in memory in canonical form, NReq=21074773.
 SCF Done:  E(RB3LYP) =  -258.336552127     A.U. after    9 cycles
             Convg  =    0.2326D-08             -V/T =  2.0041
 Calling FoFJK, ICntrl=      2127 FMM=F ISym2X=1 I1Cent= 0 IOpClX= 0 NMat=1 NMatS=1 NMatT=0.
 ***** Axes restored to original set *****
 -------------------------------------------------------------------
 Center     Atomic                   Forces (Hartrees/Bohr)
 Number     Number              X              Y              Z
 -------------------------------------------------------------------
      1        7           0.000248360   -0.000187015    0.000000000
      2        7          -0.000069806    0.000063910    0.000000000
      3        7           0.000086357   -0.000245188    0.000000000
      4        1          -0.000010186    0.000004773    0.000000000
      5        7          -0.000266665    0.000123194    0.000000000
      6        6           0.000011854    0.000284434    0.000000000
      7        1           0.000000087   -0.000044110    0.000000000
 -------------------------------------------------------------------
 Cartesian Forces:  Max     0.000284434 RMS     0.000127726

 GradGradGradGradGradGradGradGradGradGradGradGradGradGradGradGradGradGrad
 Berny optimization.
 Using GEDIIS/GDIIS optimizer.
 Internal  Forces:  Max     0.000269202 RMS     0.000070483
 Search for a local minimum.
 Step number   5 out of a maximum of   36
 All quantities printed in internal units (Hartrees-Bohrs-Radians)
 Mixed Optimization -- En-DIIS/RFO-DIIS
 Swaping is turned off.
 Update second derivatives using D2CorX and points    1    2    3    4    5
 DE= -4.29D-06 DEPred=-3.97D-06 R= 1.08D+00
 SS=  1.41D+00  RLast= 3.68D-03 DXNew= 5.0454D-01 1.1039D-02
 Trust test= 1.08D+00 RLast= 3.68D-03 DXMaxT set to 3.00D-01
     Eigenvalues ---    0.02505   0.02638   0.02675   0.02834   0.15830
     Eigenvalues ---    0.16010   0.22670   0.36124   0.37867   0.45913
     Eigenvalues ---    0.48950   0.53764   0.54531   0.72250   0.76700
     Eigenvalues --- 1000.000001000.000001000.000001000.000001000.00000
     Eigenvalues --- 1000.000001000.000001000.000001000.000001000.00000
     Eigenvalues --- 1000.00000
 En-DIIS/RFO-DIIS IScMMF=        0 using points:     5    4    3
 RFO step:  Lambda=-1.95416756D-07.
 DIIS coeffs:      1.22041     -0.16535     -0.05506
 Iteration  1 RMS(Cart)=  0.00013003 RMS(Int)=  0.00000007
 Iteration  2 RMS(Cart)=  0.00000001 RMS(Int)=  0.00000007
 ClnCor:  largest displacement from symmetrization is 4.44D-16 for atom     4.
 Variable       Old X    -DE/DX   Delta X   Delta X   Delta X     New X
                                  (DIIS)     (GDIIS)  (Total)
    R1        2.42714   0.00001  -0.00015   0.00020   0.00005   2.42720
    R2        2.57991  -0.00027  -0.00027  -0.00033  -0.00060   2.57931
    R3        2.55387   0.00004  -0.00011   0.00023   0.00011   2.55399
    R4        1.90469   0.00000  -0.00009   0.00006  -0.00003   1.90467
    R5        2.54135  -0.00020  -0.00029  -0.00021  -0.00050   2.54085
    R6        2.47526   0.00007  -0.00014   0.00024   0.00011   2.47536
    R7        2.03379   0.00002   0.00000   0.00005   0.00005   2.03384
    A1        1.94179   0.00005   0.00001   0.00014   0.00015   1.94194
    A2        1.85175  -0.00006  -0.00003  -0.00019  -0.00023   1.85152
    A3        2.10232  -0.00002  -0.00003  -0.00013  -0.00016   2.10216
    A4        1.89240   0.00001   0.00000   0.00006   0.00007   1.89247
    A5        2.28847   0.00001   0.00003   0.00006   0.00009   2.28856
    A6        1.84559   0.00001   0.00001  -0.00001   0.00000   1.84558
    A7        1.89324   0.00000   0.00001   0.00000   0.00001   1.89325
    A8        2.18106   0.00004   0.00006   0.00022   0.00028   2.18134
    A9        2.20888  -0.00004  -0.00007  -0.00021  -0.00029   2.20859
    D1        0.00000   0.00000   0.00000   0.00000   0.00000   0.00000
    D2        0.00000   0.00000   0.00000   0.00000   0.00000   0.00000
    D3        3.14159   0.00000   0.00000   0.00000   0.00000   3.14159
    D4        0.00000   0.00000   0.00000   0.00000   0.00000   0.00000
    D5        0.00000   0.00000   0.00000   0.00000   0.00000   0.00000
    D6        3.14159   0.00000   0.00000   0.00000   0.00000   3.14159
    D7        3.14159   0.00000   0.00000   0.00000   0.00000   3.14159
    D8        0.00000   0.00000   0.00000   0.00000   0.00000   0.00000
    D9        0.00000   0.00000   0.00000   0.00000   0.00000   0.00000
   D10        3.14159   0.00000   0.00000   0.00000   0.00000   3.14159
         Item               Value     Threshold  Converged?
 Maximum Force            0.000269     0.000450     YES
 RMS     Force            0.000070     0.000300     YES
 Maximum Displacement     0.000343     0.001800     YES
 RMS     Displacement     0.000130     0.001200     YES
 Predicted change in Energy=-1.508215D-07
 Optimization completed.
    -- Stationary point found.
                           ----------------------------
                           !   Optimized Parameters   !
                           ! (Angstroms and Degrees)  !
 --------------------------                            --------------------------
 ! Name  Definition              Value          Derivative Info.                !
 --------------------------------------------------------------------------------
 ! R1    R(1,2)                  1.2844         -DE/DX =    0.0                 !
 ! R2    R(1,5)                  1.3652         -DE/DX =   -0.0003              !
 ! R3    R(2,3)                  1.3515         -DE/DX =    0.0                 !
 ! R4    R(3,4)                  1.0079         -DE/DX =    0.0                 !
 ! R5    R(3,6)                  1.3448         -DE/DX =   -0.0002              !
 ! R6    R(5,6)                  1.3098         -DE/DX =    0.0001              !
 ! R7    R(6,7)                  1.0762         -DE/DX =    0.0                 !
 ! A1    A(2,1,5)              111.2563         -DE/DX =    0.0                 !
 ! A2    A(1,2,3)              106.0976         -DE/DX =   -0.0001              !
 ! A3    A(2,3,4)              120.4538         -DE/DX =    0.0                 !
 ! A4    A(2,3,6)              108.4268         -DE/DX =    0.0                 !
 ! A5    A(4,3,6)              131.1194         -DE/DX =    0.0                 !
 ! A6    A(1,5,6)              105.7444         -DE/DX =    0.0                 !
 ! A7    A(3,6,5)              108.4749         -DE/DX =    0.0                 !
 ! A8    A(3,6,7)              124.9656         -DE/DX =    0.0                 !
 ! A9    A(5,6,7)              126.5595         -DE/DX =    0.0                 !
 ! D1    D(5,1,2,3)              0.0            -DE/DX =    0.0                 !
 ! D2    D(2,1,5,6)              0.0            -DE/DX =    0.0                 !
 ! D3    D(1,2,3,4)            180.0            -DE/DX =    0.0                 !
 ! D4    D(1,2,3,6)              0.0            -DE/DX =    0.0                 !
 ! D5    D(2,3,6,5)              0.0            -DE/DX =    0.0                 !
 ! D6    D(2,3,6,7)            180.0            -DE/DX =    0.0                 !
 ! D7    D(4,3,6,5)            180.0            -DE/DX =    0.0                 !
 ! D8    D(4,3,6,7)              0.0            -DE/DX =    0.0                 !
 ! D9    D(1,5,6,3)              0.0            -DE/DX =    0.0                 !
 ! D10   D(1,5,6,7)            180.0            -DE/DX =    0.0                 !
 --------------------------------------------------------------------------------
 GradGradGradGradGradGradGradGradGradGradGradGradGradGradGradGradGradGrad

                          Input orientation:                          
 ---------------------------------------------------------------------
 Center     Atomic      Atomic             Coordinates (Angstroms)
 Number     Number       Type             X           Y           Z
 ---------------------------------------------------------------------
      1          7           0       -1.149861   -0.265322    0.000000
      2          7           0       -0.689564    0.933754    0.000000
      3          7           0        0.656943    0.818244    0.000000
      4          1           0        1.240193    1.640266    0.000000
      5          7           0       -0.139405   -1.183381    0.000000
      6          6           0        0.971427   -0.489294    0.000000
      7          1           0        1.973175   -0.882720    0.000000
 ---------------------------------------------------------------------
                    Distance matrix (angstroms):
                    1          2          3          4          5
     1  N    0.000000
     2  N    1.284389   0.000000
     3  N    2.106812   1.351452   0.000000
     4  H    3.056734   2.055023   1.007919   0.000000
     5  N    1.365230   2.187449   2.154222   3.142654   0.000000
     6  C    2.133080   2.187225   1.344825   2.146453   1.309850
     7  H    3.183479   3.223314   2.150755   2.627303   2.133868
                    6          7
     6  C    0.000000
     7  H    1.076236   0.000000
 Stoichiometry    CH2N4
 Framework group  CS[SG(CH2N4)]
 Deg. of freedom    11
 Full point group                 CS      NOp   2
 Largest Abelian subgroup         CS      NOp   2
 Largest concise Abelian subgroup C1      NOp   1
                         Standard orientation:                         
 ---------------------------------------------------------------------
 Center     Atomic      Atomic             Coordinates (Angstroms)
 Number     Number       Type             X           Y           Z
 ---------------------------------------------------------------------
      1          7           0       -0.723743   -0.924392    0.000000
      2          7           0       -1.119700    0.297440    0.000000
      3          7           0        0.000000    1.054207    0.000000
      4          1           0       -0.063281    2.060137    0.000000
      5          7           0        0.639223   -1.002992    0.000000
      6          6           0        1.066639    0.235161    0.000000
      7          1           0        2.092981    0.559053    0.000000
 ---------------------------------------------------------------------
 Rotational constants (GHZ):     10.5512392     10.3685249      5.2295421

 **********************************************************************

            Population analysis using the SCF density.

 **********************************************************************

 Orbital symmetries:
       Occupied  (A') (A') (A') (A') (A') (A') (A') (A') (A') (A')
                 (A') (A') (A") (A') (A") (A") (A') (A')
       Virtual   (A") (A") (A') (A') (A') (A') (A') (A") (A') (A')
                 (A') (A') (A") (A') (A") (A') (A') (A') (A') (A')
                 (A") (A') (A") (A') (A') (A') (A') (A') (A') (A')
                 (A') (A") (A') (A') (A") (A') (A") (A") (A') (A')
                 (A") (A") (A') (A') (A") (A') (A') (A') (A") (A')
                 (A') (A") (A') (A') (A') (A") (A') (A") (A') (A")
                 (A') (A') (A') (A') (A') (A') (A") (A') (A") (A')
                 (A') (A') (A") (A") (A') (A") (A') (A') (A') (A')
                 (A') (A') (A') (A') (A') (A') (A') (A') (A')
 The electronic state is 1-A'.
 Alpha  occ. eigenvalues --  -14.43813 -14.40517 -14.38755 -14.35753 -10.27418
 Alpha  occ. eigenvalues --   -1.16110  -0.96114  -0.91140  -0.69349  -0.68026
 Alpha  occ. eigenvalues --   -0.61173  -0.51375  -0.51127  -0.39418  -0.34614
 Alpha  occ. eigenvalues --   -0.32588  -0.31753  -0.30485
 Alpha virt. eigenvalues --   -0.03733  -0.00111   0.00528   0.05880   0.10879
 Alpha virt. eigenvalues --    0.11850   0.14898   0.19282   0.22084   0.25859
 Alpha virt. eigenvalues --    0.27485   0.31110   0.33056   0.34001   0.35495
 Alpha virt. eigenvalues --    0.35913   0.37419   0.39958   0.42896   0.44263
 Alpha virt. eigenvalues --    0.44872   0.48104   0.48286   0.51887   0.53022
 Alpha virt. eigenvalues --    0.56387   0.59192   0.62939   0.66494   0.67496
 Alpha virt. eigenvalues --    0.72419   1.18564   1.22611   1.26398   1.29701
 Alpha virt. eigenvalues --    1.34080   1.40847   1.49525   1.60118   1.67534
 Alpha virt. eigenvalues --    1.68940   1.75183   1.76474   1.80714   1.81616
 Alpha virt. eigenvalues --    1.84269   1.87339   1.93311   1.96393   1.96806
 Alpha virt. eigenvalues --    2.00533   2.03402   2.04309   2.09508   2.10622
 Alpha virt. eigenvalues --    2.11548   2.13913   2.14718   2.19796   2.22397
 Alpha virt. eigenvalues --    2.26154   2.30092   2.38898   2.41194   2.51170
 Alpha virt. eigenvalues --    2.57654   2.58814   2.61459   2.61978   2.66947
 Alpha virt. eigenvalues --    2.74765   2.76666   2.82562   2.86968   2.89660
 Alpha virt. eigenvalues --    2.93950   3.16268   3.34654   3.49349   3.59371
 Alpha virt. eigenvalues --    3.76356   3.95392   4.03006   4.31115  21.93753
 Alpha virt. eigenvalues --   31.30637  31.56488  31.63960  31.67947
          Condensed to atoms (all electrons):
              1          2          3          4          5          6
     1  N    6.820569   0.172999  -0.022853   0.008152   0.133234  -0.039394
     2  N    0.172999   6.954663   0.055290  -0.028658  -0.007552  -0.081065
     3  N   -0.022853   0.055290   6.592370   0.332760  -0.137480   0.319857
     4  H    0.008152  -0.028658   0.332760   0.455865   0.010114  -0.045155
     5  N    0.133234  -0.007552  -0.137480   0.010114   6.654821   0.433396
     6  C   -0.039394  -0.081065   0.319857  -0.045155   0.433396   5.095436
     7  H    0.005043   0.005084  -0.033230  -0.000503  -0.015772   0.401533
              7
     1  N    0.005043
     2  N    0.005084
     3  N   -0.033230
     4  H   -0.000503
     5  N   -0.015772
     6  C    0.401533
     7  H    0.494675
 Mulliken atomic charges:
              1
     1  N   -0.077751
     2  N   -0.070762
     3  N   -0.106714
     4  H    0.267425
     5  N   -0.070761
     6  C   -0.084608
     7  H    0.143170
 Sum of Mulliken atomic charges =   0.00000
 Mulliken charges with hydrogens summed into heavy atoms:
              1
     1  N   -0.077751
     2  N   -0.070762
     3  N    0.160711
     5  N   -0.070761
     6  C    0.058562
 Sum of Mulliken charges with hydrogens summed into heavy atoms =   0.00000
 Electronic spatial extent (au):  <R**2>=            251.8116
 Charge=              0.0000 electrons
 Dipole moment (field-independent basis, Debye):
    X=              2.5633    Y=              4.8712    Z=              0.0000  Tot=              5.5045
 Quadrupole moment (field-independent basis, Debye-Ang):
   XX=            -29.4375   YY=            -26.9233   ZZ=            -28.6073
   XY=              1.8940   XZ=              0.0000   YZ=              0.0000
 Traceless Quadrupole moment (field-independent basis, Debye-Ang):
   XX=             -1.1148   YY=              1.3994   ZZ=             -0.2846
   XY=              1.8940   XZ=              0.0000   YZ=              0.0000
 Octapole moment (field-independent basis, Debye-Ang**2):
  XXX=             12.3634  YYY=             23.2077  ZZZ=              0.0000  XYY=             -0.5902
  XXY=              4.8916  XXZ=              0.0000  XZZ=             -0.6220  YZZ=              0.6702
  YYZ=              0.0000  XYZ=              0.0000
 Hexadecapole moment (field-independent basis, Debye-Ang**3):
 XXXX=           -147.1980 YYYY=           -124.6619 ZZZZ=            -27.0788 XXXY=              7.1988
 XXXZ=              0.0000 YYYX=             -0.3383 YYYZ=              0.0000 ZZZX=              0.0000
 ZZZY=              0.0000 XXYY=            -55.5219 XXZZ=            -31.6889 YYZZ=            -29.9694
 XXYZ=              0.0000 YYXZ=              0.0000 ZZXY=             -0.0170
 N-N= 1.669113006133D+02 E-N=-9.369382157257D+02  KE= 2.572720512656D+02
 Symmetry A'   KE= 2.477414819193D+02
 Symmetry A"   KE= 9.530569346303D+00
 1\1\GINC-P601\FOpt\RB3LYP\TZVP\C1H2N4\RDJ3\01-Feb-2011\0\\#B3LYP/TZVP 
 opt freq\\1H tetrazole c CH-NH-N=N-N= casno=288948 method=8 basis=32\\
 0,1\N,-1.149861444,-0.2653219457,0.\N,-0.6895637305,0.9337535073,0.\N,
 0.6569429638,0.8182436544,0.\H,1.2401931292,1.6402657264,0.\N,-0.13940
 54578,-1.183381027,0.\C,0.9714273082,-0.4892937025,0.\H,1.9731752312,-
 0.8827202129,0.\\Version=AM64L-G09RevA.02\State=1-A'\HF=-258.3365521\R
 MSD=2.326e-09\RMSF=1.277e-04\Dipole=1.9891696,0.8562334,0.\Quadrupole=
 1.2869866,-1.0754157,-0.2115709,1.2087789,0.,0.\PG=CS [SG(C1H2N4)]\\@


 YOU SHOULDN'T LET PEOPLE DRIVE YOU CRAZY
 WHEN YOU KNOW IT'S WITHIN WALKING DISTANCE.
 Job cpu time:  0 days  0 hours  1 minutes 38.5 seconds.
 File lengths (MBytes):  RWF=      9 Int=      0 D2E=      0 Chk=      2 Scr=      1
 Normal termination of Gaussian 09 at Tue Feb  1 08:48:46 2011.
 Link1:  Proceeding to internal job step number  2.
 ----------------------------------------------------------------
 #N Geom=AllCheck Guess=TCheck SCRF=Check GenChk RB3LYP/TZVP Freq
 ----------------------------------------------------------------
 1/10=4,29=7,30=1,38=1,40=1/1,3;
 2/12=2,40=1/2;
 3/5=19,7=101,11=2,14=-4,16=1,25=1,30=1,70=2,71=2,74=-5,116=1/1,2,3;
 4/5=101/1;
 5/5=2,98=1/2;
 8/6=4,10=90,11=11/1;
 11/6=1,8=1,9=11,15=111,16=1/1,2,10;
 10/6=1/2;
 6/7=2,8=2,9=2,10=2,18=1,28=1/1;
 7/8=1,10=1,25=1/1,2,3,16;
 1/10=4,30=1/3;
 99//99;
 ----------------------------------------------------------
 1H tetrazole c CH-NH-N=N-N= casno=288948 method=8 basis=32
 ----------------------------------------------------------
 Redundant internal coordinates taken from checkpoint file:
 /gaussian/Gau-10324.chk
 Charge =  0 Multiplicity = 1
 N,0,-1.149861444,-0.2653219457,0.
 N,0,-0.6895637305,0.9337535073,0.
 N,0,0.6569429638,0.8182436544,0.
 H,0,1.2401931292,1.6402657264,0.
 N,0,-0.1394054578,-1.183381027,0.
 C,0,0.9714273082,-0.4892937025,0.
 H,0,1.9731752312,-0.8827202129,0.
 Recover connectivity data from disk.

 GradGradGradGradGradGradGradGradGradGradGradGradGradGradGradGradGradGrad
 Berny optimization.
 Initialization pass.
                           ----------------------------
                           !    Initial Parameters    !
                           ! (Angstroms and Degrees)  !
 --------------------------                            --------------------------
 ! Name  Definition              Value          Derivative Info.                !
 --------------------------------------------------------------------------------
 ! R1    R(1,2)                  1.2844         calculate D2E/DX2 analytically  !
 ! R2    R(1,5)                  1.3652         calculate D2E/DX2 analytically  !
 ! R3    R(2,3)                  1.3515         calculate D2E/DX2 analytically  !
 ! R4    R(3,4)                  1.0079         calculate D2E/DX2 analytically  !
 ! R5    R(3,6)                  1.3448         calculate D2E/DX2 analytically  !
 ! R6    R(5,6)                  1.3098         calculate D2E/DX2 analytically  !
 ! R7    R(6,7)                  1.0762         calculate D2E/DX2 analytically  !
 ! A1    A(2,1,5)              111.2563         calculate D2E/DX2 analytically  !
 ! A2    A(1,2,3)              106.0976         calculate D2E/DX2 analytically  !
 ! A3    A(2,3,4)              120.4538         calculate D2E/DX2 analytically  !
 ! A4    A(2,3,6)              108.4268         calculate D2E/DX2 analytically  !
 ! A5    A(4,3,6)              131.1194         calculate D2E/DX2 analytically  !
 ! A6    A(1,5,6)              105.7444         calculate D2E/DX2 analytically  !
 ! A7    A(3,6,5)              108.4749         calculate D2E/DX2 analytically  !
 ! A8    A(3,6,7)              124.9656         calculate D2E/DX2 analytically  !
 ! A9    A(5,6,7)              126.5595         calculate D2E/DX2 analytically  !
 ! D1    D(5,1,2,3)              0.0            calculate D2E/DX2 analytically  !
 ! D2    D(2,1,5,6)              0.0            calculate D2E/DX2 analytically  !
 ! D3    D(1,2,3,4)            180.0            calculate D2E/DX2 analytically  !
 ! D4    D(1,2,3,6)              0.0            calculate D2E/DX2 analytically  !
 ! D5    D(2,3,6,5)              0.0            calculate D2E/DX2 analytically  !
 ! D6    D(2,3,6,7)            180.0            calculate D2E/DX2 analytically  !
 ! D7    D(4,3,6,5)            180.0            calculate D2E/DX2 analytically  !
 ! D8    D(4,3,6,7)              0.0            calculate D2E/DX2 analytically  !
 ! D9    D(1,5,6,3)              0.0            calculate D2E/DX2 analytically  !
 ! D10   D(1,5,6,7)            180.0            calculate D2E/DX2 analytically  !
 --------------------------------------------------------------------------------
 Trust Radius=3.00D-01 FncErr=1.00D-07 GrdErr=1.00D-07
 Number of steps in this run=   2 maximum allowed number of steps=   2.
 GradGradGradGradGradGradGradGradGradGradGradGradGradGradGradGradGradGrad

                          Input orientation:                          
 ---------------------------------------------------------------------
 Center     Atomic      Atomic             Coordinates (Angstroms)
 Number     Number       Type             X           Y           Z
 ---------------------------------------------------------------------
      1          7           0       -1.149861   -0.265322    0.000000
      2          7           0       -0.689564    0.933754    0.000000
      3          7           0        0.656943    0.818244    0.000000
      4          1           0        1.240193    1.640266    0.000000
      5          7           0       -0.139405   -1.183381    0.000000
      6          6           0        0.971427   -0.489294    0.000000
      7          1           0        1.973175   -0.882720    0.000000
 ---------------------------------------------------------------------
                    Distance matrix (angstroms):
                    1          2          3          4          5
     1  N    0.000000
     2  N    1.284389   0.000000
     3  N    2.106812   1.351452   0.000000
     4  H    3.056734   2.055023   1.007919   0.000000
     5  N    1.365230   2.187449   2.154222   3.142654   0.000000
     6  C    2.133080   2.187225   1.344825   2.146453   1.309850
     7  H    3.183479   3.223314   2.150755   2.627303   2.133868
                    6          7
     6  C    0.000000
     7  H    1.076236   0.000000
 Stoichiometry    CH2N4
 Framework group  CS[SG(CH2N4)]
 Deg. of freedom    11
 Full point group                 CS      NOp   2
 Largest Abelian subgroup         CS      NOp   2
[...]
 Symmetry A"   KE= 9.530569409886D+00
  Exact polarizability:  41.858   0.744  41.491   0.000   0.000  22.041
 Approx polarizability:  69.160   0.298  73.731   0.000   0.000  32.342
 Calling FoFJK, ICntrl=    100127 FMM=F ISym2X=1 I1Cent= 0 IOpClX= 0 NMat=1 NMatS=1 NMatT=0.
 Full mass-weighted force constant matrix:
 Low frequencies ---   -5.9688   -0.0007   -0.0006    0.0016    9.6709   14.5705
 Low frequencies ---  573.7731  691.2658  733.7035
 Diagonal vibrational polarizability:
        1.2699320       1.2671693       8.2089364
 Harmonic frequencies (cm**-1), IR intensities (KM/Mole), Raman scattering
 activities (A**4/AMU), depolarization ratios for plane and unpolarized
 incident light, reduced masses (AMU), force constants (mDyne/A),
 and normal coordinates:
                     1                      2                      3
                    A"                     A"                     A"
 Frequencies --   573.7729               691.2656               733.7035
 Red. masses --     2.0053                 1.8390                 7.5568
 Frc consts  --     0.3890                 0.5177                 2.3968
 IR Inten    --    73.9161                14.0354                 9.4988
  Atom  AN      X      Y      Z        X      Y      Z        X      Y      Z
     1   7     0.00   0.00   0.01     0.00   0.00   0.04     0.00   0.00   0.47
     2   7     0.00   0.00  -0.10     0.00   0.00   0.09     0.00   0.00  -0.40
     3   7     0.00   0.00   0.23     0.00   0.00  -0.08     0.00   0.00   0.11
     4   1     0.00   0.00  -0.93     0.00   0.00  -0.84     0.00   0.00   0.70
     5   7     0.00   0.00   0.04     0.00   0.00  -0.16     0.00   0.00  -0.32
     6   6     0.00   0.00  -0.11     0.00   0.00   0.17     0.00   0.00   0.10
     7   1     0.00   0.00  -0.23     0.00   0.00   0.48     0.00   0.00   0.07
                     4                      5                      6
                    A"                     A'                     A'
 Frequencies --   847.8252               953.2521              1010.8451
 Red. masses --     1.3263                 6.3021                 5.6110
 Frc consts  --     0.5617                 3.3741                 3.3780
 IR Inten    --    24.0791                 6.5535                 1.0797
  Atom  AN      X      Y      Z        X      Y      Z        X      Y      Z
     1   7     0.00   0.00   0.02    -0.23   0.19   0.00     0.21   0.01   0.00
     2   7     0.00   0.00   0.00    -0.13   0.13   0.00    -0.07  -0.06   0.00
     3   7     0.00   0.00   0.02    -0.11  -0.09   0.00     0.06   0.36   0.00
     4   1     0.00   0.00   0.09     0.22  -0.07   0.00     0.54   0.41   0.00
     5   7     0.00   0.00   0.02     0.47  -0.18   0.00     0.07  -0.26   0.00
     6   6     0.00   0.00  -0.16     0.00  -0.12   0.00    -0.33  -0.07   0.00
     7   1     0.00   0.00   0.98    -0.24   0.69   0.00    -0.28  -0.30   0.00
                     7                      8                      9
                    A'                     A'                     A'
 Frequencies --  1016.3361              1060.5853              1144.5881
 Red. masses --     5.9792                 3.2387                 2.0453
 Frc consts  --     3.6389                 2.1464                 1.5787
 IR Inten    --    17.0807                26.3384                18.4516
  Atom  AN      X      Y      Z        X      Y      Z        X      Y      Z
     1   7     0.23   0.02   0.00     0.22   0.08   0.00    -0.12  -0.12   0.00
     2   7     0.32   0.29   0.00    -0.25   0.05   0.00     0.10  -0.03   0.00
     3   7    -0.25  -0.15   0.00     0.06  -0.20   0.00     0.13   0.00   0.00
     4   1    -0.38  -0.16   0.00     0.81  -0.16   0.00     0.42   0.01   0.00
     5   7    -0.10  -0.14   0.00    -0.08   0.02   0.00    -0.03  -0.01   0.00
     6   6    -0.17  -0.06   0.00     0.00   0.04   0.00    -0.10   0.12   0.00
     7   1    -0.38   0.55   0.00    -0.10   0.37   0.00    -0.32   0.80   0.00
                    10                     11                     12
                    A'                     A'                     A'
 Frequencies --  1264.6839              1287.2591              1448.3309
 Red. masses --     2.1715                10.9218                 3.0079
 Frc consts  --     2.0463                10.6629                 3.7175
 IR Inten    --     4.4754                15.4930                 9.2553
  Atom  AN      X      Y      Z        X      Y      Z        X      Y      Z
     1   7    -0.03  -0.09   0.00    -0.02   0.58   0.00     0.01   0.00   0.00
     2   7     0.06   0.07   0.00     0.24  -0.46   0.00     0.06  -0.09   0.00
     3   7    -0.05  -0.08   0.00     0.10  -0.18   0.00    -0.17   0.13   0.00
     4   1     0.66  -0.04   0.00    -0.16  -0.24   0.00     0.69   0.21   0.00
     5   7     0.10   0.17   0.00    -0.02   0.15   0.00    -0.07   0.12   0.00
     6   6    -0.16  -0.03   0.00    -0.31  -0.07   0.00     0.15  -0.26   0.00
     7   1     0.03  -0.68   0.00    -0.36  -0.07   0.00    -0.08   0.55   0.00
                    13                     14                     15
                    A'                     A'                     A'
 Frequencies --  1507.6407              3283.6331              3645.5052
 Red. masses --     3.0563                 1.1007                 1.0837
 Frc consts  --     4.0931                 6.9927                 8.4854
 IR Inten    --    17.9674                 2.0679                97.2262
  Atom  AN      X      Y      Z        X      Y      Z        X      Y      Z
     1   7     0.05  -0.08   0.00     0.00   0.00   0.00     0.00   0.00   0.00
     2   7    -0.09   0.08   0.00     0.00   0.00   0.00     0.00   0.00   0.00
     3   7     0.17   0.02   0.00     0.00   0.00   0.00     0.01  -0.08   0.00
     4   1    -0.77  -0.04   0.00     0.01   0.02   0.00    -0.06   0.99   0.00
     5   7     0.05   0.19   0.00     0.00   0.00   0.00     0.00   0.00   0.00
     6   6    -0.11  -0.26   0.00     0.09   0.03   0.00     0.00   0.00   0.00
     7   1    -0.34   0.35   0.00    -0.95  -0.30   0.00     0.02   0.00   0.00

 -------------------
 - Thermochemistry -
 -------------------
 Temperature   298.150 Kelvin.  Pressure   1.00000 Atm.
 Atom     1 has atomic number  7 and mass  14.00307
 Atom     2 has atomic number  7 and mass  14.00307
 Atom     3 has atomic number  7 and mass  14.00307
 Atom     4 has atomic number  1 and mass   1.00783
 Atom     5 has atomic number  7 and mass  14.00307
 Atom     6 has atomic number  6 and mass  12.00000
 Atom     7 has atomic number  1 and mass   1.00783
 Molecular mass:    70.02795 amu.
 Principal axes and moments of inertia in atomic units:
                           1         2         3
     Eigenvalues --   171.04543 174.05959 345.10502
           X            0.92898   0.37013   0.00000
           Y           -0.37013   0.92898   0.00000
           Z            0.00000   0.00000   1.00000
 This molecule is an asymmetric top.
 Rotational symmetry number  1.
 Rotational temperatures (Kelvin)      0.50638     0.49761     0.25098
 Rotational constants (GHZ):          10.55124    10.36852     5.22954
 Zero-point vibrational energy     122433.2 (Joules/Mol)
                                   29.26223 (Kcal/Mol)
 Warning -- explicit consideration of   1 degrees of freedom as
           vibrations may cause significant error
 Vibrational temperatures:    825.53   994.58  1055.63  1219.83  1371.52
          (Kelvin)           1454.38  1462.28  1525.94  1646.80  1819.60
                             1852.08  2083.82  2169.16  4724.41  5245.06
 
 Zero-point correction=                           0.046632 (Hartree/Particle)
 Thermal correction to Energy=                    0.050121
 Thermal correction to Enthalpy=                  0.051065
 Thermal correction to Gibbs Free Energy=         0.020535
 Sum of electronic and zero-point Energies=           -258.289920
 Sum of electronic and thermal Energies=              -258.286431
 Sum of electronic and thermal Enthalpies=            -258.285487
 Sum of electronic and thermal Free Energies=         -258.316017
 
                     E (Thermal)             CV                S
                      KCal/Mol        Cal/Mol-Kelvin    Cal/Mol-Kelvin
 Total                   31.452             11.436             64.256
 Electronic               0.000              0.000              0.000
 Translational            0.889              2.981             38.656
 Rotational               0.889              2.981             23.845
 Vibrational             29.674              5.474              1.756
 Vibration     1          0.930              1.088              0.497
                       Q            Log10(Q)             Ln(Q)
 Total Bot       0.358554D-09         -9.445446        -21.748943
 Total V=0       0.100900D+13         12.003891         27.639981
 Vib (Bot)       0.429008D-21        -21.367535        -49.200568
 Vib (Bot)    1  0.267234D+00         -0.573109         -1.319632
 Vib (V=0)       0.120726D+01          0.081802          0.188356
 Vib (V=0)    1  0.106693D+01          0.028137          0.064789
 Electronic      0.100000D+01          0.000000          0.000000
 Translational   0.230336D+08          7.362362         16.952466
 Rotational      0.362850D+05          4.559727         10.499159
 ***** Axes restored to original set *****
 -------------------------------------------------------------------
 Center     Atomic                   Forces (Hartrees/Bohr)
 Number     Number              X              Y              Z
 -------------------------------------------------------------------
      1        7           0.000248412   -0.000187031    0.000000000
      2        7          -0.000069836    0.000063984    0.000000000
      3        7           0.000086330   -0.000245187    0.000000000
      4        1          -0.000010170    0.000004800    0.000000000
      5        7          -0.000266621    0.000123188    0.000000000
      6        6           0.000011804    0.000284352    0.000000000
      7        1           0.000000081   -0.000044105    0.000000000
 -------------------------------------------------------------------
 Cartesian Forces:  Max     0.000284352 RMS     0.000127720

 GradGradGradGradGradGradGradGradGradGradGradGradGradGradGradGradGradGrad
 Berny optimization.
 Internal  Forces:  Max     0.000269199 RMS     0.000070476
 Search for a local minimum.
 Step number   1 out of a maximum of    2
 All quantities printed in internal units (Hartrees-Bohrs-Radians)
 Second derivative matrix not updated -- analytic derivatives used.
     Eigenvalues ---    0.00804   0.02498   0.06937   0.07679   0.10178
     Eigenvalues ---    0.10615   0.18588   0.22982   0.33888   0.37601
     Eigenvalues ---    0.42736   0.46042   0.47373   0.57166   0.62722
     Eigenvalues --- 1000.000001000.000001000.000001000.000001000.00000
     Eigenvalues --- 1000.000001000.000001000.000001000.000001000.00000
     Eigenvalues --- 1000.00000
 Angle between quadratic step and forces=  21.49 degrees.
 Linear search not attempted -- first point.
 Iteration  1 RMS(Cart)=  0.00022335 RMS(Int)=  0.00000005
 Iteration  2 RMS(Cart)=  0.00000005 RMS(Int)=  0.00000001
 ClnCor:  largest displacement from symmetrization is 6.44D-13 for atom     1.
 Variable       Old X    -DE/DX   Delta X   Delta X   Delta X     New X
                                 (Linear)    (Quad)   (Total)
    R1        2.42714   0.00001   0.00000   0.00022   0.00022   2.42737
    R2        2.57991  -0.00027   0.00000  -0.00119  -0.00119   2.57872
    R3        2.55387   0.00004   0.00000   0.00029   0.00029   2.55416
    R4        1.90469   0.00000   0.00000  -0.00001  -0.00001   1.90469
    R5        2.54135  -0.00020   0.00000  -0.00066  -0.00066   2.54069
    R6        2.47526   0.00007   0.00000   0.00043   0.00043   2.47568
    R7        2.03379   0.00002   0.00000   0.00003   0.00003   2.03382
    A1        1.94179   0.00005   0.00000   0.00027   0.00027   1.94206
    A2        1.85175  -0.00006   0.00000  -0.00037  -0.00037   1.85138
    A3        2.10232  -0.00002   0.00000  -0.00024  -0.00024   2.10208
    A4        1.89240   0.00001   0.00000   0.00012   0.00012   1.89252
    A5        2.28847   0.00001   0.00000   0.00012   0.00012   2.28858
    A6        1.84559   0.00001   0.00000   0.00010   0.00010   1.84569
    A7        1.89324   0.00000   0.00000  -0.00012  -0.00012   1.89313
    A8        2.18106   0.00004   0.00000   0.00053   0.00053   2.18160
    A9        2.20888  -0.00004   0.00000  -0.00042  -0.00042   2.20846
    D1        0.00000   0.00000   0.00000   0.00000   0.00000   0.00000
    D2        0.00000   0.00000   0.00000   0.00000   0.00000   0.00000
    D3        3.14159   0.00000   0.00000   0.00000   0.00000   3.14159
    D4        0.00000   0.00000   0.00000   0.00000   0.00000   0.00000
    D5        0.00000   0.00000   0.00000   0.00000   0.00000   0.00000
    D6        3.14159   0.00000   0.00000   0.00000   0.00000   3.14159
    D7        3.14159   0.00000   0.00000   0.00000   0.00000   3.14159
    D8        0.00000   0.00000   0.00000   0.00000   0.00000   0.00000
    D9        0.00000   0.00000   0.00000   0.00000   0.00000   0.00000
   D10        3.14159   0.00000   0.00000   0.00000   0.00000   3.14159
         Item               Value     Threshold  Converged?
 Maximum Force            0.000269     0.000450     YES
 RMS     Force            0.000070     0.000300     YES
 Maximum Displacement     0.000523     0.001800     YES
 RMS     Displacement     0.000223     0.001200     YES
 Predicted change in Energy=-2.875846D-07
 Optimization completed.
    -- Stationary point found.
                           ----------------------------
                           !   Optimized Parameters   !
                           ! (Angstroms and Degrees)  !
 --------------------------                            --------------------------
 ! Name  Definition              Value          Derivative Info.                !
 --------------------------------------------------------------------------------
 ! R1    R(1,2)                  1.2844         -DE/DX =    0.0                 !
 ! R2    R(1,5)                  1.3652         -DE/DX =   -0.0003              !
 ! R3    R(2,3)                  1.3515         -DE/DX =    0.0                 !
 ! R4    R(3,4)                  1.0079         -DE/DX =    0.0                 !
 ! R5    R(3,6)                  1.3448         -DE/DX =   -0.0002              !
 ! R6    R(5,6)                  1.3098         -DE/DX =    0.0001              !
 ! R7    R(6,7)                  1.0762         -DE/DX =    0.0                 !
 ! A1    A(2,1,5)              111.2563         -DE/DX =    0.0                 !
 ! A2    A(1,2,3)              106.0976         -DE/DX =   -0.0001              !
 ! A3    A(2,3,4)              120.4538         -DE/DX =    0.0                 !
 ! A4    A(2,3,6)              108.4268         -DE/DX =    0.0                 !
 ! A5    A(4,3,6)              131.1194         -DE/DX =    0.0                 !
 ! A6    A(1,5,6)              105.7444         -DE/DX =    0.0                 !
 ! A7    A(3,6,5)              108.4749         -DE/DX =    0.0                 !
 ! A8    A(3,6,7)              124.9656         -DE/DX =    0.0                 !
 ! A9    A(5,6,7)              126.5595         -DE/DX =    0.0                 !
 ! D1    D(5,1,2,3)              0.0            -DE/DX =    0.0                 !
 ! D2    D(2,1,5,6)              0.0            -DE/DX =    0.0                 !
 ! D3    D(1,2,3,4)            180.0            -DE/DX =    0.0                 !
 ! D4    D(1,2,3,6)              0.0            -DE/DX =    0.0                 !
 ! D5    D(2,3,6,5)              0.0            -DE/DX =    0.0                 !
 ! D6    D(2,3,6,7)            180.0            -DE/DX =    0.0                 !
 ! D7    D(4,3,6,5)            180.0            -DE/DX =    0.0                 !
 ! D8    D(4,3,6,7)              0.0            -DE/DX =    0.0                 !
 ! D9    D(1,5,6,3)              0.0            -DE/DX =    0.0                 !
 ! D10   D(1,5,6,7)            180.0            -DE/DX =    0.0                 !
 --------------------------------------------------------------------------------
 GradGradGradGradGradGradGradGradGradGradGradGradGradGradGradGradGradGrad

 1\1\GINC-P601\Freq\RB3LYP\TZVP\C1H2N4\RDJ3\01-Feb-2011\0\\#N Geom=AllC
 heck Guess=TCheck SCRF=Check GenChk RB3LYP/TZVP Freq\\1H tetrazole c C
 H-NH-N=N-N= casno=288948 method=8 basis=32\\0,1\N,-1.149861444,-0.2653
 219457,0.\N,-0.6895637305,0.9337535073,0.\N,0.6569429638,0.8182436544,
 0.\H,1.2401931292,1.6402657264,0.\N,-0.1394054578,-1.183381027,0.\C,0.
 9714273082,-0.4892937025,0.\H,1.9731752312,-0.8827202129,0.\\Version=A
 M64L-G09RevA.02\State=1-A'\HF=-258.3365521\RMSD=2.745e-09\RMSF=1.277e-
 04\ZeroPoint=0.0466323\Thermal=0.0501212\Dipole=1.9891699,0.8562328,0.
 \DipoleDeriv=-0.0374231,-0.1617115,0.,-0.2352243,0.1043047,0.,0.,0.,-0
 .1659924,0.2899106,0.2561736,0.,0.2590974,-0.3224627,0.,0.,0.,-0.10531
 42,-0.3726741,-0.3152413,0.,-0.2268305,-0.258286,0.,0.,0.,-0.1156422,0
 .2202674,0.0439238,0.,0.0320908,0.2667774,0.,0.,0.,0.3391535,-0.364042
 4,0.1362488,0.,-0.0053113,-0.3417251,0.,0.,0.,-0.1994596,0.2038522,0.0
 361881,0.,0.1684634,0.4321959,0.,0.,0.,0.070519,0.0601094,0.0044184,0.
 ,0.0077145,0.1191957,0.,0.,0.,0.176736\Polar=42.4402043,-0.023876,40.9
 083744,0.,0.,22.0414594\PG=CS [SG(C1H2N4)]\NImag=0\\0.53915917,0.10362
 510,0.45388091,0.,0.,0.12249919,-0.13935542,-0.10289005,0.,0.40137078,
 -0.04645654,-0.30971616,0.,-0.03818667,0.59963670,0.,0.,-0.09508530,0.
 ,0.,0.11158406,-0.11500781,-0.11087435,0.,-0.18721903,0.02192026,0.,0.
 62878394,-0.03423472,-0.06256251,0.,0.05572477,-0.12054614,0.,0.206691
 97,0.90941115,0.,0.,0.02511945,0.,0.,-0.06422243,0.,0.,0.08585132,-0.0
 1088022,-0.00127448,0.,-0.00672225,-0.03200107,0.,-0.19449897,-0.17706
 190,0.,0.19712699,0.00754384,0.00182497,0.,0.00138750,0.01214714,0.,-0
 .18450432,-0.33713149,0.,0.19479536,0.33341984,0.,0.,0.00804576,0.,0.,
 -0.01245688,0.,0.,-0.00665420,0.,0.,0.01402095,-0.15009912,0.04485111,
 0.,-0.00022642,0.09006296,0.,-0.00250773,-0.11356775,0.,-0.00027238,-0
 .00070772,0.,0.46454456,0.00873235,-0.11464028,0.,-0.01555258,-0.12488
 970,0.,0.00062553,-0.08437030,0.,0.00893865,-0.00562351,0.,0.11477241,
 0.51670434,0.,0.,-0.08863619,0.,0.,0.03540679,0.,0.,0.01939032,0.,0.,0
 .00781688,0.,0.,0.10774646,-0.12095201,0.06703239,0.,-0.06795304,0.008
 53279,0.,-0.13487903,0.06492684,0.,0.01562464,-0.01917577,0.,-0.295342
 28,-0.12736542,0.,0.92316648,-0.03305969,0.03243496,0.,0.10043581,-0.0
 5060838,0.,0.03439139,-0.29934298,0.,0.00677006,-0.00429841,0.,-0.1183
 0415,-0.20188172,0.,-0.09823649,0.62154804,0.,0.,0.01898599,0.,0.,0.01
 853903,0.,0.,-0.05630083,0.,0.,-0.01005205,0.,0.,-0.07629600,0.,0.,0.1
 3379309,-0.00286459,-0.00046971,0.,0.00010539,-0.00387172,0.,0.0053286
 3,-0.00247922,0.,-0.00037781,0.00066110,0.,-0.01609663,0.00984907,0.,-
 0.31966475,0.10800306,0.,0.33356977,-0.00615034,-0.00122190,0.,-0.0009
 1879,-0.00602347,0.,0.03174953,-0.00545773,0.,-0.00016664,-0.00033855,
 0.,-0.01710685,0.01470117,0.,0.10428566,-0.09785152,0.,-0.11169258,0.0
 9619199,0.,0.,0.00907110,0.,0.,0.00623474,0.,0.,-0.00318363,0.,0.,-0.0
 0072046,0.,0.,-0.00542826,0.,0.,-0.02866923,0.,0.,0.02269575\\-0.00024
 841,0.00018703,0.,0.00006984,-0.00006398,0.,-0.00008633,0.00024519,0.,
 0.00001017,-0.00000480,0.,0.00026662,-0.00012319,0.,-0.00001180,-0.000
 28435,0.,-0.00000008,0.00004410,0.\\\@


 THE DIFFICULTY IN SCIENCE IS OFTEN NOT SO MUCH HOW
 TO MAKE A DISCOVERY BUT RATHER TO KNOW ONE HAS MADE IT.

                                                   -- J. D. BERNAL
 Job cpu time:  0 days  0 hours  1 minutes 58.2 seconds.
 File lengths (MBytes):  RWF=     14 Int=      0 D2E=      0 Chk=      2 Scr=      1
 Normal termination of Gaussian 09 at Tue Feb  1 08:50:46 2011.
