 Entering Gaussian System, Link 0=g98
 Initial command:
 /usr/local/apps/g98a6/g98/l1.exe /wrk/rdj3/Gau-56416.inp -scrdir=/wrk/rdj3/
 Entering Link 1 = /usr/local/apps/g98a6/g98/l1.exe PID=     38282.
  
 Copyright (c) 1988,1990,1992,1993,1995,1998 Gaussian, Inc.
                  All Rights Reserved.
  
 This is part of the Gaussian(R) 98 program.  It is based on
 the Gaussian 94(TM) system (copyright 1995 Gaussian, Inc.),
 the Gaussian 92(TM) system (copyright 1992 Gaussian, Inc.),
 the Gaussian 90(TM) system (copyright 1990 Gaussian, Inc.),
 the Gaussian 88(TM) system (copyright 1988 Gaussian, Inc.),
 the Gaussian 86(TM) system (copyright 1986 Carnegie Mellon
 University), and the Gaussian 82(TM) system (copyright 1983
 Carnegie Mellon University). Gaussian is a federally registered
 trademark of Gaussian, Inc.
  
 This software contains proprietary and confidential information,
 including trade secrets, belonging to Gaussian, Inc.
  
 This software is provided under written license and may be
 used, copied, transmitted, or stored only in accord with that
 written license.
  
 The following legend is applicable only to US Government
 contracts under DFARS:
  
                    RESTRICTED RIGHTS LEGEND
  
 Use, duplication or disclosure by the US Government is subject
 to restrictions as set forth in subparagraph (c)(1)(ii) of the
 Rights in Technical Data and Computer Software clause at DFARS
 252.227-7013.
  
 Gaussian, Inc.
 Carnegie Office Park, Building 6, Pittsburgh, PA 15106 USA
  
 The following legend is applicable only to US Government
 contracts under FAR:
  
                    RESTRICTED RIGHTS LEGEND
  
 Use, reproduction and disclosure by the US Government is subject
 to restrictions as set forth in subparagraph (c) of the
 Commercial Computer Software - Restricted Rights clause at FAR
 52.227-19.
  
 Gaussian, Inc.
 Carnegie Office Park, Building 6, Pittsburgh, PA 15106 USA
  
  
 ---------------------------------------------------------------
 Warning -- This program may not be used in any manner that
 competes with the business of Gaussian, Inc. or will provide
 assistance to any competitor of Gaussian, Inc.  The licensee
 of this program is prohibited from giving any competitor of
 Gaussian, Inc. access to this program.  By using this program,
 the user acknowledges that Gaussian, Inc. is engaged in the
 business of creating and licensing software in the field of
 computational chemistry and represents and warrants to the
 licensee that it is not a competitor of Gaussian, Inc. and that
 it will not use this program in any manner prohibited above.
 ---------------------------------------------------------------
  

 Cite this work as:
 Gaussian 98, Revision A.6,
 M. J. Frisch, G. W. Trucks, H. B. Schlegel, G. E. Scuseria, 
 M. A. Robb, J. R. Cheeseman, V. G. Zakrzewski, J. A. Montgomery, Jr., 
 R. E. Stratmann, J. C. Burant, S. Dapprich, J. M. Millam, 
 A. D. Daniels, K. N. Kudin, M. C. Strain, O. Farkas, J. Tomasi, 
 V. Barone, M. Cossi, R. Cammi, B. Mennucci, C. Pomelli, C. Adamo, 
 S. Clifford, J. Ochterski, G. A. Petersson, P. Y. Ayala, Q. Cui, 
 K. Morokuma, D. K. Malick, A. D. Rabuck, K. Raghavachari, 
 J. B. Foresman, J. Cioslowski, J. V. Ortiz, B. B. Stefanov, G. Liu, 
 A. Liashenko, P. Piskorz, I. Komaromi, R. Gomperts, R. L. Martin, 
 D. J. Fox, T. Keith, M. A. Al-Laham, C. Y. Peng, A. Nanayakkara, 
 C. Gonzalez, M. Challacombe, P. M. W. Gill, B. Johnson, W. Chen, 
 M. W. Wong, J. L. Andres, C. Gonzalez, M. Head-Gordon, 
 E. S. Replogle, and J. A. Pople, 
 Gaussian, Inc., Pittsburgh PA, 1998.

 **********************************************
 Gaussian 98:  IBM-RS6000-G98RevA.6 19-Oct-1998
                  19-Jun-2000 
 **********************************************
 %mem=24000000
 -----------------------
 #B3LYP/6-31G** opt freq
 -----------------------
 1/14=-1,18=20,26=3,38=1/1,3;
 2/9=110,17=6,18=5/2;
 3/5=1,6=6,7=101,11=2,25=1,30=1/1,2,3;
 4//1;
 5/5=2,38=4,42=-5/2;
 6/7=2,8=2,9=2,10=2,28=1/1;
 7//1,2,3,16;
 1/14=-1,18=20/3(1);
 99//99;
 2/9=110/2;
 3/5=1,6=6,7=101,11=2,25=1,30=1/1,2,3;
 4/5=5,16=2/1;
 5/5=2,38=4,42=-5/2;
 7//1,2,3,16;
 1/14=-1,18=20/3(-5);
 2/9=110/2;
 6/7=2,8=2,9=2,10=2,19=2,28=1/1;
 99/9=1/99;
 ----------------------------------------
 1H tetrazole c CH-NH-N=N-N= casno=288948
 ----------------------------------------
 Symbolic Z-matrix:
 Charge =  0 Multiplicity = 1
 7                    -1.12329  -0.25456   0. 
 7                    -0.67158   0.91328   0. 
 7                     0.65055   0.80984   0. 
 1                     1.224     1.62189   0. 
 7                    -0.13465  -1.16105   0. 
 6                     0.96218  -0.48332   0. 
 1                     1.95569  -0.87454   0. 

 GradGradGradGradGradGradGradGradGradGradGradGradGradGradGradGradGradGrad
 Berny optimization.
 Initialization pass.
                         ----------------------------
                         !    Initial Parameters    !
                         ! (Angstroms and Degrees)  !
 ------------------------                            -------------------------
 ! Name  Definition              Value          Derivative Info.             !
 -----------------------------------------------------------------------------
 ! R1    R(1,2)                  1.2522         estimate D2E/DX2             !
 ! R2    R(1,5)                  1.3413         estimate D2E/DX2             !
 ! R3    R(2,3)                  1.3262         estimate D2E/DX2             !
 ! R4    R(3,4)                  0.9941         estimate D2E/DX2             !
 ! R5    R(3,6)                  1.3302         estimate D2E/DX2             !
 ! R6    R(5,6)                  1.2893         estimate D2E/DX2             !
 ! R7    R(6,7)                  1.0678         estimate D2E/DX2             !
 ! A1    A(2,1,5)              111.3714         estimate D2E/DX2             !
 ! A2    A(1,2,3)              106.673          estimate D2E/DX2             !
 ! A3    A(2,3,4)              120.7559         estimate D2E/DX2             !
 ! A4    A(2,3,6)              108.0227         estimate D2E/DX2             !
 ! A5    A(4,3,6)              131.2214         estimate D2E/DX2             !
 ! A6    A(1,5,6)              105.77           estimate D2E/DX2             !
 ! A7    A(3,6,5)              108.1628         estimate D2E/DX2             !
 ! A8    A(3,6,7)              125.0426         estimate D2E/DX2             !
 ! A9    A(5,6,7)              126.7945         estimate D2E/DX2             !
 ! D1    D(5,1,2,3)              0.             estimate D2E/DX2             !
 ! D2    D(2,1,5,6)              0.             estimate D2E/DX2             !
 ! D3    D(1,2,3,4)            180.             estimate D2E/DX2             !
 ! D4    D(1,2,3,6)              0.             estimate D2E/DX2             !
 ! D5    D(2,3,6,5)              0.             estimate D2E/DX2             !
 ! D6    D(2,3,6,7)            180.             estimate D2E/DX2             !
 ! D7    D(4,3,6,5)            180.             estimate D2E/DX2             !
 ! D8    D(4,3,6,7)              0.             estimate D2E/DX2             !
 ! D9    D(1,5,6,3)              0.             estimate D2E/DX2             !
 ! D10   D(1,5,6,7)            180.             estimate D2E/DX2             !
 -----------------------------------------------------------------------------
 Trust Radius=3.00D-01 FncErr=1.00D-07 GrdErr=1.00D-06
 Number of steps in this run=  36 maximum allowed number of steps= 100.
 GradGradGradGradGradGradGradGradGradGradGradGradGradGradGradGradGradGrad

                          Input orientation:                          
 ---------------------------------------------------------------------
 Center     Atomic     Atomic              Coordinates (Angstroms)
 Number     Number      Type              X           Y           Z
 ---------------------------------------------------------------------
    1          7             0       -1.123293   -0.254560    0.000000
    2          7             0       -0.671576    0.913277    0.000000
    3          7             0        0.650545    0.809842    0.000000
    4          1             0        1.224004    1.621891    0.000000
    5          7             0       -0.134646   -1.161053    0.000000
    6          6             0        0.962183   -0.483316    0.000000
    7          1             0        1.955691   -0.874535    0.000000
 ---------------------------------------------------------------------
                    Distance matrix (angstroms):
                    1          2          3          4          5
     1  N    0.000000
     2  N    1.252155   0.000000
     3  N    2.068684   1.326161   0.000000
     4  H    3.005141   2.023699   0.994122   0.000000
     5  N    1.341325   2.142694   2.121545   3.096887   0.000000
     6  C    2.097985   2.149335   1.330179   2.121426   1.289326
     7  H    3.140782   3.177861   2.130852   2.601444   2.109882
                    6          7
     6  C    0.000000
     7  H    1.067760   0.000000
 Stoichiometry    CH2N4
 Framework group  CS[SG(CH2N4)]
 Deg. of freedom   11
 Full point group                 CS      NOp   2
 Largest Abelian subgroup         CS      NOp   2
 Largest concise Abelian subgroup C1      NOp   1
                         Standard orientation:                         
 ---------------------------------------------------------------------
 Center     Atomic     Atomic              Coordinates (Angstroms)
 Number     Number      Type              X           Y           Z
 ---------------------------------------------------------------------
    1          7             0       -0.716312   -0.901934    0.000000
    2          7             0       -1.095520    0.291420    0.000000
    3          7             0        0.000000    1.038775    0.000000
    4          1             0       -0.061479    2.030994    0.000000
    5          7             0        0.622151   -0.989495    0.000000
    6          6             0        1.052813    0.225779    0.000000
    7          1             0        2.072370    0.542976    0.000000
 ---------------------------------------------------------------------
 Rotational constants (GHZ):     10.9198679     10.7343949      5.4131685
 Isotopes: N-14,N-14,N-14,H-1,N-14,C-12,H-1
 Standard basis: 6-31G(d,p) (6D, 7F)
 There are    63 symmetry adapted basis functions of A'  symmetry.
 There are    22 symmetry adapted basis functions of A"  symmetry.
 Crude estimate of integral set expansion from redundant integrals=1.000.
 Integral buffers will be    262144 words long.
 Raffenetti 2 integral format.
 Two-electron integral symmetry is turned on.
    85 basis functions      154 primitive gaussians
    18 alpha electrons       18 beta electrons
       nuclear repulsion energy       169.8288422228 Hartrees.
 One-electron integrals computed using PRISM.
 NBasis=    85 RedAO= T  NBF=    63    22
 NBsUse=    85 1.00D-04 NBFU=    63    22
 Projected INDO Guess.
 Initial guess orbital symmetries:
       Occupied  (A') (A') (A') (A') (A') (A') (A') (A') (A') (A')
                 (A') (A") (A') (A') (A") (A") (A') (A')
       Virtual   (A") (A') (A") (A') (A') (A') (A') (A') (A') (A')
                 (A') (A') (A') (A') (A') (A') (A') (A') (A') (A')
                 (A') (A') (A') (A') (A') (A') (A') (A') (A') (A')
                 (A') (A') (A') (A') (A') (A') (A') (A') (A') (A')
                 (A') (A') (A') (A') (A') (A') (A') (A') (A') (A')
                 (A") (A") (A") (A") (A") (A") (A") (A") (A") (A")
                 (A") (A") (A") (A") (A") (A") (A")
 Requested convergence on RMS density matrix=1.00D-08 within  64 cycles.
 Requested convergence on MAX density matrix=1.00D-06.
 Keep R1 and R2 integrals in memory in canonical form, NReq=    13821249.
 Integral accuracy reduced to 1.0D-05 until final iterations.
 Initial convergence to 1.0D-05 achieved.  Increase integral accuracy.
 SCF Done:  E(RB+HF-LYP) =  -258.251399234     A.U. after   15 cycles
             Convg  =    0.4912D-08             -V/T =  2.0073
             S**2   =   0.0000

 **********************************************************************

            Population analysis using the SCF density.

 **********************************************************************

 Orbital Symmetries:
       Occupied  (A') (A') (A') (A') (A') (A') (A') (A') (A') (A')
                 (A') (A") (A') (A') (A") (A") (A') (A')
       Virtual   (A") (A") (A') (A') (A') (A') (A') (A') (A') (A")
                 (A') (A') (A') (A') (A") (A') (A') (A") (A') (A")
                 (A') (A') (A") (A') (A') (A') (A') (A') (A") (A')
                 (A") (A") (A') (A') (A") (A") (A') (A') (A') (A')
                 (A') (A") (A') (A") (A") (A') (A') (A") (A') (A')
                 (A") (A') (A') (A") (A") (A') (A') (A') (A') (A')
                 (A') (A') (A') (A') (A') (A') (A')
  The electronic state is 1-A'.
 Alpha  occ. eigenvalues --  -14.44762 -14.40915 -14.39030 -14.36022 -10.27606
 Alpha  occ. eigenvalues --   -1.17029  -0.95985  -0.90944  -0.68928  -0.67593
 Alpha  occ. eigenvalues --   -0.60806  -0.51163  -0.50748  -0.38478  -0.33756
 Alpha  occ. eigenvalues --   -0.31732  -0.30171  -0.28589
 Alpha virt. eigenvalues --   -0.01280   0.02568   0.05872   0.11267   0.19555
 Alpha virt. eigenvalues --    0.21006   0.30299   0.33174   0.43331   0.51439
 Alpha virt. eigenvalues --    0.51635   0.59727   0.60464   0.65595   0.66477
 Alpha virt. eigenvalues --    0.66930   0.68928   0.70552   0.72767   0.78929
 Alpha virt. eigenvalues --    0.80429   0.83202   0.83374   0.86034   0.93253
 Alpha virt. eigenvalues --    1.00435   1.04388   1.08344   1.22374   1.23084
 Alpha virt. eigenvalues --    1.33484   1.35453   1.39389   1.46109   1.52919
 Alpha virt. eigenvalues --    1.53791   1.64947   1.87232   1.90402   1.92708
 Alpha virt. eigenvalues --    2.02156   2.06119   2.12840   2.21156   2.26125
 Alpha virt. eigenvalues --    2.28211   2.32796   2.35793   2.39832   2.49554
 Alpha virt. eigenvalues --    2.51225   2.53571   2.56405   2.66049   2.73859
 Alpha virt. eigenvalues --    2.75329   2.83007   2.92396   3.06428   3.15485
 Alpha virt. eigenvalues --    3.27670   3.51052   3.59732   3.74803   4.05242
 Alpha virt. eigenvalues --    4.09207   4.44875
          Condensed to atoms (all electrons):
              1          2          3          4          5          6
  1  N    6.704413   0.280678  -0.089148   0.007063   0.277190  -0.101109
  2  N    0.280678   6.785303   0.200251  -0.025852  -0.080709  -0.114646
  3  N   -0.089148   0.200251   6.675070   0.343373  -0.072738   0.318279
  4  H    0.007063  -0.025852   0.343373   0.402390   0.006415  -0.028203
  5  N    0.277190  -0.080709  -0.072738   0.006415   6.779435   0.431593
  6  C   -0.101109  -0.114646   0.318279  -0.028203   0.431593   4.778131
  7  H    0.004787   0.003080  -0.043468   0.001057  -0.029198   0.389055
              7
  1  N    0.004787
  2  N    0.003080
  3  N   -0.043468
  4  H    0.001057
  5  N   -0.029198
  6  C    0.389055
  7  H    0.519758
 Total atomic charges:
              1
  1  N   -0.083874
  2  N   -0.048106
  3  N   -0.331619
  4  H    0.293757
  5  N   -0.311988
  6  C    0.326900
  7  H    0.154930
 Sum of Mulliken charges=   0.00000
 Atomic charges with hydrogens summed into heavy atoms:
              1
  1  N   -0.083874
  2  N   -0.048106
  3  N   -0.037862
  4  H    0.000000
  5  N   -0.311988
  6  C    0.481830
  7  H    0.000000
 Sum of Mulliken charges=   0.00000
 Electronic spatial extent (au):  <R**2>=   243.6961
 Charge=     0.0000 electrons
 Dipole moment (Debye):
    X=     2.4331    Y=     4.6933    Z=     0.0000  Tot=     5.2865
 Quadrupole moment (Debye-Ang):
   XX=   -28.5934   YY=   -26.0707   ZZ=   -27.8025
   XY=     1.6981   XZ=     0.0000   YZ=     0.0000
 Octapole moment (Debye-Ang**2):
  XXX=    10.9811  YYY=    21.3572  ZZZ=     0.0000  XYY=    -0.6317
  XXY=     4.2890  XXZ=     0.0000  XZZ=    -0.6176  YZZ=     0.5111
  YYZ=     0.0000  XYZ=     0.0000
 Hexadecapole moment (Debye-Ang**3):
 XXXX=  -137.7246 YYYY=  -115.6701 ZZZZ=   -23.9481 XXXY=     5.8264
 XXXZ=     0.0000 YYYX=    -0.5763 YYYZ=     0.0000 ZZZX=     0.0000
 ZZZY=     0.0000 XXYY=   -51.3470 XXZZ=   -29.0152 YYZZ=   -27.3811
 XXYZ=     0.0000 YYXZ=     0.0000 ZZXY=    -0.1420
 N-N= 1.698288422228D+02 E-N=-9.417961967372D+02  KE= 2.563799778684D+02
 Symmetry A'   KE= 2.468971678090D+02
 Symmetry A"   KE= 9.482810059339D+00
 ***** Axes restored to original set *****
 -------------------------------------------------------------------
 Center     Atomic                   Forces (Hartrees/Bohr)
 Number     Number              X              Y              Z
 -------------------------------------------------------------------
    1          7          -0.036379007   -0.029590317    0.000000000
    2          7          -0.010145690    0.050382506    0.000000000
    3          7           0.013652166    0.007680066    0.000000000
    4          1           0.008346118    0.011745503    0.000000000
    5          7          -0.008971899   -0.035095397    0.000000000
    6          6           0.025396744   -0.002139994    0.000000000
    7          1           0.008101569   -0.002982367    0.000000000
 -------------------------------------------------------------------
 Cartesian Forces:  Max     0.050382506 RMS     0.018682327

 GradGradGradGradGradGradGradGradGradGradGradGradGradGradGradGradGradGrad
 Berny optimization.
 Internal  Forces:  Max     0.048675240 RMS     0.014998866
 Search for a local minimum.
 Step number   1 out of a maximum of  36
 All quantities printed in internal units (Hartrees-Bohrs-Radians)
 Second derivative matrix not updated -- first step.
     Eigenvalues ---    0.02505   0.02639   0.02674   0.02834   0.16000
     Eigenvalues ---    0.16000   0.22605   0.24688   0.37515   0.48737
     Eigenvalues ---    0.50885   0.56605   0.58506   0.66912   0.78894
     Eigenvalues --- 1000.000001000.000001000.000001000.000001000.00000
     Eigenvalues --- 1000.000001000.000001000.000001000.000001000.00000
     Eigenvalues --- 1000.00000
 RFO step:  Lambda=-8.50297782D-03.
 Linear search not attempted -- first point.
 Iteration  1 RMS(Cart)=  0.02346273 RMS(Int)=  0.00003416
 Iteration  2 RMS(Cart)=  0.00002710 RMS(Int)=  0.00002113
 Iteration  3 RMS(Cart)=  0.00000000 RMS(Int)=  0.00002113
 Variable       Old X    -DE/DX   Delta X   Delta X   Delta X     New X
                                 (Linear)    (Quad)   (Total)
    R1        2.36623   0.04868   0.00000   0.06017   0.06020   2.42643
    R2        2.53474   0.02478   0.00000   0.04441   0.04442   2.57916
    R3        2.50608   0.02777   0.00000   0.04543   0.04543   2.55151
    R4        1.87862   0.01441   0.00000   0.02906   0.02906   1.90767
    R5        2.51367   0.02493   0.00000   0.03902   0.03899   2.55267
    R6        2.43647   0.03393   0.00000   0.04642   0.04640   2.48287
    R7        2.01777   0.00863   0.00000   0.02250   0.02250   2.04027
    A1        1.94380  -0.00260   0.00000  -0.00050  -0.00045   1.94335
    A2        1.86179  -0.00319   0.00000  -0.00614  -0.00610   1.85570
    A3        2.10759  -0.00120   0.00000  -0.00209  -0.00208   2.10551
    A4        1.88535   0.00247   0.00000   0.00460   0.00458   1.88993
    A5        2.29025  -0.00127   0.00000  -0.00251  -0.00250   2.28775
    A6        1.84604   0.00035   0.00000  -0.00098  -0.00099   1.84504
    A7        1.88780   0.00297   0.00000   0.00301   0.00297   1.89076
    A8        2.18241  -0.00169   0.00000  -0.00269  -0.00267   2.17974
    A9        2.21298  -0.00129   0.00000  -0.00032  -0.00030   2.21268
    D1        0.00000   0.00000   0.00000   0.00000   0.00000   0.00000
    D2        0.00000   0.00000   0.00000   0.00000   0.00000   0.00000
    D3        3.14159   0.00000   0.00000   0.00000   0.00000   3.14159
    D4        0.00000   0.00000   0.00000   0.00000   0.00000   0.00000
    D5        0.00000   0.00000   0.00000   0.00000   0.00000   0.00000
    D6        3.14159   0.00000   0.00000   0.00000   0.00000   3.14159
    D7        3.14159   0.00000   0.00000   0.00000   0.00000   3.14159
    D8        0.00000   0.00000   0.00000   0.00000   0.00000   0.00000
    D9        0.00000   0.00000   0.00000   0.00000   0.00000   0.00000
   D10        3.14159   0.00000   0.00000   0.00000   0.00000   3.14159
         Item               Value     Threshold  Converged?
 Maximum Force            0.048675     0.000450     NO 
 RMS     Force            0.014999     0.000300     NO 
 Maximum Displacement     0.052533     0.001800     NO 
 RMS     Displacement     0.023455     0.001200     NO 
 Predicted change in Energy=-4.197720D-03
 GradGradGradGradGradGradGradGradGradGradGradGradGradGradGradGradGradGrad

                          Input orientation:                          
 ---------------------------------------------------------------------
 Center     Atomic     Atomic              Coordinates (Angstroms)
 Number     Number      Type              X           Y           Z
 ---------------------------------------------------------------------
    1          7             0       -1.151092   -0.265013    0.000000
    2          7             0       -0.689468    0.933146    0.000000
    3          7             0        0.656104    0.821410    0.000000
    4          1             0        1.240654    1.644445    0.000000
    5          7             0       -0.143483   -1.185605    0.000000
    6          6             0        0.972317   -0.491870    0.000000
    7          1             0        1.977877   -0.884968    0.000000
 ---------------------------------------------------------------------
                    Distance matrix (angstroms):
                    1          2          3          4          5
     1  N    0.000000
     2  N    1.284010   0.000000
     3  N    2.108618   1.350203   0.000000
     4  H    3.060470   2.057017   1.009498   0.000000
     5  N    1.364832   2.187969   2.160428   3.150400   0.000000
     6  C    2.135493   2.189110   1.350813   2.153102   1.313879
     7  H    3.189795   3.228045   2.158428   2.634660   2.142557
                    6          7
     6  C    0.000000
     7  H    1.079665   0.000000
 Stoichiometry    CH2N4
 Framework group  CS[SG(CH2N4)]
 Deg. of freedom   11
 Full point group                 CS      NOp   2
 Largest Abelian subgroup         CS      NOp   2
 Largest concise Abelian subgroup C1      NOp   1
                         Standard orientation:                         
 ---------------------------------------------------------------------
 Center     Atomic     Atomic              Coordinates (Angstroms)
 Number     Number      Type              X           Y           Z
 ---------------------------------------------------------------------
    1          7             0       -0.726209   -0.922724    0.000000
    2          7             0       -1.118115    0.300015    0.000000
    3          7             0        0.000000    1.056895    0.000000
    4          1             0       -0.060894    2.064554    0.000000
    5          7             0        0.635969   -1.007807    0.000000
    6          6             0        1.069948    0.232330    0.000000
    7          1             0        2.099698    0.556817    0.000000
 ---------------------------------------------------------------------
 Rotational constants (GHZ):     10.5205350     10.3455687      5.2161591
 Isotopes: N-14,N-14,N-14,H-1,N-14,C-12,H-1
 Standard basis: 6-31G(d,p) (6D, 7F)
 There are    63 symmetry adapted basis functions of A'  symmetry.
 There are    22 symmetry adapted basis functions of A"  symmetry.
 Crude estimate of integral set expansion from redundant integrals=1.000.
 Integral buffers will be    262144 words long.
 Raffenetti 2 integral format.
 Two-electron integral symmetry is turned on.
    85 basis functions      154 primitive gaussians
    18 alpha electrons       18 beta electrons
       nuclear repulsion energy       166.7032997112 Hartrees.
 One-electron integrals computed using PRISM.
 NBasis=    85 RedAO= T  NBF=    63    22
 NBsUse=    85 1.00D-04 NBFU=    63    22
 Initial guess read from the read-write file:
 Initial guess orbital symmetries:
       Occupied  (A') (A') (A') (A') (A') (A') (A') (A') (A') (A')
                 (A') (A") (A') (A') (A") (A") (A') (A')
       Virtual   (A") (A") (A') (A') (A') (A') (A') (A') (A') (A")
                 (A') (A') (A') (A') (A") (A') (A') (A") (A') (A")
                 (A') (A') (A") (A') (A') (A') (A') (A') (A") (A')
                 (A") (A") (A') (A') (A") (A") (A') (A') (A') (A')
                 (A') (A") (A') (A") (A") (A') (A') (A") (A') (A')
                 (A") (A') (A') (A") (A") (A') (A') (A') (A') (A')
                 (A') (A') (A') (A') (A') (A') (A')
 Requested convergence on RMS density matrix=1.00D-08 within  64 cycles.
 Requested convergence on MAX density matrix=1.00D-06.
 Keep R1 and R2 integrals in memory in canonical form, NReq=    13821249.
 Integral accuracy reduced to 1.0D-05 until final iterations.
 Initial convergence to 1.0D-05 achieved.  Increase integral accuracy.
 SCF Done:  E(RB+HF-LYP) =  -258.255870335     A.U. after   13 cycles
             Convg  =    0.3936D-08             -V/T =  2.0088
             S**2   =   0.0000
 ***** Axes restored to original set *****
 -------------------------------------------------------------------
 Center     Atomic                   Forces (Hartrees/Bohr)
 Number     Number              X              Y              Z
 -------------------------------------------------------------------
    1          7          -0.002991793   -0.005342232    0.000000000
    2          7          -0.001038751    0.009095295    0.000000000
    3          7           0.002583774   -0.003615493    0.000000000
    4          1          -0.000055859    0.000094435    0.000000000
    5          7           0.000918825   -0.002673476    0.000000000
    6          6           0.000993603    0.002220783    0.000000000
    7          1          -0.000409799    0.000220688    0.000000000
 -------------------------------------------------------------------
 Cartesian Forces:  Max     0.009095295 RMS     0.002718375

 GradGradGradGradGradGradGradGradGradGradGradGradGradGradGradGradGradGrad
 Berny optimization.
 Internal  Forces:  Max     0.006849561 RMS     0.001700324
 Search for a local minimum.
 Step number   2 out of a maximum of  36
 All quantities printed in internal units (Hartrees-Bohrs-Radians)
 Update second derivatives using information from points  1  2
 Trust test= 1.07D+00 RLast= 1.13D-01 DXMaxT set to 3.39D-01
     Eigenvalues ---    0.02505   0.02639   0.02675   0.02834   0.15999
     Eigenvalues ---    0.16000   0.22571   0.24571   0.37695   0.48846
     Eigenvalues ---    0.50671   0.55558   0.59514   0.67576   0.73983
     Eigenvalues --- 1000.000001000.000001000.000001000.000001000.00000
     Eigenvalues --- 1000.000001000.000001000.000001000.000001000.00000
     Eigenvalues --- 1000.00000
 RFO step:  Lambda=-8.75899380D-05.
 Quartic linear search produced a step of  0.09265.
 Iteration  1 RMS(Cart)=  0.00308812 RMS(Int)=  0.00001120
 Iteration  2 RMS(Cart)=  0.00001072 RMS(Int)=  0.00000553
 Iteration  3 RMS(Cart)=  0.00000000 RMS(Int)=  0.00000553
 Variable       Old X    -DE/DX   Delta X   Delta X   Delta X     New X
                                 (Linear)    (Quad)   (Total)
    R1        2.42643   0.00685   0.00558   0.00520   0.01078   2.43721
    R2        2.57916   0.00206   0.00412   0.00124   0.00536   2.58452
    R3        2.55151   0.00272   0.00421   0.00160   0.00582   2.55733
    R4        1.90767   0.00004   0.00269  -0.00203   0.00066   1.90834
    R5        2.55267  -0.00115   0.00361  -0.00601  -0.00240   2.55026
    R6        2.48287   0.00115   0.00430  -0.00233   0.00196   2.48483
    R7        2.04027  -0.00046   0.00208  -0.00293  -0.00085   2.03943
    A1        1.94335  -0.00011  -0.00004   0.00359   0.00356   1.94691
    A2        1.85570  -0.00262  -0.00056  -0.00822  -0.00877   1.84693
    A3        2.10551  -0.00099  -0.00019  -0.00362  -0.00381   2.10170
    A4        1.88993   0.00178   0.00042   0.00585   0.00628   1.89621
    A5        2.28775  -0.00079  -0.00023  -0.00223  -0.00246   2.28528
    A6        1.84504  -0.00021  -0.00009  -0.00225  -0.00236   1.84269
    A7        1.89076   0.00117   0.00027   0.00102   0.00129   1.89205
    A8        2.17974  -0.00065  -0.00025  -0.00087  -0.00111   2.17863
    A9        2.21268  -0.00052  -0.00003  -0.00015  -0.00018   2.21251
    D1        0.00000   0.00000   0.00000   0.00000   0.00000   0.00000
    D2        0.00000   0.00000   0.00000   0.00000   0.00000   0.00000
    D3        3.14159   0.00000   0.00000   0.00000   0.00000   3.14159
    D4        0.00000   0.00000   0.00000   0.00000   0.00000   0.00000
    D5        0.00000   0.00000   0.00000   0.00000   0.00000   0.00000
    D6        3.14159   0.00000   0.00000   0.00000   0.00000   3.14159
    D7        3.14159   0.00000   0.00000   0.00000   0.00000   3.14159
    D8        0.00000   0.00000   0.00000   0.00000   0.00000   0.00000
    D9        0.00000   0.00000   0.00000   0.00000   0.00000   0.00000
   D10        3.14159   0.00000   0.00000   0.00000   0.00000   3.14159
         Item               Value     Threshold  Converged?
 Maximum Force            0.006850     0.000450     NO 
 RMS     Force            0.001700     0.000300     NO 
 Maximum Displacement     0.011292     0.001800     NO 
 RMS     Displacement     0.003088     0.001200     NO 
 Predicted change in Energy=-7.746133D-05
 GradGradGradGradGradGradGradGradGradGradGradGradGradGradGradGradGradGrad

                          Input orientation:                          
 ---------------------------------------------------------------------
 Center     Atomic     Atomic              Coordinates (Angstroms)
 Number     Number      Type              X           Y           Z
 ---------------------------------------------------------------------
    1          7             0       -1.145104   -0.264110    0.000000
    2          7             0       -0.685427    0.940904    0.000000
    3          7             0        0.662583    0.821567    0.000000
    4          1             0        1.248683    1.643930    0.000000
    5          7             0       -0.135623   -1.186856    0.000000
    6          6             0        0.979585   -0.490214    0.000000
    7          1             0        1.985489   -0.881197    0.000000
 ---------------------------------------------------------------------
                    Distance matrix (angstroms):
                    1          2          3          4          5
     1  N    0.000000
     2  N    1.289714   0.000000
     3  N    2.108656   1.353282   0.000000
     4  H    3.061182   2.057918   1.009849   0.000000
     5  N    1.367667   2.197647   2.161226   3.151136   0.000000
     6  C    2.136686   2.195533   1.349540   2.151043   1.314914
     7  H    3.190832   3.233241   2.156267   2.630428   2.143022
                    6          7
     6  C    0.000000
     7  H    1.079218   0.000000
 Stoichiometry    CH2N4
 Framework group  CS[SG(CH2N4)]
 Deg. of freedom   11
 Full point group                 CS      NOp   2
 Largest Abelian subgroup         CS      NOp   2
 Largest concise Abelian subgroup C1      NOp   1
                         Standard orientation:                         
 ---------------------------------------------------------------------
 Center     Atomic     Atomic              Coordinates (Angstroms)
 Number     Number      Type              X           Y           Z
 ---------------------------------------------------------------------
    1          7             0       -0.724943   -0.924477    0.000000
    2          7             0       -1.123977    0.301956    0.000000
    3          7             0        0.000000    1.055646    0.000000
    4          1             0       -0.060342    2.063690    0.000000
    5          7             0        0.640134   -1.008604    0.000000
    6          6             0        1.070501    0.233887    0.000000
    7          1             0        2.098843    0.561335    0.000000
 ---------------------------------------------------------------------
 Rotational constants (GHZ):     10.5152855     10.2873438      5.2000329
 Isotopes: N-14,N-14,N-14,H-1,N-14,C-12,H-1
 Standard basis: 6-31G(d,p) (6D, 7F)
 There are    63 symmetry adapted basis functions of A'  symmetry.
 There are    22 symmetry adapted basis functions of A"  symmetry.
 Crude estimate of integral set expansion from redundant integrals=1.000.
 Integral buffers will be    262144 words long.
 Raffenetti 2 integral format.
 Two-electron integral symmetry is turned on.
    85 basis functions      154 primitive gaussians
    18 alpha electrons       18 beta electrons
       nuclear repulsion energy       166.4401973436 Hartrees.
 One-electron integrals computed using PRISM.
 NBasis=    85 RedAO= T  NBF=    63    22
 NBsUse=    85 1.00D-04 NBFU=    63    22
 Initial guess read from the read-write file:
 Initial guess orbital symmetries:
       Occupied  (A') (A') (A') (A') (A') (A') (A') (A') (A') (A')
                 (A') (A') (A") (A') (A") (A") (A') (A')
       Virtual   (A") (A") (A') (A') (A') (A') (A') (A') (A') (A')
                 (A") (A') (A') (A') (A') (A") (A') (A") (A') (A")
                 (A') (A') (A") (A') (A') (A') (A') (A') (A') (A")
                 (A") (A") (A') (A') (A") (A") (A') (A') (A') (A')
                 (A') (A") (A') (A") (A') (A") (A') (A") (A') (A")
                 (A') (A') (A') (A") (A") (A') (A') (A') (A') (A')
                 (A') (A') (A') (A') (A') (A') (A')
 Requested convergence on RMS density matrix=1.00D-08 within  64 cycles.
 Requested convergence on MAX density matrix=1.00D-06.
 Keep R1 and R2 integrals in memory in canonical form, NReq=    13821249.
 SCF Done:  E(RB+HF-LYP) =  -258.255942371     A.U. after   10 cycles
             Convg  =    0.6670D-08             -V/T =  2.0090
             S**2   =   0.0000
 ***** Axes restored to original set *****
 -------------------------------------------------------------------
 Center     Atomic                   Forces (Hartrees/Bohr)
 Number     Number              X              Y              Z
 -------------------------------------------------------------------
    1          7          -0.001642458   -0.002295112    0.000000000
    2          7           0.001170741    0.000158290    0.000000000
    3          7           0.001521835   -0.000602217    0.000000000
    4          1           0.000029820   -0.000180288    0.000000000
    5          7          -0.000613543    0.000953920    0.000000000
    6          6          -0.000398660    0.001873628    0.000000000
    7          1          -0.000067734    0.000091780    0.000000000
 -------------------------------------------------------------------
 Cartesian Forces:  Max     0.002295112 RMS     0.000900840

 GradGradGradGradGradGradGradGradGradGradGradGradGradGradGradGradGradGrad
 Berny optimization.
 Internal  Forces:  Max     0.001832804 RMS     0.000707560
 Search for a local minimum.
 Step number   3 out of a maximum of  36
 All quantities printed in internal units (Hartrees-Bohrs-Radians)
 Update second derivatives using information from points  1  2  3
 Trust test= 9.30D-01 RLast= 1.86D-02 DXMaxT set to 3.39D-01
     Eigenvalues ---    0.02505   0.02638   0.02674   0.02834   0.15977
     Eigenvalues ---    0.16017   0.22949   0.31292   0.37722   0.39417
     Eigenvalues ---    0.49103   0.52411   0.64573   0.66119   0.70821
     Eigenvalues --- 1000.000001000.000001000.000001000.000001000.00000
     Eigenvalues --- 1000.000001000.000001000.000001000.000001000.00000
     Eigenvalues --- 1000.00000
 RFO step:  Lambda=-3.29472821D-05.
 Quartic linear search produced a step of -0.02378.
 Iteration  1 RMS(Cart)=  0.00205443 RMS(Int)=  0.00000278
 Iteration  2 RMS(Cart)=  0.00000209 RMS(Int)=  0.00000128
 Iteration  3 RMS(Cart)=  0.00000000 RMS(Int)=  0.00000128
 Variable       Old X    -DE/DX   Delta X   Delta X   Delta X     New X
                                 (Linear)    (Quad)   (Total)
    R1        2.43721   0.00151  -0.00026   0.00461   0.00436   2.44156
    R2        2.58452  -0.00086  -0.00013  -0.00002  -0.00015   2.58437
    R3        2.55733   0.00038  -0.00014   0.00212   0.00198   2.55932
    R4        1.90834  -0.00013  -0.00002  -0.00003  -0.00004   1.90829
    R5        2.55026  -0.00183   0.00006  -0.00366  -0.00360   2.54666
    R6        2.48483   0.00072  -0.00005   0.00145   0.00140   2.48623
    R7        2.03943  -0.00010   0.00002  -0.00038  -0.00036   2.03906
    A1        1.94691  -0.00172  -0.00008  -0.00502  -0.00511   1.94180
    A2        1.84693   0.00110   0.00021   0.00309   0.00330   1.85023
    A3        2.10170   0.00046   0.00009   0.00157   0.00166   2.10336
    A4        1.89621  -0.00068  -0.00015  -0.00199  -0.00214   1.89406
    A5        2.28528   0.00022   0.00006   0.00042   0.00048   2.28576
    A6        1.84269   0.00080   0.00006   0.00225   0.00231   1.84500
    A7        1.89205   0.00051  -0.00003   0.00167   0.00164   1.89369
    A8        2.17863  -0.00032   0.00003  -0.00135  -0.00133   2.17730
    A9        2.21251  -0.00019   0.00000  -0.00032  -0.00031   2.21220
    D1        0.00000   0.00000   0.00000   0.00000   0.00000   0.00000
    D2        0.00000   0.00000   0.00000   0.00000   0.00000   0.00000
    D3        3.14159   0.00000   0.00000   0.00000   0.00000   3.14159
    D4        0.00000   0.00000   0.00000   0.00000   0.00000   0.00000
    D5        0.00000   0.00000   0.00000   0.00000   0.00000   0.00000
    D6        3.14159   0.00000   0.00000   0.00000   0.00000   3.14159
    D7        3.14159   0.00000   0.00000   0.00000   0.00000   3.14159
    D8        0.00000   0.00000   0.00000   0.00000   0.00000   0.00000
    D9        0.00000   0.00000   0.00000   0.00000   0.00000   0.00000
   D10        3.14159   0.00000   0.00000   0.00000   0.00000   3.14159
         Item               Value     Threshold  Converged?
 Maximum Force            0.001833     0.000450     NO 
 RMS     Force            0.000708     0.000300     NO 
 Maximum Displacement     0.005883     0.001800     NO 
 RMS     Displacement     0.002055     0.001200     NO 
 Predicted change in Energy=-1.651446D-05
 GradGradGradGradGradGradGradGradGradGradGradGradGradGradGradGradGradGrad

                          Input orientation:                          
 ---------------------------------------------------------------------
 Center     Atomic     Atomic              Coordinates (Angstroms)
 Number     Number      Type              X           Y           Z
 ---------------------------------------------------------------------
    1          7             0       -1.147847   -0.266417    0.000000
    2          7             0       -0.684527    0.939672    0.000000
    3          7             0        0.664642    0.821535    0.000000
    4          1             0        1.251307    1.643467    0.000000
    5          7             0       -0.135874   -1.186313    0.000000
    6          6             0        0.979646   -0.488769    0.000000
    7          1             0        1.985427   -0.879539    0.000000
 ---------------------------------------------------------------------
                    Distance matrix (angstroms):
                    1          2          3          4          5
     1  N    0.000000
     2  N    1.292020   0.000000
     3  N    2.113943   1.354331   0.000000
     4  H    3.066529   2.059801   1.009826   0.000000
     5  N    1.367589   2.195639   2.161545   3.151496   0.000000
     6  C    2.139081   2.193151   1.347636   2.149472   1.315657
     7  H    3.192699   3.230817   2.153630   2.627640   2.143368
                    6          7
     6  C    0.000000
     7  H    1.079026   0.000000
 Stoichiometry    CH2N4
 Framework group  CS[SG(CH2N4)]
 Deg. of freedom   11
 Full point group                 CS      NOp   2
 Largest Abelian subgroup         CS      NOp   2
 Largest concise Abelian subgroup C1      NOp   1
                         Standard orientation:                         
 ---------------------------------------------------------------------
 Center     Atomic     Atomic              Coordinates (Angstroms)
 Number     Number      Type              X           Y           Z
 ---------------------------------------------------------------------
    1          7             0       -0.724685   -0.928734    0.000000
    2          7             0       -1.123147    0.300308    0.000000
    3          7             0        0.000000    1.057113    0.000000
    4          1             0       -0.060936    2.065099    0.000000
    5          7             0        0.640645   -1.007313    0.000000
    6          6             0        1.069080    0.236631    0.000000
    7          1             0        2.096768    0.565498    0.000000
 ---------------------------------------------------------------------
 Rotational constants (GHZ):     10.4762756     10.3118989      5.1967187
 Isotopes: N-14,N-14,N-14,H-1,N-14,C-12,H-1
 Standard basis: 6-31G(d,p) (6D, 7F)
 There are    63 symmetry adapted basis functions of A'  symmetry.
 There are    22 symmetry adapted basis functions of A"  symmetry.
 Crude estimate of integral set expansion from redundant integrals=1.000.
 Integral buffers will be    262144 words long.
 Raffenetti 2 integral format.
 Two-electron integral symmetry is turned on.
    85 basis functions      154 primitive gaussians
    18 alpha electrons       18 beta electrons
       nuclear repulsion energy       166.3819156073 Hartrees.
 One-electron integrals computed using PRISM.
 NBasis=    85 RedAO= T  NBF=    63    22
 NBsUse=    85 1.00D-04 NBFU=    63    22
 Initial guess read from the read-write file:
 Initial guess orbital symmetries:
       Occupied  (A') (A') (A') (A') (A') (A') (A') (A') (A') (A')
                 (A') (A') (A") (A') (A") (A") (A') (A')
       Virtual   (A") (A") (A') (A') (A') (A') (A') (A') (A') (A')
                 (A") (A') (A') (A') (A') (A") (A') (A") (A') (A")
                 (A') (A') (A") (A') (A') (A') (A') (A') (A') (A")
                 (A") (A") (A') (A') (A") (A") (A') (A') (A') (A')
                 (A') (A") (A') (A") (A') (A") (A') (A") (A') (A")
                 (A') (A') (A') (A") (A") (A') (A') (A') (A') (A')
                 (A') (A') (A') (A') (A') (A') (A')
 Requested convergence on RMS density matrix=1.00D-08 within  64 cycles.
 Requested convergence on MAX density matrix=1.00D-06.
 Keep R1 and R2 integrals in memory in canonical form, NReq=    13821249.
 SCF Done:  E(RB+HF-LYP) =  -258.255949514     A.U. after    9 cycles
             Convg  =    0.5586D-08             -V/T =  2.0090
             S**2   =   0.0000
 ***** Axes restored to original set *****
 -------------------------------------------------------------------
 Center     Atomic                   Forces (Hartrees/Bohr)
 Number     Number              X              Y              Z
 -------------------------------------------------------------------
    1          7           0.002256481    0.000219274    0.000000000
    2          7          -0.000234698    0.000353054    0.000000000
    3          7          -0.001016199   -0.000652575    0.000000000
    4          1          -0.000188055   -0.000073987    0.000000000
    5          7          -0.000436083    0.000234702    0.000000000
    6          6          -0.000387725    0.000086649    0.000000000
    7          1           0.000006278   -0.000167117    0.000000000
 -------------------------------------------------------------------
 Cartesian Forces:  Max     0.002256481 RMS     0.000587567

 GradGradGradGradGradGradGradGradGradGradGradGradGradGradGradGradGradGrad
 Berny optimization.
 Internal  Forces:  Max     0.001242452 RMS     0.000472657
 Search for a local minimum.
 Step number   4 out of a maximum of  36
 All quantities printed in internal units (Hartrees-Bohrs-Radians)
 Update second derivatives using information from points  1  2  3  4
 Trust test= 4.33D-01 RLast= 9.61D-03 DXMaxT set to 3.39D-01
     Eigenvalues ---    0.02505   0.02638   0.02676   0.02835   0.16011
     Eigenvalues ---    0.16079   0.22853   0.33327   0.37866   0.48687
     Eigenvalues ---    0.51798   0.52762   0.60858   0.65353   0.72558
     Eigenvalues --- 1000.000001000.000001000.000001000.000001000.00000
     Eigenvalues --- 1000.000001000.000001000.000001000.000001000.00000
     Eigenvalues --- 1000.00000
 RFO step:  Lambda=-2.98668291D-06.
 Quartic linear search produced a step of -0.36224.
 Iteration  1 RMS(Cart)=  0.00083087 RMS(Int)=  0.00000063
 Iteration  2 RMS(Cart)=  0.00000044 RMS(Int)=  0.00000036
 Variable       Old X    -DE/DX   Delta X   Delta X   Delta X     New X
                                 (Linear)    (Quad)   (Total)
    R1        2.44156  -0.00067  -0.00158   0.00055  -0.00103   2.44054
    R2        2.58437  -0.00091   0.00005  -0.00151  -0.00146   2.58291
    R3        2.55932  -0.00081  -0.00072  -0.00041  -0.00113   2.55819
    R4        1.90829  -0.00017   0.00002  -0.00030  -0.00029   1.90801
    R5        2.54666   0.00000   0.00130  -0.00139  -0.00009   2.54657
    R6        2.48623  -0.00069  -0.00051  -0.00017  -0.00067   2.48556
    R7        2.03906   0.00007   0.00013   0.00000   0.00013   2.03920
    A1        1.94180   0.00124   0.00185   0.00042   0.00226   1.94406
    A2        1.85023  -0.00101  -0.00119  -0.00059  -0.00179   1.84844
    A3        2.10336  -0.00035  -0.00060  -0.00016  -0.00076   2.10260
    A4        1.89406   0.00048   0.00078   0.00008   0.00085   1.89492
    A5        2.28576  -0.00013  -0.00017   0.00008  -0.00009   2.28567
    A6        1.84500  -0.00061  -0.00084  -0.00039  -0.00123   1.84377
    A7        1.89369  -0.00009  -0.00059   0.00049  -0.00010   1.89359
    A8        2.17730   0.00020   0.00048   0.00016   0.00064   2.17794
    A9        2.21220  -0.00011   0.00011  -0.00065  -0.00054   2.21166
    D1        0.00000   0.00000   0.00000   0.00000   0.00000   0.00000
    D2        0.00000   0.00000   0.00000   0.00000   0.00000   0.00000
    D3        3.14159   0.00000   0.00000   0.00000   0.00000   3.14159
    D4        0.00000   0.00000   0.00000   0.00000   0.00000   0.00000
    D5        0.00000   0.00000   0.00000   0.00000   0.00000   0.00000
    D6        3.14159   0.00000   0.00000   0.00000   0.00000   3.14159
    D7        3.14159   0.00000   0.00000   0.00000   0.00000   3.14159
    D8        0.00000   0.00000   0.00000   0.00000   0.00000   0.00000
    D9        0.00000   0.00000   0.00000   0.00000   0.00000   0.00000
   D10        3.14159   0.00000   0.00000   0.00000   0.00000   3.14159
         Item               Value     Threshold  Converged?
 Maximum Force            0.001242     0.000450     NO 
 RMS     Force            0.000473     0.000300     NO 
 Maximum Displacement     0.003270     0.001800     NO 
 RMS     Displacement     0.000831     0.001200     YES
 Predicted change in Energy=-4.876608D-06
 GradGradGradGradGradGradGradGradGradGradGradGradGradGradGradGradGradGrad

                          Input orientation:                          
 ---------------------------------------------------------------------
 Center     Atomic     Atomic              Coordinates (Angstroms)
 Number     Number      Type              X           Y           Z
 ---------------------------------------------------------------------
    1          7             0       -1.145821   -0.265703    0.000000
    2          7             0       -0.684171    0.940444    0.000000
    3          7             0        0.664336    0.821600    0.000000
    4          1             0        1.250747    1.643526    0.000000
    5          7             0       -0.135377   -1.186132    0.000000
    6          6             0        0.979709   -0.488566    0.000000
    7          1             0        1.985419   -0.879715    0.000000
 ---------------------------------------------------------------------
                    Distance matrix (angstroms):
                    1          2          3          4          5
     1  N    0.000000
     2  N    1.291476   0.000000
     3  N    2.111610   1.353734   0.000000
     4  H    3.064097   2.058697   1.009673   0.000000
     5  N    1.366817   2.196248   2.161140   3.150921   0.000000
     6  C    2.137182   2.193300   1.347588   2.149250   1.315300
     7  H    3.190874   3.231051   2.154004   2.628019   2.142817
                    6          7
     6  C    0.000000
     7  H    1.079097   0.000000
 Stoichiometry    CH2N4
 Framework group  CS[SG(CH2N4)]
 Deg. of freedom   11
 Full point group                 CS      NOp   2
 Largest Abelian subgroup         CS      NOp   2
 Largest concise Abelian subgroup C1      NOp   1
                         Standard orientation:                         
 ---------------------------------------------------------------------
 Center     Atomic     Atomic              Coordinates (Angstroms)
 Number     Number      Type              X           Y           Z
 ---------------------------------------------------------------------
    1          7             0       -0.724093   -0.927205    0.000000
    2          7             0       -1.123387    0.300995    0.000000
    3          7             0        0.000000    1.056374    0.000000
    4          1             0       -0.060716    2.064220    0.000000
    5          7             0        0.640351   -1.007719    0.000000
    6          6             0        1.068944    0.235794    0.000000
    7          1             0        2.096950    0.563900    0.000000
 ---------------------------------------------------------------------
 Rotational constants (GHZ):     10.4947329     10.3081261      5.2002963
 Isotopes: N-14,N-14,N-14,H-1,N-14,C-12,H-1
 Standard basis: 6-31G(d,p) (6D, 7F)
 There are    63 symmetry adapted basis functions of A'  symmetry.
 There are    22 symmetry adapted basis functions of A"  symmetry.
 Crude estimate of integral set expansion from redundant integrals=1.000.
 Integral buffers will be    262144 words long.
 Raffenetti 2 integral format.
 Two-electron integral symmetry is turned on.
    85 basis functions      154 primitive gaussians
    18 alpha electrons       18 beta electrons
       nuclear repulsion energy       166.4391100598 Hartrees.
 One-electron integrals computed using PRISM.
 NBasis=    85 RedAO= T  NBF=    63    22
 NBsUse=    85 1.00D-04 NBFU=    63    22
 Initial guess read from the read-write file:
 Initial guess orbital symmetries:
       Occupied  (A') (A') (A') (A') (A') (A') (A') (A') (A') (A')
                 (A') (A') (A") (A') (A") (A") (A') (A')
       Virtual   (A") (A") (A') (A') (A') (A') (A') (A') (A') (A')
                 (A") (A') (A') (A') (A') (A") (A') (A") (A') (A")
                 (A') (A') (A") (A') (A') (A') (A') (A') (A') (A")
                 (A") (A") (A') (A') (A") (A") (A') (A') (A') (A')
                 (A') (A") (A') (A") (A') (A") (A') (A") (A') (A")
                 (A') (A') (A') (A") (A") (A') (A') (A') (A') (A')
                 (A') (A') (A') (A') (A') (A') (A')
 Requested convergence on RMS density matrix=1.00D-08 within  64 cycles.
 Requested convergence on MAX density matrix=1.00D-06.
 Keep R1 and R2 integrals in memory in canonical form, NReq=    13821249.
 SCF Done:  E(RB+HF-LYP) =  -258.255954778     A.U. after    9 cycles
             Convg  =    0.3911D-08             -V/T =  2.0090
             S**2   =   0.0000
 ***** Axes restored to original set *****
 -------------------------------------------------------------------
 Center     Atomic                   Forces (Hartrees/Bohr)
 Number     Number              X              Y              Z
 -------------------------------------------------------------------
    1          7           0.000305052   -0.000338274    0.000000000
    2          7           0.000058204    0.000081474    0.000000000
    3          7          -0.000159934   -0.000218106    0.000000000
    4          1          -0.000004133   -0.000012176    0.000000000
    5          7          -0.000431301    0.000362175    0.000000000
    6          6           0.000230175    0.000171327    0.000000000
    7          1           0.000001937   -0.000046420    0.000000000
 -------------------------------------------------------------------
 Cartesian Forces:  Max     0.000431301 RMS     0.000181595

 GradGradGradGradGradGradGradGradGradGradGradGradGradGradGradGradGradGrad
 Berny optimization.
 Internal  Forces:  Max     0.000424097 RMS     0.000102058
 Search for a local minimum.
 Step number   5 out of a maximum of  36
 All quantities printed in internal units (Hartrees-Bohrs-Radians)
 Update second derivatives using information from points  1  2  3  4  5

 Trust test= 1.08D+00 RLast= 4.11D-03 DXMaxT set to 3.39D-01
     Eigenvalues ---    0.02505   0.02638   0.02675   0.02834   0.15832
     Eigenvalues ---    0.16038   0.23135   0.33489   0.37984   0.46566
     Eigenvalues ---    0.49599   0.52684   0.54900   0.68971   0.77081
     Eigenvalues --- 1000.000001000.000001000.000001000.000001000.00000
     Eigenvalues --- 1000.000001000.000001000.000001000.000001000.00000
     Eigenvalues --- 1000.00000
 RFO step:  Lambda=-7.25807770D-07.
 Quartic linear search produced a step of  0.08385.
 Iteration  1 RMS(Cart)=  0.00025008 RMS(Int)=  0.00000004
 Iteration  2 RMS(Cart)=  0.00000005 RMS(Int)=  0.00000000
 Variable       Old X    -DE/DX   Delta X   Delta X   Delta X     New X
                                 (Linear)    (Quad)   (Total)
    R1        2.44054   0.00002  -0.00009   0.00021   0.00013   2.44066
    R2        2.58291  -0.00042  -0.00012  -0.00091  -0.00103   2.58188
    R3        2.55819  -0.00007  -0.00009  -0.00005  -0.00015   2.55804
    R4        1.90801  -0.00001  -0.00002  -0.00005  -0.00007   1.90794
    R5        2.54657  -0.00015  -0.00001  -0.00045  -0.00046   2.54612
    R6        2.48556   0.00010  -0.00006   0.00019   0.00014   2.48569
    R7        2.03920   0.00002   0.00001   0.00004   0.00005   2.03924
    A1        1.94406   0.00001   0.00019  -0.00016   0.00003   1.94410
    A2        1.84844  -0.00005  -0.00015  -0.00022  -0.00037   1.84807
    A3        2.10260  -0.00003  -0.00006  -0.00019  -0.00025   2.10234
    A4        1.89492   0.00006   0.00007   0.00039   0.00046   1.89538
    A5        2.28567  -0.00003  -0.00001  -0.00020  -0.00021   2.28546
    A6        1.84377   0.00012  -0.00010   0.00055   0.00045   1.84422
    A7        1.89359  -0.00014  -0.00001  -0.00057  -0.00057   1.89301
    A8        2.17794   0.00011   0.00005   0.00055   0.00061   2.17855
    A9        2.21166   0.00003  -0.00005   0.00001  -0.00003   2.21162
    D1        0.00000   0.00000   0.00000   0.00000   0.00000   0.00000
    D2        0.00000   0.00000   0.00000   0.00000   0.00000   0.00000
    D3        3.14159   0.00000   0.00000   0.00000   0.00000   3.14159
    D4        0.00000   0.00000   0.00000   0.00000   0.00000   0.00000
    D5        0.00000   0.00000   0.00000   0.00000   0.00000   0.00000
    D6        3.14159   0.00000   0.00000   0.00000   0.00000   3.14159
    D7        3.14159   0.00000   0.00000   0.00000   0.00000   3.14159
    D8        0.00000   0.00000   0.00000   0.00000   0.00000   0.00000
    D9        0.00000   0.00000   0.00000   0.00000   0.00000   0.00000
   D10        3.14159   0.00000   0.00000   0.00000   0.00000   3.14159
         Item               Value     Threshold  Converged?
 Maximum Force            0.000424     0.000450     YES
 RMS     Force            0.000102     0.000300     YES
 Maximum Displacement     0.000817     0.001800     YES
 RMS     Displacement     0.000250     0.001200     YES
 Predicted change in Energy=-3.943306D-07
 Optimization completed.
    -- Stationary point found.
                         ----------------------------
                         !   Optimized Parameters   !
                         ! (Angstroms and Degrees)  !
 ------------------------                            -------------------------
 ! Name  Definition              Value          Derivative Info.             !
 -----------------------------------------------------------------------------
 ! R1    R(1,2)                  1.2915         -DE/DX =    0.               !
 ! R2    R(1,5)                  1.3668         -DE/DX =   -0.0004           !
 ! R3    R(2,3)                  1.3537         -DE/DX =   -0.0001           !
 ! R4    R(3,4)                  1.0097         -DE/DX =    0.               !
 ! R5    R(3,6)                  1.3476         -DE/DX =   -0.0001           !
 ! R6    R(5,6)                  1.3153         -DE/DX =    0.0001           !
 ! R7    R(6,7)                  1.0791         -DE/DX =    0.               !
 ! A1    A(2,1,5)              111.3866         -DE/DX =    0.               !
 ! A2    A(1,2,3)              105.9078         -DE/DX =   -0.0001           !
 ! A3    A(2,3,4)              120.4698         -DE/DX =    0.               !
 ! A4    A(2,3,6)              108.5708         -DE/DX =    0.0001           !
 ! A5    A(4,3,6)              130.9594         -DE/DX =    0.               !
 ! A6    A(1,5,6)              105.6402         -DE/DX =    0.0001           !
 ! A7    A(3,6,5)              108.4947         -DE/DX =   -0.0001           !
 ! A8    A(3,6,7)              124.7868         -DE/DX =    0.0001           !
 ! A9    A(5,6,7)              126.7186         -DE/DX =    0.               !
 ! D1    D(5,1,2,3)              0.             -DE/DX =    0.               !
 ! D2    D(2,1,5,6)              0.             -DE/DX =    0.               !
 ! D3    D(1,2,3,4)            180.             -DE/DX =    0.               !
 ! D4    D(1,2,3,6)              0.             -DE/DX =    0.               !
 ! D5    D(2,3,6,5)              0.             -DE/DX =    0.               !
 ! D6    D(2,3,6,7)            180.             -DE/DX =    0.               !
 ! D7    D(4,3,6,5)            180.             -DE/DX =    0.               !
 ! D8    D(4,3,6,7)              0.             -DE/DX =    0.               !
 ! D9    D(1,5,6,3)              0.             -DE/DX =    0.               !
 ! D10   D(1,5,6,7)            180.             -DE/DX =    0.               !
 -----------------------------------------------------------------------------
 GradGradGradGradGradGradGradGradGradGradGradGradGradGradGradGradGradGrad

                          Input orientation:                          
 ---------------------------------------------------------------------
 Center     Atomic     Atomic              Coordinates (Angstroms)
 Number     Number      Type              X           Y           Z
 ---------------------------------------------------------------------
    1          7             0       -1.146021   -0.265810    0.000000
    2          7             0       -0.684371    0.940336    0.000000
    3          7             0        0.664136    0.821492    0.000000
    4          1             0        1.250547    1.643418    0.000000
    5          7             0       -0.135576   -1.186240    0.000000
    6          6             0        0.979509   -0.488673    0.000000
    7          1             0        1.985219   -0.879823    0.000000
 ---------------------------------------------------------------------
                    Distance matrix (angstroms):
                    1          2          3          4          5
     1  N    0.000000
     2  N    1.291476   0.000000
     3  N    2.111610   1.353734   0.000000
     4  H    3.064097   2.058697   1.009673   0.000000
     5  N    1.366817   2.196248   2.161140   3.150921   0.000000
     6  C    2.137182   2.193300   1.347588   2.149250   1.315300
     7  H    3.190874   3.231051   2.154004   2.628019   2.142817
                    6          7
     6  C    0.000000
     7  H    1.079097   0.000000
 Stoichiometry    CH2N4
 Framework group  CS[SG(CH2N4)]
 Deg. of freedom   11
 Full point group                 CS      NOp   2
 Largest Abelian subgroup         CS      NOp   2
 Largest concise Abelian subgroup C1      NOp   1
                         Standard orientation:                         
 ---------------------------------------------------------------------
 Center     Atomic     Atomic              Coordinates (Angstroms)
 Number     Number      Type              X           Y           Z
 ---------------------------------------------------------------------
    1          7             0       -0.724093   -0.927205    0.000000
    2          7             0       -1.123387    0.300995    0.000000
    3          7             0        0.000000    1.056374    0.000000
    4          1             0       -0.060716    2.064220    0.000000
    5          7             0        0.640351   -1.007719    0.000000
    6          6             0        1.068944    0.235794    0.000000
    7          1             0        2.096950    0.563900    0.000000
 ---------------------------------------------------------------------
 Rotational constants (GHZ):     10.4947329     10.3081261      5.2002963
 Isotopes: N-14,N-14,N-14,H-1,N-14,C-12,H-1

 **********************************************************************

            Population analysis using the SCF density.

 **********************************************************************

 Orbital Symmetries:
       Occupied  (A') (A') (A') (A') (A') (A') (A') (A') (A') (A')
                 (A') (A') (A") (A') (A") (A") (A') (A')
       Virtual   (A") (A") (A') (A') (A') (A') (A') (A') (A') (A')
                 (A") (A') (A') (A') (A') (A") (A') (A") (A') (A")
                 (A') (A') (A") (A') (A') (A') (A') (A') (A') (A")
                 (A") (A") (A') (A') (A") (A") (A') (A') (A') (A')
                 (A') (A") (A') (A") (A') (A") (A') (A") (A') (A")
                 (A') (A') (A') (A") (A") (A') (A') (A') (A') (A')
                 (A') (A') (A') (A') (A') (A') (A')
  The electronic state is 1-A'.
 Alpha  occ. eigenvalues --  -14.45139 -14.41552 -14.39762 -14.36789 -10.28328
 Alpha  occ. eigenvalues --   -1.14475  -0.94906  -0.89753  -0.68264  -0.66751
 Alpha  occ. eigenvalues --   -0.59930  -0.50227  -0.49812  -0.38197  -0.33383
 Alpha  occ. eigenvalues --   -0.31266  -0.30642  -0.29336
 Alpha virt. eigenvalues --   -0.02389   0.01390   0.05317   0.10485   0.17782
 Alpha virt. eigenvalues --    0.19771   0.27776   0.32055   0.40524   0.50863
 Alpha virt. eigenvalues --    0.51698   0.59102   0.60180   0.63449   0.66046
 Alpha virt. eigenvalues --    0.66732   0.68717   0.70799   0.73032   0.78669
 Alpha virt. eigenvalues --    0.79491   0.82925   0.83049   0.85695   0.92481
 Alpha virt. eigenvalues --    1.00046   1.03430   1.07633   1.21707   1.23307
 Alpha virt. eigenvalues --    1.33143   1.34734   1.38559   1.44953   1.51171
 Alpha virt. eigenvalues --    1.52660   1.64261   1.84505   1.87064   1.89756
 Alpha virt. eigenvalues --    1.98229   2.04553   2.09221   2.19216   2.23133
 Alpha virt. eigenvalues --    2.24810   2.28143   2.33825   2.38588   2.47959
 Alpha virt. eigenvalues --    2.48737   2.51897   2.56056   2.61053   2.70250
 Alpha virt. eigenvalues --    2.71391   2.78080   2.88420   3.00929   3.10465
 Alpha virt. eigenvalues --    3.23612   3.49466   3.56898   3.71281   4.02023
 Alpha virt. eigenvalues --    4.06913   4.41377
          Condensed to atoms (all electrons):
              1          2          3          4          5          6
  1  N    6.733595   0.253363  -0.079036   0.006246   0.253766  -0.089935
  2  N    0.253363   6.808716   0.185211  -0.023247  -0.066967  -0.108794
  3  N   -0.079036   0.185211   6.695947   0.336274  -0.069982   0.312742
  4  H    0.006246  -0.023247   0.336274   0.400018   0.005658  -0.025512
  5  N    0.253766  -0.066967  -0.069982   0.005658   6.800368   0.412793
  6  C   -0.089935  -0.108794   0.312742  -0.025512   0.412793   4.790610
  7  H    0.004457   0.002953  -0.041634   0.001119  -0.028176   0.385447
              7
  1  N    0.004457
  2  N    0.002953
  3  N   -0.041634
  4  H    0.001119
  5  N   -0.028176
  6  C    0.385447
  7  H    0.517253
 Total atomic charges:
              1
  1  N   -0.082456
  2  N   -0.051236
  3  N   -0.339522
  4  H    0.299445
  5  N   -0.307462
  6  C    0.322649
  7  H    0.158581
 Sum of Mulliken charges=   0.00000
 Atomic charges with hydrogens summed into heavy atoms:
              1
  1  N   -0.082456
  2  N   -0.051236
  3  N   -0.040078
  4  H    0.000000
  5  N   -0.307462
  6  C    0.481231
  7  H    0.000000
 Sum of Mulliken charges=   0.00000
 Electronic spatial extent (au):  <R**2>=   251.1770
 Charge=     0.0000 electrons
 Dipole moment (Debye):
    X=     2.4720    Y=     4.7212    Z=     0.0000  Tot=     5.3292
 Quadrupole moment (Debye-Ang):
   XX=   -28.5872   YY=   -26.0263   ZZ=   -28.1022
   XY=     1.7813   XZ=     0.0000   YZ=     0.0000
 Octapole moment (Debye-Ang**2):
  XXX=    11.3938  YYY=    22.0440  ZZZ=     0.0000  XYY=    -0.6146
  XXY=     4.4597  XXZ=     0.0000  XZZ=    -0.5952  YZZ=     0.4958
  YYZ=     0.0000  XYZ=     0.0000
 Hexadecapole moment (Debye-Ang**3):
 XXXX=  -141.9721 YYYY=  -119.2428 ZZZZ=   -24.4093 XXXY=     6.4464
 XXXZ=     0.0000 YYYX=    -0.5519 YYYZ=     0.0000 ZZZX=     0.0000
 ZZZY=     0.0000 XXYY=   -53.1095 XXZZ=   -30.0470 YYZZ=   -28.4241
 XXYZ=     0.0000 YYXZ=     0.0000 ZZXY=    -0.1344
 N-N= 1.664391100598D+02 E-N=-9.347795399307D+02  KE= 2.559634474923D+02
 Symmetry A'   KE= 2.465382299902D+02
 Symmetry A"   KE= 9.425217502085D+00
 1\1\GINC-QUANTUM\FOpt\RB3LYP\6-31G(d,p)\C1H2N4\RDJ3\19-Jun-2000\0\\#B3
 LYP/6-31G** OPT FREQ\\1H tetrazole c CH-NH-N=N-N= casno=288948\\0,1\N,
 -1.1460209264,-0.2658102319,0.\N,-0.6843709063,0.9403362988,0.\N,0.664
 1362967,0.8214920058,0.\H,1.2505473344,1.6434179506,0.\N,-0.1355760774
 ,-1.1862401399,0.\C,0.9795090921,-0.4886734863,0.\H,1.9852194067,-0.87
 98225629,0.\\Version=IBM-RS6000-G98RevA.6\State=1-A'\HF=-258.2559548\R
 MSD=3.911e-09\RMSF=1.816e-04\Dipole=1.9240872,0.8330014,0.\PG=CS [SG(C
 1H2N4)]\\@


 THOSE WHO TRY TO PASS CHEMISTRY OFF AS A NEW SCIENCE
 SHOW HOW LITTLE KNOWLEDGE THEY HAVE OF THE CHARACTER
 AND LITERATURE OF THE ANCIENTS.
   -- NICOLAS LEFEVRE
 "COURS DE CHYMIE" J.-N.LELOUP, PARIS, 1751
 Job cpu time:  0 days  0 hours 12 minutes 33.7 seconds.
 File lengths (MBytes):  RWF=   10 Int=    0 D2E=    0 Chk=    3 Scr=    1
 Normal termination of Gaussian 98.
 Link1:  Proceeding to internal job step number  2.
 ----------------------------------------------------
 #N Geom=AllCheck Guess=TCheck RB3LYP/6-31G(d,p) Freq
 ----------------------------------------------------
 1/10=4,29=7,30=1,38=1/1,3;
 2//2;
 3/5=1,6=6,7=101,11=2,25=1,30=1/1,2,3;
 4/5=101,7=1/1;
 5/5=2,42=-5/2;
 8/6=4,11=11,23=2/1;
 11/6=1,8=1,9=11,15=111,16=11/1,2,10;
 10/6=1/2;
 6/7=2,8=2,9=2,10=2,18=1,28=1/1;
 7/8=1,10=1,25=1/1,2,3,16;
 1/10=4,30=1/3;
 99//99;
 ----------------------------------------
 1H tetrazole c CH-NH-N=N-N= casno=288948
 ----------------------------------------
 Redundant internal coordinates taken from checkpointfile:
 /wrk/rdj3/Gau-38282.chk
 Charge =  0 Multiplicity = 1
 N,0,-1.1460209264,-0.2658102319,0.
 N,0,-0.6843709063,0.9403362988,0.
 N,0,0.6641362967,0.8214920058,0.
 H,0,1.2505473344,1.6434179506,0.
 N,0,-0.1355760774,-1.1862401399,0.
 C,0,0.9795090921,-0.4886734863,0.
 H,0,1.9852194067,-0.8798225629,0.
 Recover connectivity data from disk.

 GradGradGradGradGradGradGradGradGradGradGradGradGradGradGradGradGradGrad
 Berny optimization.
 Initialization pass.
                         ----------------------------
                         !    Initial Parameters    !
                         ! (Angstroms and Degrees)  !
 ------------------------                            -------------------------
 ! Name  Definition              Value          Derivative Info.             !
 -----------------------------------------------------------------------------
 ! R1    R(1,2)                  1.2915         calculate D2E/DX2 analyticall!
 ! R2    R(1,5)                  1.3668         calculate D2E/DX2 analyticall!
 ! R3    R(2,3)                  1.3537         calculate D2E/DX2 analyticall!
 ! R4    R(3,4)                  1.0097         calculate D2E/DX2 analyticall!
 ! R5    R(3,6)                  1.3476         calculate D2E/DX2 analyticall!
 ! R6    R(5,6)                  1.3153         calculate D2E/DX2 analyticall!
 ! R7    R(6,7)                  1.0791         calculate D2E/DX2 analyticall!
 ! A1    A(2,1,5)              111.3866         calculate D2E/DX2 analyticall!
 ! A2    A(1,2,3)              105.9078         calculate D2E/DX2 analyticall!
 ! A3    A(2,3,4)              120.4698         calculate D2E/DX2 analyticall!
 ! A4    A(2,3,6)              108.5708         calculate D2E/DX2 analyticall!
 ! A5    A(4,3,6)              130.9594         calculate D2E/DX2 analyticall!
 ! A6    A(1,5,6)              105.6402         calculate D2E/DX2 analyticall!
 ! A7    A(3,6,5)              108.4947         calculate D2E/DX2 analyticall!
 ! A8    A(3,6,7)              124.7868         calculate D2E/DX2 analyticall!
 ! A9    A(5,6,7)              126.7186         calculate D2E/DX2 analyticall!
 ! D1    D(5,1,2,3)              0.             calculate D2E/DX2 analyticall!
 ! D2    D(2,1,5,6)              0.             calculate D2E/DX2 analyticall!
 ! D3    D(1,2,3,4)            180.             calculate D2E/DX2 analyticall!
 ! D4    D(1,2,3,6)              0.             calculate D2E/DX2 analyticall!
 ! D5    D(2,3,6,5)              0.             calculate D2E/DX2 analyticall!
 ! D6    D(2,3,6,7)            180.             calculate D2E/DX2 analyticall!
 ! D7    D(4,3,6,5)            180.             calculate D2E/DX2 analyticall!
 ! D8    D(4,3,6,7)              0.             calculate D2E/DX2 analyticall!
 ! D9    D(1,5,6,3)              0.             calculate D2E/DX2 analyticall!
 ! D10   D(1,5,6,7)            180.             calculate D2E/DX2 analyticall!
 -----------------------------------------------------------------------------
 Trust Radius=3.00D-01 FncErr=1.00D-07 GrdErr=1.00D-07
 Number of steps in this run=  36 maximum allowed number of steps= 100.
 GradGradGradGradGradGradGradGradGradGradGradGradGradGradGradGradGradGrad

                          Input orientation:                          
 ---------------------------------------------------------------------
 Center     Atomic     Atomic              Coordinates (Angstroms)
 Number     Number      Type              X           Y           Z
 ---------------------------------------------------------------------
    1          7             0       -1.146021   -0.265810    0.000000
    2          7             0       -0.684371    0.940336    0.000000
    3          7             0        0.664136    0.821492    0.000000
    4          1             0        1.250547    1.643418    0.000000
    5          7             0       -0.135576   -1.186240    0.000000
    6          6             0        0.979509   -0.488673    0.000000
    7          1             0        1.985219   -0.879823    0.000000
 ---------------------------------------------------------------------
                    Distance matrix (angstroms):
                    1          2          3          4          5
     1  N    0.000000
     2  N    1.291476   0.000000
     3  N    2.111610   1.353734   0.000000
     4  H    3.064097   2.058697   1.009673   0.000000
     5  N    1.366817   2.196248   2.161140   3.150921   0.000000
     6  C    2.137182   2.193300   1.347588   2.149250   1.315300
     7  H    3.190874   3.231051   2.154004   2.628019   2.142817
                    6          7
     6  C    0.000000
     7  H    1.079097   0.000000
                           Interatomic angles:
       N1-N2-N3=105.9078       N1-N2-H4=130.9136       N1-N3-H4=156.4982
       N2-N3-H4=120.4698       N2-N1-N5=111.3866       N3-N1-N5= 73.3227
       N2-N3-N5= 73.3183       H4-N2-N5= 95.4991       H4-N3-N5=166.2119
       N2-N1-C6= 75.0414       N1-N3-C6= 72.5424       N2-N3-C6=108.5708
       N1-C6-H4= 91.2591       N2-H4-C6= 62.7859       H4-N3-C6=130.9594
       N1-N5-C6=105.6402       N2-C6-N5= 72.6863       N3-C6-N5=108.4947
       H4-C6-N5=129.2737       N1-N3-H7= 96.8377       N2-N3-H7=132.8661
       N2-H4-H7= 86.2642       H4-N3-H7=106.6641       N1-N5-H7=129.4478
       N2-N5-H7= 96.249        N3-H7-N5= 60.3917       H4-H7-N5= 81.9878
       N1-C6-H7=164.7332       N2-C6-H7=160.5951       N3-C6-H7=124.7868
       H4-C6-H7=104.0077       N5-C6-H7=126.7186
 Stoichiometry    CH2N4
 Framework group  CS[SG(CH2N4)]
 Deg. of freedom   11
 Full point group                 CS      NOp   2
 Largest Abelian subgroup         CS      NOp   2
 Largest concise Abelian subgroup C1      NOp   1
                         Standard orientation:                         
 ---------------------------------------------------------------------
 Center     Atomic     Atomic              Coordinates (Angstroms)
 Number     Number      Type              X           Y           Z
 ---------------------------------------------------------------------
    1          7             0       -0.724093   -0.927205    0.000000
    2          7             0       -1.123387    0.300995    0.000000
    3          7             0        0.000000    1.056374    0.000000
    4          1             0       -0.060716    2.064220    0.000000
    5          7             0        0.640351   -1.007719    0.000000
    6          6             0        1.068944    0.235794    0.000000
    7          1             0        2.096950    0.563900    0.000000
 ---------------------------------------------------------------------
 Rotational constants (GHZ):     10.4947329     10.3081261      5.2002963
 Isotopes: N-14,N-14,N-14,H-1,N-14,C-12,H-1
 Standard basis: 6-31G(d,p) (6D, 7F)
 There are    63 symmetry adapted basis functions of A'  symmetry.
 There are    22 symmetry adapted basis functions of A"  symmetry.
 Crude estimate of integral set expansion from redundant integrals=1.000.
 Integral buffers will be    262144 words long.
 Raffenetti 2 integral format.
 Two-electron integral symmetry is turned on.
    85 basis functions      154 primitive gaussians
    18 alpha electrons       18 beta electrons
       nuclear repulsion energy       166.4391100598 Hartrees.
 One-electron integrals computed using PRISM.
 NBasis=    85 RedAO= T  NBF=    63    22
 NBsUse=    85 1.00D-04 NBFU=    63    22
 Initial guess read from the checkpoint file:
 /wrk/rdj3/Gau-38282.chk
 Initial guess orbital symmetries:
       Occupied  (A') (A') (A') (A') (A') (A') (A') (A') (A') (A')
                 (A') (A') (A") (A') (A") (A") (A') (A')
       Virtual   (A") (A") (A') (A') (A') (A') (A') (A') (A') (A')
                 (A") (A') (A') (A') (A') (A") (A') (A") (A') (A")
                 (A') (A') (A") (A') (A') (A') (A') (A') (A') (A")
                 (A") (A") (A') (A') (A") (A") (A') (A') (A') (A')
                 (A') (A") (A') (A") (A') (A") (A') (A") (A') (A")
                 (A') (A') (A') (A") (A") (A') (A') (A') (A') (A')
                 (A') (A') (A') (A') (A') (A') (A')
 Requested convergence on RMS density matrix=1.00D-08 within  64 cycles.
 Requested convergence on MAX density matrix=1.00D-06.
 Keep R1 and R2 integrals in memory in canonical form, NReq=    13821249.
 SCF Done:  E(RB+HF-LYP) =  -258.255954778     A.U. after    1 cycles
             Convg  =    0.3491D-08             -V/T =  2.0090
             S**2   =   0.0000
 Range of M.O.s used for correlation:     1    85
 NBasis=    85 NAE=    18 NBE=    18 NFC=     0 NFV=     0
 NROrb=     85 NOA=    18 NOB=    18 NVA=    67 NVB=    67
 G2DrvN: will do    7 atoms at a time, making    1 passes doing MaxLOS=2.
 FoFDir used for L=0 through L=2.
          Differentiating once with respect to electric field.
                with respect to dipole field.
          Differentiating once with respect to nuclear coordinates.
          Store integrals in memory, NReq=    13803114.
          There are  24 degrees of freedom in the 1st order CPHF.
  24 vectors were produced by pass  0.
 AX will form  24 AO Fock derivatives at one time.
  21 vectors were produced by pass  1.
  21 vectors were produced by pass  2.
  21 vectors were produced by pass  3.
  21 vectors were produced by pass  4.
  21 vectors were produced by pass  5.
   5 vectors were produced by pass  6.
   2 vectors were produced by pass  7.
 Inv2:  IOpt= 1 Iter= 1 AM= 1.67D-15 Conv= 1.00D-12.
 Inverted reduced A of dimension 136 with in-core refinement.

 **********************************************************************

            Population analysis using the SCF density.

 **********************************************************************

 Orbital Symmetries:
       Occupied  (A') (A') (A') (A') (A') (A') (A') (A') (A') (A')
                 (A') (A') (A") (A') (A") (A") (A') (A')
       Virtual   (A") (A") (A') (A') (A') (A') (A') (A') (A') (A')
                 (A") (A') (A') (A') (A') (A") (A') (A") (A') (A")
                 (A') (A') (A") (A') (A') (A') (A') (A') (A') (A")
                 (A") (A") (A') (A') (A") (A") (A') (A') (A') (A')
                 (A') (A") (A') (A") (A') (A") (A') (A") (A') (A")
                 (A') (A') (A') (A") (A") (A') (A') (A') (A') (A')
                 (A') (A') (A') (A') (A') (A') (A')
  The electronic state is 1-A'.
 Alpha  occ. eigenvalues --  -14.45139 -14.41552 -14.39762 -14.36789 -10.28328
 Alpha  occ. eigenvalues --   -1.14475  -0.94906  -0.89753  -0.68264  -0.66751
 Alpha  occ. eigenvalues --   -0.59930  -0.50227  -0.49812  -0.38197  -0.33383
 Alpha  occ. eigenvalues --   -0.31266  -0.30642  -0.29336
 Alpha virt. eigenvalues --   -0.02389   0.01390   0.05317   0.10485   0.17782
 Alpha virt. eigenvalues --    0.19771   0.27776   0.32055   0.40524   0.50863
 Alpha virt. eigenvalues --    0.51698   0.59102   0.60180   0.63449   0.66046
 Alpha virt. eigenvalues --    0.66732   0.68717   0.70799   0.73032   0.78669
 Alpha virt. eigenvalues --    0.79491   0.82925   0.83049   0.85695   0.92481
 Alpha virt. eigenvalues --    1.00046   1.03430   1.07633   1.21707   1.23307
 Alpha virt. eigenvalues --    1.33143   1.34734   1.38559   1.44953   1.51171
 Alpha virt. eigenvalues --    1.52660   1.64261   1.84505   1.87064   1.89756
 Alpha virt. eigenvalues --    1.98229   2.04553   2.09221   2.19216   2.23133
 Alpha virt. eigenvalues --    2.24810   2.28143   2.33825   2.38588   2.47959
 Alpha virt. eigenvalues --    2.48737   2.51897   2.56056   2.61053   2.70250
 Alpha virt. eigenvalues --    2.71391   2.78080   2.88420   3.00929   3.10465
 Alpha virt. eigenvalues --    3.23612   3.49466   3.56898   3.71281   4.02023
 Alpha virt. eigenvalues --    4.06913   4.41377
          Condensed to atoms (all electrons):
              1          2          3          4          5          6
  1  N    6.733595   0.253363  -0.079036   0.006246   0.253766  -0.089935
  2  N    0.253363   6.808716   0.185211  -0.023247  -0.066967  -0.108794
  3  N   -0.079036   0.185211   6.695948   0.336274  -0.069982   0.312742
  4  H    0.006246  -0.023247   0.336274   0.400018   0.005658  -0.025512
  5  N    0.253766  -0.066967  -0.069982   0.005658   6.800368   0.412793
  6  C   -0.089935  -0.108794   0.312742  -0.025512   0.412793   4.790610
  7  H    0.004457   0.002953  -0.041634   0.001119  -0.028176   0.385447
              7
  1  N    0.004457
  2  N    0.002953
  3  N   -0.041634
  4  H    0.001119
  5  N   -0.028176
  6  C    0.385447
  7  H    0.517253
 Total atomic charges:
              1
  1  N   -0.082457
[...]
   1   7     0.00   0.00   0.00     0.00   0.00   0.03     0.00   0.00   0.50
   2   7     0.00   0.00  -0.08     0.00   0.00   0.10     0.00   0.00  -0.42
   3   7     0.00   0.00   0.21     0.00   0.00  -0.10     0.00   0.00   0.12
   4   1     0.00   0.00  -0.95     0.00   0.00  -0.79     0.00   0.00   0.65
   5   7     0.00   0.00   0.02     0.00   0.00  -0.17     0.00   0.00  -0.34
   6   6     0.00   0.00  -0.08     0.00   0.00   0.18     0.00   0.00   0.10
   7   1     0.00   0.00  -0.20     0.00   0.00   0.53     0.00   0.00   0.09
                     4                      5                      6
                    A"                     A'                     A'
 Frequencies --   853.8267               968.6981              1008.6081
 Red. masses --     1.3536                 5.0214                 6.0651
 Frc consts  --     0.5814                 2.7762                 3.6353
 IR Inten    --    16.3157                 4.1179                 0.2403
 Raman Activ --     0.0000                 0.0000                 0.0000
 Depolar     --     0.0000                 0.0000                 0.0000
 Atom AN      X      Y      Z        X      Y      Z        X      Y      Z
   1   7     0.00   0.00   0.02    -0.09   0.19   0.00     0.23  -0.03   0.00
   2   7     0.00   0.00   0.00    -0.14   0.14   0.00     0.04  -0.06   0.00
   3   7     0.00   0.00   0.03    -0.10  -0.06   0.00     0.03   0.39   0.00
   4   1     0.00   0.00   0.07     0.36  -0.03   0.00     0.37   0.43   0.00
   5   7     0.00   0.00   0.03     0.39  -0.21   0.00     0.00  -0.24   0.00
   6   6     0.00   0.00  -0.17    -0.07  -0.11   0.00    -0.36  -0.07   0.00
   7   1     0.00   0.00   0.98    -0.31   0.68   0.00    -0.26  -0.44   0.00
                     7                      8                      9
                    A'                     A'                     A'
 Frequencies --  1042.9934              1066.9488              1149.5322
 Red. masses --     5.0050                 3.5501                 1.9288
 Frc consts  --     3.2079                 2.3811                 1.5017
 IR Inten    --    17.0860                28.0055                15.9779
 Raman Activ --     0.0000                 0.0000                 0.0000
 Depolar     --     0.0000                 0.0000                 0.0000
 Atom AN      X      Y      Z        X      Y      Z        X      Y      Z
   1   7     0.18   0.01   0.00     0.28   0.07   0.00    -0.12  -0.12   0.00
   2   7     0.33   0.24   0.00    -0.22   0.04   0.00     0.09  -0.03   0.00
   3   7    -0.22  -0.15   0.00     0.06  -0.18   0.00     0.13   0.00   0.00
   4   1    -0.56  -0.18   0.00     0.84  -0.14   0.00     0.45   0.02   0.00
   5   7    -0.13  -0.09   0.00    -0.15   0.03   0.00    -0.03   0.00   0.00
   6   6    -0.12  -0.03   0.00    -0.03   0.04   0.00    -0.09   0.11   0.00
   7   1    -0.31   0.50   0.00    -0.11   0.26   0.00    -0.31   0.79   0.00
                    10                     11                     12
                    A'                     A'                     A'
 Frequencies --  1270.4599              1301.0340              1464.0419
 Red. masses --     2.2790                10.7259                 3.1460
 Frc consts  --     2.1673                10.6970                 3.9729
 IR Inten    --     2.7420                16.4874                 9.2930
 Raman Activ --     0.0000                 0.0000                 0.0000
 Depolar     --     0.0000                 0.0000                 0.0000
 Atom AN      X      Y      Z        X      Y      Z        X      Y      Z
   1   7    -0.04  -0.07   0.00    -0.04   0.58   0.00    -0.01  -0.01   0.00
   2   7     0.08   0.07   0.00     0.22  -0.49   0.00    -0.06   0.09   0.00
   3   7    -0.06  -0.09   0.00     0.12  -0.16   0.00     0.20  -0.13   0.00
   4   1     0.65  -0.06   0.00    -0.24  -0.22   0.00    -0.72  -0.21   0.00
   5   7     0.11   0.18   0.00    -0.03   0.13   0.00     0.07  -0.11   0.00
   6   6    -0.17  -0.03   0.00    -0.27  -0.07   0.00    -0.17   0.25   0.00
   7   1     0.02  -0.68   0.00    -0.36   0.07   0.00     0.05  -0.51   0.00
                    13                     14                     15
                    A'                     A'                     A'
 Frequencies --  1515.2252              3299.9425              3664.8978
 Red. masses --     3.3394                 1.1003                 1.0837
 Frc consts  --     4.5173                 7.0594                 8.5763
 IR Inten    --    17.7363                 0.9909                86.8386
 Raman Activ --     0.0000                 0.0000                 0.0000
 Depolar     --     0.0000                 0.0000                 0.0000
 Atom AN      X      Y      Z        X      Y      Z        X      Y      Z
   1   7     0.06  -0.08   0.00     0.00   0.00   0.00     0.00   0.00   0.00
   2   7    -0.10   0.07   0.00     0.00   0.00   0.00     0.00   0.00   0.00
   3   7     0.17   0.03   0.00     0.00   0.00   0.00     0.01  -0.08   0.00
   4   1    -0.72  -0.03   0.00     0.01   0.02   0.00    -0.06   0.99   0.00
   5   7     0.05   0.21   0.00     0.00   0.00   0.00     0.00   0.00   0.00
   6   6    -0.11  -0.29   0.00     0.09   0.03   0.00     0.00   0.00   0.00
   7   1    -0.36   0.39   0.00    -0.95  -0.30   0.00     0.02   0.00   0.00

 -------------------
 - Thermochemistry -
 -------------------
 Temperature   298.150 Kelvin.  Pressure   1.00000 Atm.
 Atom  1 has atomic number  7 and mass  14.00307
 Atom  2 has atomic number  7 and mass  14.00307
 Atom  3 has atomic number  7 and mass  14.00307
 Atom  4 has atomic number  1 and mass   1.00783
 Atom  5 has atomic number  7 and mass  14.00307
 Atom  6 has atomic number  6 and mass  12.00000
 Atom  7 has atomic number  1 and mass   1.00783
 Molecular mass:    70.02795 amu.
 Principal axes and moments of inertia in atomic units:
                           1         2         3
     EIGENVALUES --   171.96637 175.07946 347.04583
           X            0.88889   0.45813   0.00000
           Y           -0.45813   0.88889   0.00000
           Z            0.00000   0.00000   1.00000
 THIS MOLECULE IS AN ASYMMETRIC TOP.
 ROTATIONAL SYMMETRY NUMBER  1.
 ROTATIONAL TEMPERATURES (KELVIN)      0.50366     0.49471     0.24957
 ROTATIONAL CONSTANTS (GHZ)           10.49473    10.30813     5.20030
 Zero-point vibrational energy     123268.5 (Joules/Mol)
                                   29.46187 (Kcal/Mol)
 WARNING-- EXPLICIT CONSIDERATION OF   1 DEGREES OF FREEDOM AS
           VIBRATIONS MAY CAUSE SIGNIFICANT ERROR
 VIBRATIONAL TEMPERATURES:    828.60   992.52  1060.25  1228.46  1393.73
          (KELVIN)           1451.15  1500.63  1535.09  1653.91  1827.90
                             1871.89  2106.42  2180.06  4747.85  5272.94
 
 Zero-point correction=                           0.046950 (Hartree/Particle)
 Thermal correction to Energy=                    0.050428
 Thermal correction to Enthalpy=                  0.051372
 Thermal correction to Gibbs Free Energy=         0.020848
 Sum of electronic and zero-point Energies=           -258.209004
 Sum of electronic and thermal Energies=              -258.205527
 Sum of electronic and thermal Enthalpies=            -258.204583
 Sum of electronic and thermal Free Energies=         -258.235106
 
                     E (Thermal)             CV                S
                      KCAL/MOL        CAL/MOL-KELVIN    CAL/MOL-KELVIN
 TOTAL                   31.644             11.350             64.242
 ELECTRONIC               0.000              0.000              0.000
 TRANSLATIONAL            0.889              2.981             38.656
 ROTATIONAL               0.889              2.981             23.862
 VIBRATIONAL             29.866              5.388              1.724
 VIBRATION  1             0.932              1.083              0.493
                       Q            LOG10(Q)             LN(Q)
 TOTAL BOT       0.257316D-09         -9.589533        -22.080715
 TOTAL V=0       0.101401D+13         12.006040         27.644930
 VIB (BOT)       0.305293D-21        -21.515283        -49.540769
 VIB (BOT)  1    0.265678D+00         -0.575645         -1.325471
 VIB (V=0)       0.120307D+01          0.080291          0.184876
 VIB (V=0)  1    0.106620D+01          0.027839          0.064103
 ELECTRONIC      0.100000D+01          0.000000          0.000000
 TRANSLATIONAL   0.230339D+08          7.362368         16.952478
 ROTATIONAL      0.365917D+05          4.563382         10.507576
 ***** Axes restored to original set *****
 -------------------------------------------------------------------
 Center     Atomic                   Forces (Hartrees/Bohr)
 Number     Number              X              Y              Z
 -------------------------------------------------------------------
    1          7           0.000305080   -0.000338275    0.000000000
    2          7           0.000058163    0.000081546    0.000000000
    3          7          -0.000159947   -0.000218163    0.000000000
    4          1          -0.000004119   -0.000012146    0.000000000
    5          7          -0.000431210    0.000362177    0.000000000
    6          6           0.000230116    0.000171268    0.000000000
    7          1           0.000001916   -0.000046406    0.000000000
 -------------------------------------------------------------------
 Cartesian Forces:  Max     0.000431210 RMS     0.000181585

 GradGradGradGradGradGradGradGradGradGradGradGradGradGradGradGradGradGrad
 Berny optimization.
 Internal  Forces:  Max     0.000424071 RMS     0.000102049
 Search for a local minimum.
 Step number   1 out of a maximum of  36
 All quantities printed in internal units (Hartrees-Bohrs-Radians)
 Second derivative matrix not updated -- analytic derivatives used.
     Eigenvalues ---    0.00802   0.02509   0.07174   0.07810   0.10176
     Eigenvalues ---    0.10598   0.19587   0.24297   0.34691   0.37992
     Eigenvalues ---    0.43532   0.46724   0.48075   0.57837   0.63086
     Eigenvalues --- 1000.000001000.000001000.000001000.000001000.00000
     Eigenvalues --- 1000.000001000.000001000.000001000.000001000.00000
     Eigenvalues --- 1000.00000
 Angle between quadratic step and forces=  16.70 degrees.
 Linear search not attempted -- first point.
 Iteration  1 RMS(Cart)=  0.00032840 RMS(Int)=  0.00000008
 Iteration  2 RMS(Cart)=  0.00000008 RMS(Int)=  0.00000003
 Variable       Old X    -DE/DX   Delta X   Delta X   Delta X     New X
                                 (Linear)    (Quad)   (Total)
    R1        2.44054   0.00002   0.00000   0.00049   0.00049   2.44103
    R2        2.58291  -0.00042   0.00000  -0.00185  -0.00185   2.58106
    R3        2.55819  -0.00007   0.00000  -0.00029  -0.00029   2.55790
    R4        1.90801  -0.00001   0.00000  -0.00001  -0.00001   1.90799
    R5        2.54657  -0.00015   0.00000  -0.00042  -0.00042   2.54615
    R6        2.48556   0.00010   0.00000   0.00056   0.00056   2.48611
    R7        2.03920   0.00002   0.00000   0.00001   0.00001   2.03920
    A1        1.94406   0.00001   0.00000   0.00013   0.00013   1.94420
    A2        1.84844  -0.00005   0.00000  -0.00041  -0.00041   1.84803
    A3        2.10260  -0.00003   0.00000  -0.00023  -0.00023   2.10236
    A4        1.89492   0.00006   0.00000   0.00044   0.00044   1.89535
    A5        2.28567  -0.00003   0.00000  -0.00020  -0.00020   2.28547
    A6        1.84377   0.00012   0.00000   0.00054   0.00054   1.84431
    A7        1.89359  -0.00014   0.00000  -0.00070  -0.00070   1.89289
    A8        2.17794   0.00011   0.00000   0.00082   0.00082   2.17876
    A9        2.21166   0.00003   0.00000  -0.00012  -0.00012   2.21154
    D1        0.00000   0.00000   0.00000   0.00000   0.00000   0.00000
    D2        0.00000   0.00000   0.00000   0.00000   0.00000   0.00000
    D3        3.14159   0.00000   0.00000   0.00000   0.00000   3.14159
    D4        0.00000   0.00000   0.00000   0.00000   0.00000   0.00000
    D5        0.00000   0.00000   0.00000   0.00000   0.00000   0.00000
    D6        3.14159   0.00000   0.00000   0.00000   0.00000   3.14159
    D7        3.14159   0.00000   0.00000   0.00000   0.00000   3.14159
    D8        0.00000   0.00000   0.00000   0.00000   0.00000   0.00000
    D9        0.00000   0.00000   0.00000   0.00000   0.00000   0.00000
   D10        3.14159   0.00000   0.00000   0.00000   0.00000   3.14159
         Item               Value     Threshold  Converged?
 Maximum Force            0.000424     0.000450     YES
 RMS     Force            0.000102     0.000300     YES
 Maximum Displacement     0.000935     0.001800     YES
 RMS     Displacement     0.000328     0.001200     YES
 Predicted change in Energy=-6.201107D-07
 Optimization completed.
    -- Stationary point found.
                         ----------------------------
                         !   Optimized Parameters   !
                         ! (Angstroms and Degrees)  !
 ------------------------                            -------------------------
 ! Name  Definition              Value          Derivative Info.             !
 -----------------------------------------------------------------------------
 ! R1    R(1,2)                  1.2915         -DE/DX =    0.               !
 ! R2    R(1,5)                  1.3668         -DE/DX =   -0.0004           !
 ! R3    R(2,3)                  1.3537         -DE/DX =   -0.0001           !
 ! R4    R(3,4)                  1.0097         -DE/DX =    0.               !
 ! R5    R(3,6)                  1.3476         -DE/DX =   -0.0001           !
 ! R6    R(5,6)                  1.3153         -DE/DX =    0.0001           !
 ! R7    R(6,7)                  1.0791         -DE/DX =    0.               !
 ! A1    A(2,1,5)              111.3866         -DE/DX =    0.               !
 ! A2    A(1,2,3)              105.9078         -DE/DX =   -0.0001           !
 ! A3    A(2,3,4)              120.4698         -DE/DX =    0.               !
 ! A4    A(2,3,6)              108.5708         -DE/DX =    0.0001           !
 ! A5    A(4,3,6)              130.9594         -DE/DX =    0.               !
 ! A6    A(1,5,6)              105.6402         -DE/DX =    0.0001           !
 ! A7    A(3,6,5)              108.4947         -DE/DX =   -0.0001           !
 ! A8    A(3,6,7)              124.7868         -DE/DX =    0.0001           !
 ! A9    A(5,6,7)              126.7186         -DE/DX =    0.               !
 ! D1    D(5,1,2,3)              0.             -DE/DX =    0.               !
 ! D2    D(2,1,5,6)              0.             -DE/DX =    0.               !
 ! D3    D(1,2,3,4)            180.             -DE/DX =    0.               !
 ! D4    D(1,2,3,6)              0.             -DE/DX =    0.               !
 ! D5    D(2,3,6,5)              0.             -DE/DX =    0.               !
 ! D6    D(2,3,6,7)            180.             -DE/DX =    0.               !
 ! D7    D(4,3,6,5)            180.             -DE/DX =    0.               !
 ! D8    D(4,3,6,7)              0.             -DE/DX =    0.               !
 ! D9    D(1,5,6,3)              0.             -DE/DX =    0.               !
 ! D10   D(1,5,6,7)            180.             -DE/DX =    0.               !
 -----------------------------------------------------------------------------
 GradGradGradGradGradGradGradGradGradGradGradGradGradGradGradGradGradGrad

 1\1\GINC-QUANTUM\Freq\RB3LYP\6-31G(d,p)\C1H2N4\RDJ3\19-Jun-2000\0\\#N 
 GEOM=ALLCHECK GUESS=TCHECK RB3LYP/6-31G(D,P) FREQ\\1H tetrazole c CH-N
 H-N=N-N= casno=288948\\0,1\N,-1.1460209264,-0.2658102319,0.\N,-0.68437
 09063,0.9403362988,0.\N,0.6641362967,0.8214920058,0.\H,1.2505473344,1.
 6434179506,0.\N,-0.1355760774,-1.1862401399,0.\C,0.9795090921,-0.48867
 34863,0.\H,1.9852194067,-0.8798225629,0.\\Version=IBM-RS6000-G98RevA.6
 \State=1-A'\HF=-258.2559548\RMSD=3.491e-09\RMSF=1.816e-04\Dipole=1.924
 0879,0.8330009,0.\DipoleDeriv=-0.0541135,-0.1483999,0.0002206,-0.21613
 2,0.085733,0.0000877,0.0002877,0.0000988,-0.1530438,0.2708648,0.271292
 3,-0.0000921,0.2317231,-0.3238195,-0.0002341,-0.0004726,-0.0001372,-0.
 0993308,-0.3538408,-0.279671,0.0000075,-0.1942769,-0.2190683,0.0000275
 ,0.0008271,0.0002652,-0.150005,0.2146271,0.0366742,0.0000401,0.0262112
 ,0.2586491,0.0000641,-0.0001904,-0.0000694,0.3435375,-0.3484793,0.1229
 681,-0.000089,-0.0025343,-0.344272,0.0001801,-0.0001084,-0.0000354,-0.
 2048901,0.2211582,-0.0120845,-0.0000959,0.1491032,0.4277013,-0.0001202
 ,-0.0000327,-0.0001302,0.10551,0.0497838,0.0092209,0.0000088,0.0059059
 ,0.1150767,-0.000005,-0.0003107,0.0000082,0.1582222\Polar=38.5468056,0
 .0238291,36.4471897,0.0059996,0.0016196,15.6530467\PG=CS [SG(C1H2N4)]\
 NImag=0\\0.54483192,0.09654722,0.47508914,-0.00001406,-0.00000457,0.12
 368970,-0.13920531,-0.10913521,0.00000151,0.42065108,-0.04978064,-0.32
 097296,0.00001388,-0.03441001,0.60746702,0.00002608,0.00000878,-0.0962
 0300,-0.00000655,-0.00002657,0.11373862,-0.11275300,-0.10908155,0.0000
 0353,-0.20692650,0.02457094,-0.00000080,0.64757349,-0.03255308,-0.0625
 3957,-0.00000330,0.05914700,-0.11856620,0.00000794,0.19855427,0.923742
 62,-0.00003698,-0.00001221,0.02627142,0.00000869,0.00003733,-0.0673975
 0,0.00000493,-0.00001064,0.08984499,-0.01110899,-0.00149171,0.00000088
 ,-0.00519522,-0.03203767,-0.00000122,-0.19680408,-0.18005788,0.0000001
 0,0.19888272,0.00797238,0.00174674,0.00000052,0.00176519,0.01128356,-0
 .00000084,-0.18644199,-0.33990194,-0.00000131,0.19776171,0.33587419,0.
 00000430,0.00000154,0.00786533,-0.00000019,-0.00000419,-0.01208606,-0.
 00000334,0.00000026,-0.00641405,0.00000093,0.00000169,0.01351364,-0.15
 944181,0.05658541,-0.00000190,-0.00187486,0.08875821,-0.00000079,-0.00
 284353,-0.11226532,0.00000306,-0.00023335,-0.00102616,-0.00000081,0.48
 181248,0.01799271,-0.12265693,-0.00001638,-0.01680508,-0.12312626,0.00
 002853,0.00175678,-0.08211564,-0.00003923,0.00905625,-0.00611256,0.000
 00390,0.11005532,0.52325536,0.00001185,0.00000318,-0.08949015,-0.00000
 425,-0.00001190,0.03534563,0.00000316,0.00000503,0.02091559,-0.0000014
 9,-0.00000207,0.00740670,-0.00000027,0.00001395,0.10886378,-0.11938912
 ,0.06681425,0.00001170,-0.06728953,0.00673072,-0.00001856,-0.13298885,
 0.06973715,0.00002419,0.01485724,-0.02056249,-0.00000217,-0.30174915,-
 0.13227424,-0.00000888,0.92965625,-0.03381474,0.03081991,0.00000966,0.
 10010407,-0.04997454,-0.00001808,0.03856280,-0.31543308,0.00002566,0.0
 0694554,-0.00255302,-0.00000262,-0.12539917,-0.20414852,-0.00000900,-0
 .09470451,0.63914741,0.00000299,-0.00000258,0.01882565,0.00000225,-0.0
 0000012,0.02049777,-0.00000260,-0.00000063,-0.06041788,-0.00000143,-0.
 00000165,-0.00949397,0.00000662,0.00000797,-0.07790675,-0.00000909,-0.
 00000273,0.13776113,-0.00293370,-0.00023841,-0.00000167,-0.00015966,-0
 .00383156,0.00000183,0.00474246,-0.00256213,-0.00000399,-0.00039832,0.
 00053136,0.00000128,-0.01566977,0.01021826,-0.00000012,-0.32309684,0.1
 0830601,0.00000126,0.33751583,-0.00636384,-0.00148634,0.00000019,-0.00
 066596,-0.00611063,0.00000024,0.03207874,-0.00518621,0.00000041,-0.000
 17623,-0.00033697,-0.00000057,-0.01670829,0.01490454,0.00000082,0.1042
 5912,-0.09785818,-0.00000027,-0.11242354,0.09607378,0.00000581,0.00000
 587,0.00904105,-0.00000146,-0.00000843,0.00610453,-0.00000488,0.000001
 34,-0.00280257,0.00000224,0.00000365,-0.00079159,-0.00000590,0.0000012
 5,-0.00513480,0.00000279,-0.00000287,-0.02926595,0.00000140,-0.0000008
 1,0.02284933\\-0.00030508,0.00033828,0.,-0.00005816,-0.00008155,0.,0.0
 0015995,0.00021816,0.,0.00000412,0.00001215,0.,0.00043121,-0.00036218,
 0.,-0.00023012,-0.00017127,0.,-0.00000192,0.00004641,0.\\\@


 WAR ES EIN GOTT DER DIESE ZEICHEN SCHRIEB?
          - LUDWIG BOLTZMANN, QUOTING GOETHE, ABOUT MAXWELL'S EQUATIONS.
 Job cpu time:  0 days  0 hours 10 minutes 55.0 seconds.
 File lengths (MBytes):  RWF=   14 Int=    0 D2E=    0 Chk=    3 Scr=    1
 Normal termination of Gaussian 98.
