 Entering Gaussian System, Link 0=g98
 Initial command:
 /usr/local/apps/g98/g98/l1.exe /wrk/Gau-18150.inp -scrdir=/wrk/
 Entering Link 1 = /usr/local/apps/g98/g98/l1.exe PID=     19140.
  
 Copyright (c) 1988,1990,1992,1993,1995,1998 Gaussian, Inc.
                  All Rights Reserved.
  
 This is part of the Gaussian(R) 98 program.  It is based on
 the Gaussian 94(TM) system (copyright 1995 Gaussian, Inc.),
 the Gaussian 92(TM) system (copyright 1992 Gaussian, Inc.),
 the Gaussian 90(TM) system (copyright 1990 Gaussian, Inc.),
 the Gaussian 88(TM) system (copyright 1988 Gaussian, Inc.),
 the Gaussian 86(TM) system (copyright 1986 Carnegie Mellon
 University), and the Gaussian 82(TM) system (copyright 1983
 Carnegie Mellon University). Gaussian is a federally registered
 trademark of Gaussian, Inc.
  
 This software contains proprietary and confidential information,
 including trade secrets, belonging to Gaussian, Inc.
  
 This software is provided under written license and may be
 used, copied, transmitted, or stored only in accord with that
 written license.
  
 The following legend is applicable only to US Government
 contracts under DFARS:
  
                    RESTRICTED RIGHTS LEGEND
  
 Use, duplication or disclosure by the US Government is subject
 to restrictions as set forth in subparagraph (c)(1)(ii) of the
 Rights in Technical Data and Computer Software clause at DFARS
 252.227-7013.
  
 Gaussian, Inc.
 Carnegie Office Park, Building 6, Pittsburgh, PA 15106 USA
  
 The following legend is applicable only to US Government
 contracts under FAR:
  
                    RESTRICTED RIGHTS LEGEND
  
 Use, reproduction and disclosure by the US Government is subject
 to restrictions as set forth in subparagraph (c) of the
 Commercial Computer Software - Restricted Rights clause at FAR
 52.227-19.
  
 Gaussian, Inc.
 Carnegie Office Park, Building 6, Pittsburgh, PA 15106 USA
  
  
 ---------------------------------------------------------------
 Warning -- This program may not be used in any manner that
 competes with the business of Gaussian, Inc. or will provide
 assistance to any competitor of Gaussian, Inc.  The licensee
 of this program is prohibited from giving any competitor of
 Gaussian, Inc. access to this program.  By using this program,
 the user acknowledges that Gaussian, Inc. is engaged in the
 business of creating and licensing software in the field of
 computational chemistry and represents and warrants to the
 licensee that it is not a competitor of Gaussian, Inc. and that
 it will not use this program in any manner prohibited above.
 ---------------------------------------------------------------
  

 Cite this work as:
 Gaussian 98, Revision A.7,
 M. J. Frisch, G. W. Trucks, H. B. Schlegel, G. E. Scuseria, 
 M. A. Robb, J. R. Cheeseman, V. G. Zakrzewski, J. A. Montgomery, Jr., 
 R. E. Stratmann, J. C. Burant, S. Dapprich, J. M. Millam, 
 A. D. Daniels, K. N. Kudin, M. C. Strain, O. Farkas, J. Tomasi, 
 V. Barone, M. Cossi, R. Cammi, B. Mennucci, C. Pomelli, C. Adamo, 
 S. Clifford, J. Ochterski, G. A. Petersson, P. Y. Ayala, Q. Cui, 
 K. Morokuma, D. K. Malick, A. D. Rabuck, K. Raghavachari, 
 J. B. Foresman, J. Cioslowski, J. V. Ortiz, A. G. Baboul, 
 B. B. Stefanov, G. Liu, A. Liashenko, P. Piskorz, I. Komaromi, 
 R. Gomperts, R. L. Martin, D. J. Fox, T. Keith, M. A. Al-Laham, 
 C. Y. Peng, A. Nanayakkara, C. Gonzalez, M. Challacombe, 
 P. M. W. Gill, B. Johnson, W. Chen, M. W. Wong, J. L. Andres, 
 C. Gonzalez, M. Head-Gordon, E. S. Replogle, and J. A. Pople, 
 Gaussian, Inc., Pittsburgh PA, 1998.

 **********************************************
 Gaussian 98:  IBM-RS6000-G98RevA.7 11-Apr-1999
                  11-Apr-2000 
 **********************************************
 %mem=24000000
 ----------------------
 #B3LYP/3-21G* opt freq
 ----------------------
 1/14=-1,18=20,26=3,38=1/1,3;
 2/9=110,17=6,18=5/2;
 3/5=5,7=1,11=2,25=1,30=1/1,2,3;
 4//1;
 5/5=2,38=4,42=-5/2;
 6/7=2,8=2,9=2,10=2,28=1/1;
 7//1,2,3,16;
 1/14=-1,18=20/3(1);
 99//99;
 2/9=110/2;
 3/5=5,7=1,11=2,25=1,30=1/1,2,3;
 4/5=5,16=2/1;
 5/5=2,38=4,42=-5/2;
 7//1,2,3,16;
 1/14=-1,18=20/3(-5);
 2/9=110/2;
 6/7=2,8=2,9=2,10=2,19=2,28=1/1;
 99/9=1/99;
 ----------------------------------------
 1H tetrazole c CH-NH-N=N-N= casno=288948
 ----------------------------------------
 Symbolic Z-matrix:
 Charge =  0 Multiplicity = 1
 7                    -1.12329  -0.25456   0. 
 7                    -0.67158   0.91328   0. 
 7                     0.65055   0.80984   0. 
 1                     1.224     1.62189   0. 
 7                    -0.13465  -1.16105   0. 
 6                     0.96218  -0.48332   0. 
 1                     1.95569  -0.87454   0. 

 GradGradGradGradGradGradGradGradGradGradGradGradGradGradGradGradGradGrad
 Berny optimization.
 Initialization pass.
                         ----------------------------
                         !    Initial Parameters    !
                         ! (Angstroms and Degrees)  !
 ------------------------                            -------------------------
 ! Name  Definition              Value          Derivative Info.             !
 -----------------------------------------------------------------------------
 ! R1    R(1,2)                  1.2522         estimate D2E/DX2             !
 ! R2    R(1,5)                  1.3413         estimate D2E/DX2             !
 ! R3    R(2,3)                  1.3262         estimate D2E/DX2             !
 ! R4    R(3,4)                  0.9941         estimate D2E/DX2             !
 ! R5    R(3,6)                  1.3302         estimate D2E/DX2             !
 ! R6    R(5,6)                  1.2893         estimate D2E/DX2             !
 ! R7    R(6,7)                  1.0678         estimate D2E/DX2             !
 ! A1    A(2,1,5)              111.3714         estimate D2E/DX2             !
 ! A2    A(1,2,3)              106.673          estimate D2E/DX2             !
 ! A3    A(2,3,4)              120.7559         estimate D2E/DX2             !
 ! A4    A(2,3,6)              108.0227         estimate D2E/DX2             !
 ! A5    A(4,3,6)              131.2214         estimate D2E/DX2             !
 ! A6    A(1,5,6)              105.77           estimate D2E/DX2             !
 ! A7    A(3,6,5)              108.1628         estimate D2E/DX2             !
 ! A8    A(3,6,7)              125.0426         estimate D2E/DX2             !
 ! A9    A(5,6,7)              126.7945         estimate D2E/DX2             !
 ! D1    D(5,1,2,3)              0.             estimate D2E/DX2             !
 ! D2    D(2,1,5,6)              0.             estimate D2E/DX2             !
 ! D3    D(1,2,3,4)            180.             estimate D2E/DX2             !
 ! D4    D(1,2,3,6)              0.             estimate D2E/DX2             !
 ! D5    D(2,3,6,5)              0.             estimate D2E/DX2             !
 ! D6    D(2,3,6,7)            180.             estimate D2E/DX2             !
 ! D7    D(4,3,6,5)            180.             estimate D2E/DX2             !
 ! D8    D(4,3,6,7)              0.             estimate D2E/DX2             !
 ! D9    D(1,5,6,3)              0.             estimate D2E/DX2             !
 ! D10   D(1,5,6,7)            180.             estimate D2E/DX2             !
 -----------------------------------------------------------------------------
 Trust Radius=3.00D-01 FncErr=1.00D-07 GrdErr=1.00D-06
 Number of steps in this run=  36 maximum allowed number of steps= 100.
 GradGradGradGradGradGradGradGradGradGradGradGradGradGradGradGradGradGrad

                          Input orientation:                          
 ---------------------------------------------------------------------
 Center     Atomic     Atomic              Coordinates (Angstroms)
 Number     Number      Type              X           Y           Z
 ---------------------------------------------------------------------
    1          7             0       -1.123293    -.254560     .000000
    2          7             0        -.671576     .913277     .000000
    3          7             0         .650545     .809842     .000000
    4          1             0        1.224004    1.621891     .000000
    5          7             0        -.134646   -1.161053     .000000
    6          6             0         .962183    -.483316     .000000
    7          1             0        1.955691    -.874535     .000000
 ---------------------------------------------------------------------
                    Distance matrix (angstroms):
                    1          2          3          4          5
     1  N     .000000
     2  N    1.252155    .000000
     3  N    2.068684   1.326161    .000000
     4  H    3.005141   2.023699    .994122    .000000
     5  N    1.341325   2.142694   2.121545   3.096887    .000000
     6  C    2.097985   2.149335   1.330179   2.121426   1.289326
     7  H    3.140782   3.177861   2.130852   2.601444   2.109882
                    6          7
     6  C     .000000
     7  H    1.067760    .000000
 Stoichiometry    CH2N4
 Framework group  CS[SG(CH2N4)]
 Deg. of freedom   11
 Full point group                 CS      NOp   2
 Largest Abelian subgroup         CS      NOp   2
 Largest concise Abelian subgroup C1      NOp   1
                         Standard orientation:                         
 ---------------------------------------------------------------------
 Center     Atomic     Atomic              Coordinates (Angstroms)
 Number     Number      Type              X           Y           Z
 ---------------------------------------------------------------------
    1          7             0        -.716312    -.901934     .000000
    2          7             0       -1.095520     .291420     .000000
    3          7             0         .000000    1.038775     .000000
    4          1             0        -.061479    2.030994     .000000
    5          7             0         .622151    -.989495     .000000
    6          6             0        1.052813     .225779     .000000
    7          1             0        2.072370     .542976     .000000
 ---------------------------------------------------------------------
 Rotational constants (GHZ):     10.9198679     10.7343949      5.4131685
 Isotopes: N-14,N-14,N-14,H-1,N-14,C-12,H-1
 Standard basis: 3-21G* (6D, 7F)
 There are    39 symmetry adapted basis functions of A'  symmetry.
 There are    10 symmetry adapted basis functions of A"  symmetry.
 Crude estimate of integral set expansion from redundant integrals=1.000.
 Integral buffers will be    262144 words long.
 Raffenetti 2 integral format.
 Two-electron integral symmetry is turned on.
    49 basis functions       81 primitive gaussians
    18 alpha electrons       18 beta electrons
       nuclear repulsion energy       169.8288422228 Hartrees.
 One-electron integrals computed using PRISM.
 NBasis=    49 RedAO= T  NBF=    39    10
 NBsUse=    49 1.00D-04 NBFU=    39    10
 Projected INDO Guess.
 Initial guess orbital symmetries:
       Occupied  (A') (A') (A') (A') (A') (A') (A') (A') (A') (A')
                 (A') (A") (A') (A') (A") (A") (A') (A')
       Virtual   (A") (A') (A") (A') (A') (A') (A') (A') (A') (A')
                 (A') (A') (A') (A') (A') (A') (A') (A') (A') (A')
                 (A') (A') (A') (A') (A') (A') (A") (A") (A") (A")
                 (A")
 Requested convergence on RMS density matrix=1.00D-08 within  64 cycles.
 Requested convergence on MAX density matrix=1.00D-06.
 Keep R1 and R2 integrals in memory in canonical form, NReq=     1914419.
 Integral accuracy reduced to 1.0D-05 until final iterations.
 Initial convergence to 1.0D-05 achieved.  Increase integral accuracy.
 SCF Done:  E(RB+HF-LYP) =  -256.765896514     A.U. after   15 cycles
             Convg  =     .2351D-08             -V/T =  2.0044
             S**2   =    .0000

 **********************************************************************

            Population analysis using the SCF density.

 **********************************************************************

 Orbital Symmetries:
       Occupied  (A') (A') (A') (A') (A') (A') (A') (A') (A') (A')
                 (A') (A") (A') (A') (A") (A") (A') (A')
       Virtual   (A") (A") (A') (A') (A') (A') (A') (A') (A') (A")
                 (A') (A') (A') (A') (A") (A') (A") (A') (A') (A")
                 (A') (A") (A') (A') (A') (A') (A') (A') (A') (A')
                 (A')
  The electronic state is 1-A'.
 Alpha  occ. eigenvalues --  -14.37358 -14.33216 -14.31127 -14.28428 -10.22316
 Alpha  occ. eigenvalues --   -1.21595   -.98238   -.93718   -.70079   -.69167
 Alpha  occ. eigenvalues --    -.62059   -.52391   -.51632   -.37445   -.34387
 Alpha  occ. eigenvalues --    -.32463   -.28998   -.26997
 Alpha virt. eigenvalues --    -.01154    .03054    .07837    .12536    .20968
 Alpha virt. eigenvalues --     .23483    .33490    .37802    .46341    .68270
 Alpha virt. eigenvalues --     .68372    .81041    .83228    .92177   1.01128
 Alpha virt. eigenvalues --    1.04283   1.07200   1.07845   1.11748   1.15021
 Alpha virt. eigenvalues --    1.18265   1.20169   1.24876   1.36234   1.38562
 Alpha virt. eigenvalues --    1.45615   1.66659   2.11369   2.39029   2.67770
 Alpha virt. eigenvalues --    2.74802
          Condensed to atoms (all electrons):
              1          2          3          4          5          6
  1  N    6.887514    .213029   -.136658    .004666    .239989   -.124420
  2  N     .213029   6.963262    .120223   -.019440   -.127433   -.128418
  3  N    -.136658    .120223   7.207813    .317282   -.084576    .171380
  4  H     .004666   -.019440    .317282    .338449    .003606   -.013785
  5  N     .239989   -.127433   -.084576    .003606   6.997445    .360919
  6  C    -.124420   -.128418    .171380   -.013785    .360919   4.986351
  7  H     .004341    .001847   -.044234    .001183   -.031341    .362540
              7
  1  N     .004341
  2  N     .001847
  3  N    -.044234
  4  H     .001183
  5  N    -.031341
  6  C     .362540
  7  H     .437767
 Total atomic charges:
              1
  1  N    -.088460
  2  N    -.023070
  3  N    -.551228
  4  H     .368039
  5  N    -.358610
  6  C     .385432
  7  H     .267897
 Sum of Mulliken charges=    .00000
 Atomic charges with hydrogens summed into heavy atoms:
              1
  1  N    -.088460
  2  N    -.023070
  3  N    -.183189
  4  H     .000000
  5  N    -.358610
  6  C     .653329
  7  H     .000000
 Sum of Mulliken charges=    .00000
 Electronic spatial extent (au):  <R**2>=   244.6088
 Charge=      .0000 electrons
 Dipole moment (Debye):
    X=     2.5425    Y=     4.9156    Z=      .0000  Tot=     5.5342
 Quadrupole moment (Debye-Ang):
   XX=   -29.1636   YY=   -26.5944   ZZ=   -27.9362
   XY=     1.7116   XZ=      .0000   YZ=      .0000
 Octapole moment (Debye-Ang**2):
  XXX=    11.3000  YYY=    22.1005  ZZZ=      .0000  XYY=     -.6573
  XXY=     4.4747  XXZ=      .0000  XZZ=    -1.0009  YZZ=      .2605
  YYZ=      .0000  XYZ=      .0000
 Hexadecapole moment (Debye-Ang**3):
 XXXX=  -133.9918 YYYY=  -111.3392 ZZZZ=   -22.4856 XXXY=     5.8769
 XXXZ=      .0000 YYYX=     -.8579 YYYZ=      .0000 ZZZX=      .0000
 ZZZY=      .0000 XXYY=   -50.2961 XXZZ=   -28.2585 YYZZ=   -26.3133
 XXYZ=      .0000 YYXZ=      .0000 ZZXY=     -.3200
 N-N= 1.698288422228D+02 E-N=-9.385668167271D+02  KE= 2.556344737145D+02
 Symmetry A'   KE= 2.461915651458D+02
 Symmetry A"   KE= 9.442908568680D+00
 ***** Axes restored to original set *****
 -------------------------------------------------------------------
 Center     Atomic                   Forces (Hartrees/Bohr)
 Number     Number              X              Y              Z
 -------------------------------------------------------------------
    1          7           -.090167229    -.040079955     .000000000
    2          7           -.037189062     .091964451     .000000000
    3          7            .052714514     .021749281     .000000000
    4          1            .009283829     .012234035     .000000000
    5          7            .007773828    -.073273853     .000000000
    6          6            .054353085    -.011034865     .000000000
    7          1            .003231036    -.001559095     .000000000
 -------------------------------------------------------------------
 Cartesian Forces:  Max      .091964451 RMS      .038780897

 GradGradGradGradGradGradGradGradGradGradGradGradGradGradGradGradGradGrad
 Berny optimization.
 Internal  Forces:  Max      .088510130 RMS      .030225093
 Search for a local minimum.
 Step number   1 out of a maximum of  36
 All quantities printed in internal units (Hartrees-Bohrs-Radians)
 Second derivative matrix not updated -- first step.
     Eigenvalues ---     .02505    .02639    .02674    .02834    .16000
     Eigenvalues ---     .16000    .22605    .24688    .37515    .48737
     Eigenvalues ---     .50885    .56605    .58506    .66912    .78894
     Eigenvalues --- 1000.000001000.000001000.000001000.000001000.00000
     Eigenvalues --- 1000.000001000.000001000.000001000.000001000.00000
     Eigenvalues --- 1000.00000
 RFO step:  Lambda=-3.41271057D-02.
 Linear search not attempted -- first point.
 Iteration  1 RMS(Cart)=   .04373870 RMS(Int)=   .00026124
 Iteration  2 RMS(Cart)=   .00016860 RMS(Int)=   .00017968
 Iteration  3 RMS(Cart)=   .00000004 RMS(Int)=   .00017968
 Variable       Old X    -DE/DX   Delta X   Delta X   Delta X     New X
                                 (Linear)    (Quad)   (Total)
    R1        2.36623    .08851    .00000    .10718    .10743   2.47366
    R2        2.53474    .06899    .00000    .11739    .11753   2.65227
    R3        2.50608    .07235    .00000    .11405    .11407   2.62015
    R4        1.87862    .01535    .00000    .02943    .02943   1.90805
    R5        2.51367    .04547    .00000    .06720    .06695   2.58063
    R6        2.43647    .05741    .00000    .07462    .07445   2.51092
    R7        2.01777    .00358    .00000    .00874    .00874   2.02652
    A1        1.94380   -.01203    .00000   -.02210   -.02164   1.92216
    A2        1.86179   -.00535    .00000   -.00339   -.00308   1.85872
    A3        2.10759   -.00190    .00000   -.00103   -.00091   2.10668
    A4        1.88535    .00479    .00000    .00712    .00688   1.89223
    A5        2.29025   -.00288    .00000   -.00609   -.00596   2.28428
    A6        1.84604    .00578    .00000    .01329    .01317   1.85921
    A7        1.88780    .00682    .00000    .00509    .00468   1.89247
    A8        2.18241   -.00315    .00000   -.00118   -.00097   2.18143
    A9        2.21298   -.00368    .00000   -.00391   -.00370   2.20928
    D1         .00000    .00000    .00000    .00000    .00000    .00000
    D2         .00000    .00000    .00000    .00000    .00000    .00000
    D3        3.14159    .00000    .00000    .00000    .00000   3.14159
    D4         .00000    .00000    .00000    .00000    .00000    .00000
    D5         .00000    .00000    .00000    .00000    .00000    .00000
    D6        3.14159    .00000    .00000    .00000    .00000   3.14159
    D7        3.14159    .00000    .00000    .00000    .00000   3.14159
    D8         .00000    .00000    .00000    .00000    .00000    .00000
    D9         .00000    .00000    .00000    .00000    .00000    .00000
   D10        3.14159    .00000    .00000    .00000    .00000   3.14159
         Item               Value     Threshold  Converged?
 Maximum Force             .088510      .000450     NO 
 RMS     Force             .030225      .000300     NO 
 Maximum Displacement      .124369      .001800     NO 
 RMS     Displacement      .043746      .001200     NO 
 Predicted change in Energy=-1.621870D-02
 GradGradGradGradGradGradGradGradGradGradGradGradGradGradGradGradGradGrad

                          Input orientation:                          
 ---------------------------------------------------------------------
 Center     Atomic     Atomic              Coordinates (Angstroms)
 Number     Number      Type              X           Y           Z
 ---------------------------------------------------------------------
    1          7             0       -1.189107    -.271314     .000000
    2          7             0        -.712446     .947822     .000000
    3          7             0         .669095     .830400     .000000
    4          1             0        1.256314    1.651778     .000000
    5          7             0        -.137704   -1.201058     .000000
    6          6             0         .989249    -.497151     .000000
    7          1             0        1.987507    -.888932     .000000
 ---------------------------------------------------------------------
                    Distance matrix (angstroms):
                    1          2          3          4          5
     1  N     .000000
     2  N    1.309006    .000000
     3  N    2.160252   1.386522    .000000
     4  H    3.111007   2.090831   1.009696    .000000
     5  N    1.403521   2.224412   2.185806   3.175210    .000000
     6  C    2.190031   2.232423   1.365610   2.165460   1.328724
     7  H    3.236097   3.265488   2.166637   2.643832   2.148009
                    6          7
     6  C     .000000
     7  H    1.072386    .000000
 Stoichiometry    CH2N4
 Framework group  CS[SG(CH2N4)]
 Deg. of freedom   11
 Full point group                 CS      NOp   2
 Largest Abelian subgroup         CS      NOp   2
 Largest concise Abelian subgroup C1      NOp   1
                         Standard orientation:                         
 ---------------------------------------------------------------------
 Center     Atomic     Atomic              Coordinates (Angstroms)
 Number     Number      Type              X           Y           Z
 ---------------------------------------------------------------------
    1          7             0        -.741517    -.953664     .000000
    2          7             0       -1.143994     .291931     .000000
    3          7             0         .000000    1.075335     .000000
    4          1             0        -.065150    2.082928     .000000
    5          7             0         .660945   -1.008147     .000000
    6          6             0        1.088036     .250067     .000000
    7          1             0        2.108897     .578479     .000000
 ---------------------------------------------------------------------
 Rotational constants (GHZ):     10.1715736      9.9474575      5.0291336
 Isotopes: N-14,N-14,N-14,H-1,N-14,C-12,H-1
 Standard basis: 3-21G* (6D, 7F)
 There are    39 symmetry adapted basis functions of A'  symmetry.
 There are    10 symmetry adapted basis functions of A"  symmetry.
 Crude estimate of integral set expansion from redundant integrals=1.000.
 Integral buffers will be    262144 words long.
 Raffenetti 2 integral format.
 Two-electron integral symmetry is turned on.
    49 basis functions       81 primitive gaussians
    18 alpha electrons       18 beta electrons
       nuclear repulsion energy       163.7515686473 Hartrees.
 One-electron integrals computed using PRISM.
 NBasis=    49 RedAO= T  NBF=    39    10
 NBsUse=    49 1.00D-04 NBFU=    39    10
 Initial guess read from the read-write file:
 Initial guess orbital symmetries:
       Occupied  (A') (A') (A') (A') (A') (A') (A') (A') (A') (A')
                 (A') (A") (A') (A') (A") (A") (A') (A')
       Virtual   (A") (A") (A') (A') (A') (A') (A') (A') (A') (A")
                 (A') (A') (A') (A') (A") (A') (A") (A') (A') (A")
                 (A') (A") (A') (A') (A') (A') (A') (A') (A') (A')
                 (A')
 Requested convergence on RMS density matrix=1.00D-08 within  64 cycles.
 Requested convergence on MAX density matrix=1.00D-06.
 Keep R1 and R2 integrals in memory in canonical form, NReq=     1914419.
 Integral accuracy reduced to 1.0D-05 until final iterations.
 Initial convergence to 1.0D-05 achieved.  Increase integral accuracy.
 SCF Done:  E(RB+HF-LYP) =  -256.785431372     A.U. after   14 cycles
             Convg  =     .5684D-08             -V/T =  2.0075
             S**2   =    .0000
 ***** Axes restored to original set *****
 -------------------------------------------------------------------
 Center     Atomic                   Forces (Hartrees/Bohr)
 Number     Number              X              Y              Z
 -------------------------------------------------------------------
    1          7           -.014038458    -.006172520     .000000000
    2          7           -.010945584     .027816938     .000000000
    3          7            .016648865    -.004899961     .000000000
    4          1            .000471889     .002324068     .000000000
    5          7            .013715371    -.023652091     .000000000
    6          6           -.005985509     .005131558     .000000000
    7          1            .000133426    -.000547992     .000000000
 -------------------------------------------------------------------
 Cartesian Forces:  Max      .027816938 RMS      .010340845

 GradGradGradGradGradGradGradGradGradGradGradGradGradGradGradGradGradGrad
 Berny optimization.
 Internal  Forces:  Max      .020945708 RMS      .007036841
 Search for a local minimum.
 Step number   2 out of a maximum of  36
 All quantities printed in internal units (Hartrees-Bohrs-Radians)
 Update second derivatives using information from points  1  2
 Trust test= 1.20D+00 RLast= 2.24D-01 DXMaxT set to 4.24D-01
     Eigenvalues ---     .02504    .02634    .02676    .02834    .15998
     Eigenvalues ---     .16004    .22584    .24455    .37521    .47360
     Eigenvalues ---     .48994    .54190    .58159    .68973    .75432
     Eigenvalues --- 1000.000001000.000001000.000001000.000001000.00000
     Eigenvalues --- 1000.000001000.000001000.000001000.000001000.00000
     Eigenvalues --- 1000.00000
 RFO step:  Lambda=-2.10460983D-03.
 Quartic linear search produced a step of   .29033.
 Iteration  1 RMS(Cart)=   .01926390 RMS(Int)=   .00029428
 Iteration  2 RMS(Cart)=   .00030879 RMS(Int)=   .00004694
 Iteration  3 RMS(Cart)=   .00000004 RMS(Int)=   .00004694
 Variable       Old X    -DE/DX   Delta X   Delta X   Delta X     New X
                                 (Linear)    (Quad)   (Total)
    R1        2.47366    .02095    .03119    .01395    .04520   2.51887
    R2        2.65227    .01841    .03412    .02142    .05559   2.70786
    R3        2.62015    .01433    .03312    .00901    .04212   2.66226
    R4        1.90805    .00216    .00854    .00029    .00884   1.91689
    R5        2.58063    .00300    .01944   -.01021    .00916   2.58979
    R6        2.51092    .00231    .02162   -.01299    .00858   2.51951
    R7        2.02652    .00032    .00254   -.00038    .00216   2.02868
    A1        1.92216    .00370   -.00628    .03763    .03147   1.95362
    A2        1.85872   -.00888   -.00089   -.03340   -.03423   1.82449
    A3        2.10668   -.00225   -.00026   -.00965   -.00987   2.09680
    A4        1.89223    .00265    .00200    .00411    .00603   1.89826
    A5        2.28428   -.00040   -.00173    .00553    .00384   2.28812
    A6        1.85921   -.00688    .00382   -.04376   -.03995   1.81926
    A7        1.89247    .00940    .00136    .03542    .03668   1.92915
    A8        2.18143   -.00424   -.00028   -.01413   -.01436   2.16707
    A9        2.20928   -.00517   -.00108   -.02129   -.02232   2.18696
    D1         .00000    .00000    .00000    .00000    .00000    .00000
    D2         .00000    .00000    .00000    .00000    .00000    .00000
    D3        3.14159    .00000    .00000    .00000    .00000   3.14159
    D4         .00000    .00000    .00000    .00000    .00000    .00000
    D5         .00000    .00000    .00000    .00000    .00000    .00000
    D6        3.14159    .00000    .00000    .00000    .00000   3.14159
    D7        3.14159    .00000    .00000    .00000    .00000   3.14159
    D8         .00000    .00000    .00000    .00000    .00000    .00000
    D9         .00000    .00000    .00000    .00000    .00000    .00000
   D10        3.14159    .00000    .00000    .00000    .00000   3.14159
         Item               Value     Threshold  Converged?
 Maximum Force             .020946      .000450     NO 
 RMS     Force             .007037      .000300     NO 
 Maximum Displacement      .067777      .001800     NO 
 RMS     Displacement      .019276      .001200     NO 
 Predicted change in Energy=-2.209878D-03
 GradGradGradGradGradGradGradGradGradGradGradGradGradGradGradGradGradGrad

                          Input orientation:                          
 ---------------------------------------------------------------------
 Center     Atomic     Atomic              Coordinates (Angstroms)
 Number     Number      Type              X           Y           Z
 ---------------------------------------------------------------------
    1          7             0       -1.178192    -.272394     .000000
    2          7             0        -.716740     .978108     .000000
    3          7             0         .685056     .837712     .000000
    4          1             0        1.279244    1.659839     .000000
    5          7             0        -.116481   -1.234726     .000000
    6          6             0         .994343    -.497389     .000000
    7          1             0        1.995755    -.884223     .000000
 ---------------------------------------------------------------------
                    Distance matrix (angstroms):
                    1          2          3          4          5
     1  N     .000000
     2  N    1.332926    .000000
     3  N    2.168877   1.408809    .000000
     4  H    3.126102   2.109197   1.014373    .000000
     5  N    1.432938   2.292803   2.222040   3.213496    .000000
     6  C    2.184154   2.259402   1.370457   2.175959   1.333265
     7  H    3.232379   3.290275   2.164022   2.643036   2.141120
                    6          7
     6  C     .000000
     7  H    1.073530    .000000
 Stoichiometry    CH2N4
 Framework group  CS[SG(CH2N4)]
 Deg. of freedom   11
 Full point group                 CS      NOp   2
 Largest Abelian subgroup         CS      NOp   2
 Largest concise Abelian subgroup C1      NOp   1
                         Standard orientation:                         
 ---------------------------------------------------------------------
 Center     Atomic     Atomic              Coordinates (Angstroms)
 Number     Number      Type              X           Y           Z
 ---------------------------------------------------------------------
    1          7             0        -.739440    -.954986     .000000
    2          7             0       -1.173960     .305127     .000000
    3          7             0         .000000    1.083949     .000000
    4          1             0        -.060563    2.096512     .000000
    5          7             0         .691652   -1.027704     .000000
    6          6             0        1.084677     .246316     .000000
    7          1             0        2.104739     .580891     .000000
 ---------------------------------------------------------------------
 Rotational constants (GHZ):     10.0420304      9.6135705      4.9115653
 Isotopes: N-14,N-14,N-14,H-1,N-14,C-12,H-1
 Standard basis: 3-21G* (6D, 7F)
 There are    39 symmetry adapted basis functions of A'  symmetry.
 There are    10 symmetry adapted basis functions of A"  symmetry.
 Crude estimate of integral set expansion from redundant integrals=1.000.
 Integral buffers will be    262144 words long.
 Raffenetti 2 integral format.
 Two-electron integral symmetry is turned on.
    49 basis functions       81 primitive gaussians
    18 alpha electrons       18 beta electrons
       nuclear repulsion energy       161.8641893611 Hartrees.
 One-electron integrals computed using PRISM.
 NBasis=    49 RedAO= T  NBF=    39    10
 NBsUse=    49 1.00D-04 NBFU=    39    10
 Initial guess read from the read-write file:
 Initial guess orbital symmetries:
       Occupied  (A') (A') (A') (A') (A') (A') (A') (A') (A') (A')
                 (A') (A') (A") (A') (A") (A") (A') (A')
       Virtual   (A") (A") (A') (A') (A') (A') (A') (A') (A') (A')
                 (A") (A') (A') (A') (A") (A') (A") (A') (A') (A")
                 (A') (A") (A') (A') (A') (A') (A') (A') (A') (A')
                 (A')
 Requested convergence on RMS density matrix=1.00D-08 within  64 cycles.
 Requested convergence on MAX density matrix=1.00D-06.
 Keep R1 and R2 integrals in memory in canonical form, NReq=     1914419.
 Integral accuracy reduced to 1.0D-05 until final iterations.
 Initial convergence to 1.0D-05 achieved.  Increase integral accuracy.
 SCF Done:  E(RB+HF-LYP) =  -256.786872233     A.U. after   13 cycles
             Convg  =     .9382D-08             -V/T =  2.0082
             S**2   =    .0000
 ***** Axes restored to original set *****
 -------------------------------------------------------------------
 Center     Atomic                   Forces (Hartrees/Bohr)
 Number     Number              X              Y              Z
 -------------------------------------------------------------------
    1          7           -.015397574     .001415573     .000000000
    2          7            .000632941    -.008443993     .000000000
    3          7            .009064764    -.005729242     .000000000
    4          1           -.000093544    -.001592616     .000000000
    5          7            .007251292     .008342547     .000000000
    6          6           -.001992323     .005600521     .000000000
    7          1            .000534444     .000407209     .000000000
 -------------------------------------------------------------------
 Cartesian Forces:  Max      .015397574 RMS      .005283830

 GradGradGradGradGradGradGradGradGradGradGradGradGradGradGradGradGradGrad
 Berny optimization.
 Internal  Forces:  Max      .013219897 RMS      .004426362
 Search for a local minimum.
 Step number   3 out of a maximum of  36
 All quantities printed in internal units (Hartrees-Bohrs-Radians)
 Update second derivatives using information from points  1  2  3
 Trust test= 6.52D-01 RLast= 1.14D-01 DXMaxT set to 4.24D-01
     Eigenvalues ---     .02506    .02635    .02678    .02831    .16001
     Eigenvalues ---     .16042    .21330    .28429    .37406    .38181
     Eigenvalues ---     .48905    .53402    .62355    .68818    .79799
     Eigenvalues --- 1000.000001000.000001000.000001000.000001000.00000
     Eigenvalues --- 1000.000001000.000001000.000001000.000001000.00000
     Eigenvalues --- 1000.00000
 RFO step:  Lambda=-9.42651696D-04.
 Quartic linear search produced a step of  -.19942.
 Iteration  1 RMS(Cart)=   .01099952 RMS(Int)=   .00011251
 Iteration  2 RMS(Cart)=   .00008779 RMS(Int)=   .00004317
 Iteration  3 RMS(Cart)=   .00000000 RMS(Int)=   .00004317
 Variable       Old X    -DE/DX   Delta X   Delta X   Delta X     New X
                                 (Linear)    (Quad)   (Total)
    R1        2.51887   -.00214   -.00901    .01661    .00765   2.52652
    R2        2.70786    .00388   -.01109    .02824    .01720   2.72507
    R3        2.66226    .00601   -.00840    .02489    .01647   2.67874
    R4        1.91689   -.00135   -.00176    .00107   -.00069   1.91620
    R5        2.58979   -.01120   -.00183   -.01303   -.01492   2.57487
    R6        2.51951   -.00177   -.00171    .00057   -.00116   2.51834
    R7        2.02868    .00035   -.00043    .00155    .00112   2.02980
    A1        1.95362   -.01322   -.00628   -.02723   -.03338   1.92024
    A2        1.82449    .00764    .00683    .01361    .02047   1.84496
    A3        2.09680    .00172    .00197    .00434    .00635   2.10316
    A4        1.89826   -.00180   -.00120   -.00586   -.00715   1.89111
    A5        2.28812    .00008   -.00077    .00152    .00080   2.28892
    A6        1.81926    .00893    .00797    .01275    .02073   1.83998
    A7        1.92915   -.00154   -.00731    .00673   -.00067   1.92848
    A8        2.16707    .00019    .00286   -.00480   -.00190   2.16517
    A9        2.18696    .00135    .00445   -.00193    .00257   2.18953
    D1         .00000    .00000    .00000    .00000    .00000    .00000
    D2         .00000    .00000    .00000    .00000    .00000    .00000
    D3        3.14159    .00000    .00000    .00000    .00000   3.14159
    D4         .00000    .00000    .00000    .00000    .00000    .00000
    D5         .00000    .00000    .00000    .00000    .00000    .00000
    D6        3.14159    .00000    .00000    .00000    .00000   3.14159
    D7        3.14159    .00000    .00000    .00000    .00000   3.14159
    D8         .00000    .00000    .00000    .00000    .00000    .00000
    D9         .00000    .00000    .00000    .00000    .00000    .00000
   D10        3.14159    .00000    .00000    .00000    .00000   3.14159
         Item               Value     Threshold  Converged?
 Maximum Force             .013220      .000450     NO 
 RMS     Force             .004426      .000300     NO 
 Maximum Displacement      .042458      .001800     NO 
 RMS     Displacement      .011014      .001200     NO 
 Predicted change in Energy=-5.661133D-04
 GradGradGradGradGradGradGradGradGradGradGradGradGradGradGradGradGradGrad

                          Input orientation:                          
 ---------------------------------------------------------------------
 Center     Atomic     Atomic              Coordinates (Angstroms)
 Number     Number      Type              X           Y           Z
 ---------------------------------------------------------------------
    1          7             0       -1.199453    -.275712     .000000
    2          7             0        -.717215     .971264     .000000
    3          7             0         .693940     .837010     .000000
    4          1             0        1.289049    1.658019     .000000
    5          7             0        -.113851   -1.224898     .000000
    6          6             0         .998553    -.491065     .000000
    7          1             0        2.000408    -.878394     .000000
 ---------------------------------------------------------------------
                    Distance matrix (angstroms):
                    1          2          3          4          5
     1  N     .000000
     2  N    1.336974    .000000
     3  N    2.196152   1.417526    .000000
     4  H    3.151500   2.120549   1.014007    .000000
     5  N    1.442043   2.277537   2.214496   3.206141    .000000
     6  C    2.208530   2.254388   1.362561   2.168628   1.332649
     7  H    3.256123   3.287355   2.156263   2.634278   2.142465
                    6          7
     6  C     .000000
     7  H    1.074121    .000000
 Stoichiometry    CH2N4
 Framework group  CS[SG(CH2N4)]
 Deg. of freedom   11
 Full point group                 CS      NOp   2
 Largest Abelian subgroup         CS      NOp   2
 Largest concise Abelian subgroup C1      NOp   1
                         Standard orientation:                         
 ---------------------------------------------------------------------
 Center     Atomic     Atomic              Coordinates (Angstroms)
 Number     Number      Type              X           Y           Z
 ---------------------------------------------------------------------
    1          7             0        -.744795    -.977125     .000000
    2          7             0       -1.171031     .290086     .000000
    3          7             0         .000000    1.088878     .000000
    4          1             0        -.067149    2.100659     .000000
    5          7             0         .696798   -1.013136     .000000
    6          6             0        1.083185     .262269     .000000
    7          1             0        2.101225     .604807     .000000
 ---------------------------------------------------------------------
 Rotational constants (GHZ):      9.8972933      9.6732732      4.8920006
 Isotopes: N-14,N-14,N-14,H-1,N-14,C-12,H-1
 Standard basis: 3-21G* (6D, 7F)
 There are    39 symmetry adapted basis functions of A'  symmetry.
 There are    10 symmetry adapted basis functions of A"  symmetry.
 Crude estimate of integral set expansion from redundant integrals=1.000.
 Integral buffers will be    262144 words long.
 Raffenetti 2 integral format.
 Two-electron integral symmetry is turned on.
    49 basis functions       81 primitive gaussians
    18 alpha electrons       18 beta electrons
       nuclear repulsion energy       161.5428883278 Hartrees.
 One-electron integrals computed using PRISM.
 NBasis=    49 RedAO= T  NBF=    39    10
 NBsUse=    49 1.00D-04 NBFU=    39    10
 Initial guess read from the read-write file:
 Initial guess orbital symmetries:
       Occupied  (A') (A') (A') (A') (A') (A') (A') (A') (A') (A')
                 (A') (A') (A") (A') (A") (A") (A') (A')
       Virtual   (A") (A") (A') (A') (A') (A') (A') (A') (A') (A')
                 (A") (A') (A') (A') (A") (A') (A") (A') (A') (A")
                 (A') (A") (A') (A') (A') (A') (A') (A') (A') (A')
                 (A')
 Requested convergence on RMS density matrix=1.00D-08 within  64 cycles.
 Requested convergence on MAX density matrix=1.00D-06.
 Keep R1 and R2 integrals in memory in canonical form, NReq=     1914419.
 Integral accuracy reduced to 1.0D-05 until final iterations.
 Initial convergence to 1.0D-05 achieved.  Increase integral accuracy.
 SCF Done:  E(RB+HF-LYP) =  -256.787250729     A.U. after   12 cycles
             Convg  =     .4937D-08             -V/T =  2.0084
             S**2   =    .0000
 ***** Axes restored to original set *****
 -------------------------------------------------------------------
 Center     Atomic                   Forces (Hartrees/Bohr)
 Number     Number              X              Y              Z
 -------------------------------------------------------------------
    1          7            .007010835     .005758794     .000000000
    2          7           -.002382531    -.001187606     .000000000
    3          7           -.001422269    -.004158177     .000000000
    4          1           -.001154071    -.000590113     .000000000
    5          7            .003965892    -.000737713     .000000000
    6          6           -.005767983     .001331759     .000000000
    7          1           -.000249873    -.000416945     .000000000
 -------------------------------------------------------------------
 Cartesian Forces:  Max      .007010835 RMS      .002777013

 GradGradGradGradGradGradGradGradGradGradGradGradGradGradGradGradGradGrad
 Berny optimization.
 Internal  Forces:  Max      .005694268 RMS      .002212486
 Search for a local minimum.
 Step number   4 out of a maximum of  36
 All quantities printed in internal units (Hartrees-Bohrs-Radians)
 Update second derivatives using information from points  1  2  3  4
 Trust test= 6.69D-01 RLast= 5.40D-02 DXMaxT set to 4.24D-01
     Eigenvalues ---     .02505    .02632    .02682    .02833    .16001
     Eigenvalues ---     .16024    .22730    .27472    .37556    .47777
     Eigenvalues ---     .48921    .54136    .60136    .73829    .81506
     Eigenvalues --- 1000.000001000.000001000.000001000.000001000.00000
     Eigenvalues --- 1000.000001000.000001000.000001000.000001000.00000
     Eigenvalues --- 1000.00000
 RFO step:  Lambda=-9.55460888D-05.
 Quartic linear search produced a step of  -.24770.
 Iteration  1 RMS(Cart)=   .00371857 RMS(Int)=   .00001195
 Iteration  2 RMS(Cart)=   .00000659 RMS(Int)=   .00000911
 Iteration  3 RMS(Cart)=   .00000000 RMS(Int)=   .00000911
 Variable       Old X    -DE/DX   Delta X   Delta X   Delta X     New X
                                 (Linear)    (Quad)   (Total)
    R1        2.52652   -.00526   -.00189   -.00456   -.00646   2.52005
    R2        2.72507   -.00013   -.00426    .00233   -.00194   2.72313
    R3        2.67874   -.00240   -.00408    .00030   -.00378   2.67496
    R4        1.91620   -.00115    .00017   -.00225   -.00208   1.91411
    R5        2.57487   -.00220    .00370   -.00760   -.00390   2.57097
    R6        2.51834   -.00569    .00029   -.00617   -.00587   2.51247
    R7        2.02980   -.00008   -.00028    .00014   -.00014   2.02966
    A1        1.92024    .00446    .00827   -.00039    .00786   1.92810
    A2        1.84496   -.00403   -.00507   -.00249   -.00757   1.83739
    A3        2.10316   -.00148   -.00157   -.00240   -.00398   2.09918
    A4        1.89111    .00184    .00177    .00269    .00448   1.89559
    A5        2.28892   -.00036   -.00020   -.00029   -.00050   2.28842
    A6        1.83998   -.00334   -.00513    .00004   -.00510   1.83488
    A7        1.92848    .00107    .00017    .00015    .00034   1.92882
    A8        2.16517   -.00005    .00047    .00112    .00158   2.16675
    A9        2.18953   -.00103   -.00064   -.00127   -.00192   2.18761
    D1         .00000    .00000    .00000    .00000    .00000    .00000
    D2         .00000    .00000    .00000    .00000    .00000    .00000
    D3        3.14159    .00000    .00000    .00000    .00000   3.14159
    D4         .00000    .00000    .00000    .00000    .00000    .00000
    D5         .00000    .00000    .00000    .00000    .00000    .00000
    D6        3.14159    .00000    .00000    .00000    .00000   3.14159
    D7        3.14159    .00000    .00000    .00000    .00000   3.14159
    D8         .00000    .00000    .00000    .00000    .00000    .00000
    D9         .00000    .00000    .00000    .00000    .00000    .00000
   D10        3.14159    .00000    .00000    .00000    .00000   3.14159
         Item               Value     Threshold  Converged?
 Maximum Force             .005694      .000450     NO 
 RMS     Force             .002212      .000300     NO 
 Maximum Displacement      .012420      .001800     NO 
 RMS     Displacement      .003719      .001200     NO 
 Predicted change in Energy=-9.375934D-05
 GradGradGradGradGradGradGradGradGradGradGradGradGradGradGradGradGradGrad

                          Input orientation:                          
 ---------------------------------------------------------------------
 Center     Atomic     Atomic              Coordinates (Angstroms)
 Number     Number      Type              X           Y           Z
 ---------------------------------------------------------------------
    1          7             0       -1.190789    -.272140     .000000
    2          7             0        -.715150     .973706     .000000
    3          7             0         .693569     .835052     .000000
    4          1             0        1.287442    1.655596     .000000
    5          7             0        -.109329   -1.224492     .000000
    6          6             0         .999339    -.490642     .000000
    7          1             0        2.000987    -.878304     .000000
 ---------------------------------------------------------------------
                    Distance matrix (angstroms):
                    1          2          3          4          5
     1  N     .000000
     2  N    1.333553    .000000
     3  N    2.185562   1.415527    .000000
     4  H    3.139712   2.115502   1.012905    .000000
     5  N    1.441017   2.280152   2.210513   3.200918    .000000
     6  C    2.201001   2.254726   1.360500   2.165489   1.329542
     7  H    3.248826   3.287452   2.155209   2.632450   2.138523
                    6          7
     6  C     .000000
     7  H    1.074048    .000000
 Stoichiometry    CH2N4
 Framework group  CS[SG(CH2N4)]
 Deg. of freedom   11
 Full point group                 CS      NOp   2
 Largest Abelian subgroup         CS      NOp   2
 Largest concise Abelian subgroup C1      NOp   1
                         Standard orientation:                         
 ---------------------------------------------------------------------
 Center     Atomic     Atomic              Coordinates (Angstroms)
 Number     Number      Type              X           Y           Z
 ---------------------------------------------------------------------
    1          7             0        -.742858    -.970894     .000000
    2          7             0       -1.172541     .291539     .000000
    3          7             0         .000000    1.084549     .000000
    4          1             0        -.067079    2.095230     .000000
    5          7             0         .697544   -1.013021     .000000
    6          6             0        1.081961     .259734     .000000
    7          1             0        2.100299     .601153     .000000
 ---------------------------------------------------------------------
 Rotational constants (GHZ):      9.9659019      9.6725601      4.9085201
 Isotopes: N-14,N-14,N-14,H-1,N-14,C-12,H-1
 Standard basis: 3-21G* (6D, 7F)
 There are    39 symmetry adapted basis functions of A'  symmetry.
 There are    10 symmetry adapted basis functions of A"  symmetry.
 Crude estimate of integral set expansion from redundant integrals=1.000.
 Integral buffers will be    262144 words long.
 Raffenetti 2 integral format.
 Two-electron integral symmetry is turned on.
    49 basis functions       81 primitive gaussians
    18 alpha electrons       18 beta electrons
       nuclear repulsion energy       161.8166189146 Hartrees.
 One-electron integrals computed using PRISM.
 NBasis=    49 RedAO= T  NBF=    39    10
 NBsUse=    49 1.00D-04 NBFU=    39    10
 Initial guess read from the read-write file:
 Initial guess orbital symmetries:
       Occupied  (A') (A') (A') (A') (A') (A') (A') (A') (A') (A')
                 (A') (A') (A") (A') (A") (A") (A') (A')
       Virtual   (A") (A") (A') (A') (A') (A') (A') (A') (A') (A')
                 (A") (A') (A') (A') (A") (A') (A") (A') (A') (A")
                 (A") (A') (A') (A') (A') (A') (A') (A') (A') (A')
                 (A')
 Requested convergence on RMS density matrix=1.00D-08 within  64 cycles.
 Requested convergence on MAX density matrix=1.00D-06.
 Keep R1 and R2 integrals in memory in canonical form, NReq=     1914419.
 SCF Done:  E(RB+HF-LYP) =  -256.787359405     A.U. after    9 cycles
             Convg  =     .8083D-08             -V/T =  2.0082
             S**2   =    .0000
 ***** Axes restored to original set *****
 -------------------------------------------------------------------
 Center     Atomic                   Forces (Hartrees/Bohr)
 Number     Number              X              Y              Z
 -------------------------------------------------------------------
    1          7            .000657095     .003126729     .000000000
    2          7           -.000973308    -.002734257     .000000000
    3          7            .001312184    -.000679837     .000000000
    4          1           -.000223375    -.000059365     .000000000
    5          7            .001812719    -.000708006     .000000000
    6          6           -.002531440     .001166315     .000000000
    7          1           -.000053875    -.000111580     .000000000
 -------------------------------------------------------------------
 Cartesian Forces:  Max      .003126729 RMS      .001242888

 GradGradGradGradGradGradGradGradGradGradGradGradGradGradGradGradGradGrad
 Berny optimization.
 Internal  Forces:  Max      .002563232 RMS      .000695819
 Search for a local minimum.
 Step number   5 out of a maximum of  36
 All quantities printed in internal units (Hartrees-Bohrs-Radians)
 Update second derivatives using information from points  1  2  3  4  5

 Trust test= 1.16D+00 RLast= 1.74D-02 DXMaxT set to 4.24D-01
     Eigenvalues ---     .02505    .02632    .02681    .02832    .15784
     Eigenvalues ---     .16008    .22539    .29082    .37553    .47046
     Eigenvalues ---     .48223    .51095    .56462    .65448    .78243
     Eigenvalues --- 1000.000001000.000001000.000001000.000001000.00000
     Eigenvalues --- 1000.000001000.000001000.000001000.000001000.00000
     Eigenvalues --- 1000.00000
 RFO step:  Lambda=-2.75501329D-05.
 Quartic linear search produced a step of   .19030.
 Iteration  1 RMS(Cart)=   .00159343 RMS(Int)=   .00000251
 Iteration  2 RMS(Cart)=   .00000242 RMS(Int)=   .00000094
 Iteration  3 RMS(Cart)=   .00000000 RMS(Int)=   .00000094
 Variable       Old X    -DE/DX   Delta X   Delta X   Delta X     New X
                                 (Linear)    (Quad)   (Total)
    R1        2.52005   -.00256   -.00123   -.00323   -.00446   2.51559
    R2        2.72313    .00068   -.00037    .00264    .00227   2.72540
    R3        2.67496    .00002   -.00072    .00118    .00046   2.67542
    R4        1.91411   -.00018   -.00040   -.00034   -.00074   1.91337
    R5        2.57097   -.00128   -.00074   -.00306   -.00380   2.56717
    R6        2.51247   -.00131   -.00112   -.00200   -.00311   2.50936
    R7        2.02966   -.00001   -.00003    .00006    .00003   2.02969
    A1        1.92810    .00026    .00149   -.00070    .00079   1.92889
    A2        1.83739    .00026   -.00144    .00234    .00090   1.83828
    A3        2.09918    .00013   -.00076    .00089    .00014   2.09931
    A4        1.89559   -.00052    .00085   -.00349   -.00264   1.89295
    A5        2.28842    .00040   -.00010    .00260    .00250   2.29092
    A6        1.83488   -.00078   -.00097   -.00256   -.00353   1.83135
    A7        1.92882    .00079    .00006    .00441    .00448   1.93330
    A8        2.16675   -.00026    .00030   -.00133   -.00103   2.16572
    A9        2.18761   -.00052   -.00036   -.00308   -.00345   2.18416
    D1         .00000    .00000    .00000    .00000    .00000    .00000
    D2         .00000    .00000    .00000    .00000    .00000    .00000
    D3        3.14159    .00000    .00000    .00000    .00000   3.14159
    D4         .00000    .00000    .00000    .00000    .00000    .00000
    D5         .00000    .00000    .00000    .00000    .00000    .00000
    D6        3.14159    .00000    .00000    .00000    .00000   3.14159
    D7        3.14159    .00000    .00000    .00000    .00000   3.14159
    D8         .00000    .00000    .00000    .00000    .00000    .00000
    D9         .00000    .00000    .00000    .00000    .00000    .00000
   D10        3.14159    .00000    .00000    .00000    .00000   3.14159
         Item               Value     Threshold  Converged?
 Maximum Force             .002563      .000450     NO 
 RMS     Force             .000696      .000300     NO 
 Maximum Displacement      .004169      .001800     NO 
 RMS     Displacement      .001594      .001200     NO 
 Predicted change in Energy=-1.661369D-05
 GradGradGradGradGradGradGradGradGradGradGradGradGradGradGradGradGradGrad

                          Input orientation:                          
 ---------------------------------------------------------------------
 Center     Atomic     Atomic              Coordinates (Angstroms)
 Number     Number      Type              X           Y           Z
 ---------------------------------------------------------------------
    1          7             0       -1.190385    -.271824     .000000
    2          7             0        -.715553     .971803     .000000
    3          7             0         .693530     .834348     .000000
    4          1             0        1.286572    1.655010     .000000
    5          7             0        -.108806   -1.225860     .000000
    6          6             0         .996502    -.489926     .000000
    7          1             0        1.997877    -.878338     .000000
 ---------------------------------------------------------------------
                    Distance matrix (angstroms):
                    1          2          3          4          5
     1  N     .000000
     2  N    1.331192    .000000
     3  N    2.184662   1.415771    .000000
     4  H    3.138152   2.115485   1.012514    .000000
     5  N    1.442220   2.279883   2.210927   3.201014    .000000
     6  C    2.197735   2.251173   1.358489   2.164460   1.327895
     7  H    3.245438   3.284162   2.152815   2.631312   2.135154
                    6          7
     6  C     .000000
     7  H    1.074065    .000000
 Stoichiometry    CH2N4
 Framework group  CS[SG(CH2N4)]
 Deg. of freedom   11
 Full point group                 CS      NOp   2
 Largest Abelian subgroup         CS      NOp   2
 Largest concise Abelian subgroup C1      NOp   1
                         Standard orientation:                         
 ---------------------------------------------------------------------
 Center     Atomic     Atomic              Coordinates (Angstroms)
 Number     Number      Type              X           Y           Z
 ---------------------------------------------------------------------
    1          7             0        -.742398    -.969889     .000000
    2          7             0       -1.171757     .290160     .000000
    3          7             0         .000000    1.084763     .000000
    4          1             0        -.068171    2.094980     .000000
    5          7             0         .699187   -1.012697     .000000
    6          6             0        1.079210     .259658     .000000
    7          1             0        2.097690     .600707     .000000
 ---------------------------------------------------------------------
 Rotational constants (GHZ):      9.9756145      9.6872182      4.9146507
 Isotopes: N-14,N-14,N-14,H-1,N-14,C-12,H-1
 Standard basis: 3-21G* (6D, 7F)
 There are    39 symmetry adapted basis functions of A'  symmetry.
 There are    10 symmetry adapted basis functions of A"  symmetry.
 Crude estimate of integral set expansion from redundant integrals=1.000.
 Integral buffers will be    262144 words long.
 Raffenetti 2 integral format.
 Two-electron integral symmetry is turned on.
    49 basis functions       81 primitive gaussians
    18 alpha electrons       18 beta electrons
       nuclear repulsion energy       161.9221228799 Hartrees.
 One-electron integrals computed using PRISM.
 NBasis=    49 RedAO= T  NBF=    39    10
 NBsUse=    49 1.00D-04 NBFU=    39    10
 Initial guess read from the read-write file:
 Initial guess orbital symmetries:
       Occupied  (A') (A') (A') (A') (A') (A') (A') (A') (A') (A')
                 (A') (A') (A") (A') (A") (A") (A') (A')
       Virtual   (A") (A") (A') (A') (A') (A') (A') (A') (A') (A')
                 (A") (A') (A') (A') (A") (A') (A") (A') (A') (A")
                 (A') (A") (A') (A') (A') (A') (A') (A') (A') (A')
                 (A')
 Requested convergence on RMS density matrix=1.00D-08 within  64 cycles.
 Requested convergence on MAX density matrix=1.00D-06.
 Keep R1 and R2 integrals in memory in canonical form, NReq=     1914419.
 SCF Done:  E(RB+HF-LYP) =  -256.787378655     A.U. after   10 cycles
             Convg  =     .5784D-08             -V/T =  2.0082
             S**2   =    .0000
 ***** Axes restored to original set *****
 -------------------------------------------------------------------
 Center     Atomic                   Forces (Hartrees/Bohr)
 Number     Number              X              Y              Z
 -------------------------------------------------------------------
    1          7           -.000469864     .002172545     .000000000
    2          7           -.001334133    -.001496361     .000000000
    3          7            .000517573     .000036319     .000000000
    4          1            .000034360     .000072901     .000000000
    5          7            .000635377    -.000434969     .000000000
    6          6            .000569914    -.000307046     .000000000
    7          1            .000046773    -.000043389     .000000000
 -------------------------------------------------------------------
 Cartesian Forces:  Max      .002172545 RMS      .000698688

 GradGradGradGradGradGradGradGradGradGradGradGradGradGradGradGradGradGrad
 Berny optimization.
 Internal  Forces:  Max      .001566824 RMS      .000438755
 Search for a local minimum.
 Step number   6 out of a maximum of  36
 All quantities printed in internal units (Hartrees-Bohrs-Radians)
 Update second derivatives using information from points  1  2  3  4  5
                                                        6
 Trust test= 1.16D+00 RLast= 1.05D-02 DXMaxT set to 4.24D-01
     Eigenvalues ---     .02505    .02632    .02681    .02832    .14654
     Eigenvalues ---     .16008    .19494    .33740    .37545    .40682
     Eigenvalues ---     .47923    .49542    .55554    .66449    .86627
     Eigenvalues --- 1000.000001000.000001000.000001000.000001000.00000
     Eigenvalues --- 1000.000001000.000001000.000001000.000001000.00000
     Eigenvalues --- 1000.00000
 RFO step:  Lambda=-1.05758658D-05.
 Quartic linear search produced a step of   .17980.
 Iteration  1 RMS(Cart)=   .00085052 RMS(Int)=   .00000028
 Iteration  2 RMS(Cart)=   .00000014 RMS(Int)=   .00000025
 Variable       Old X    -DE/DX   Delta X   Delta X   Delta X     New X
                                 (Linear)    (Quad)   (Total)
    R1        2.51559   -.00157   -.00080   -.00284   -.00364   2.51194
    R2        2.72540    .00112    .00041    .00350    .00391   2.72931
    R3        2.67542    .00089    .00008    .00228    .00236   2.67778
    R4        1.91337    .00008   -.00013   -.00001   -.00014   1.91323
    R5        2.56717    .00020   -.00068   -.00057   -.00126   2.56592
    R6        2.50936    .00010   -.00056   -.00067   -.00123   2.50813
    R7        2.02969    .00006    .00001    .00021    .00022   2.02991
    A1        1.92889   -.00007    .00014   -.00012    .00002   1.92891
    A2        1.83828    .00027    .00016   -.00010    .00006   1.83834
    A3        2.09931   -.00003    .00002   -.00075   -.00072   2.09859
    A4        1.89295    .00005   -.00047    .00055    .00007   1.89302
    A5        2.29092   -.00001    .00045    .00020    .00065   2.29157
    A6        1.83135    .00021   -.00063    .00007   -.00056   1.83079
    A7        1.93330   -.00046    .00081   -.00040    .00041   1.93371
    A8        2.16572    .00026   -.00018    .00076    .00057   2.16630
    A9        2.18416    .00020   -.00062   -.00036   -.00098   2.18318
    D1         .00000    .00000    .00000    .00000    .00000    .00000
    D2         .00000    .00000    .00000    .00000    .00000    .00000
    D3        3.14159    .00000    .00000    .00000    .00000   3.14159
    D4         .00000    .00000    .00000    .00000    .00000    .00000
    D5         .00000    .00000    .00000    .00000    .00000    .00000
    D6        3.14159    .00000    .00000    .00000    .00000   3.14159
    D7        3.14159    .00000    .00000    .00000    .00000   3.14159
    D8         .00000    .00000    .00000    .00000    .00000    .00000
    D9         .00000    .00000    .00000    .00000    .00000    .00000
   D10        3.14159    .00000    .00000    .00000    .00000   3.14159
         Item               Value     Threshold  Converged?
 Maximum Force             .001567      .000450     NO 
 RMS     Force             .000439      .000300     NO 
 Maximum Displacement      .002716      .001800     NO 
 RMS     Displacement      .000851      .001200     YES
 Predicted change in Energy=-5.742807D-06
 GradGradGradGradGradGradGradGradGradGradGradGradGradGradGradGradGradGrad

                          Input orientation:                          
 ---------------------------------------------------------------------
 Center     Atomic     Atomic              Coordinates (Angstroms)
 Number     Number      Type              X           Y           Z
 ---------------------------------------------------------------------
    1          7             0       -1.191169    -.270286     .000000
    2          7             0        -.716937     .971505     .000000
    3          7             0         .693388     .833911     .000000
    4          1             0        1.285802    1.654935     .000000
    5          7             0        -.108128   -1.225790     .000000
    6          6             0         .996293    -.489696     .000000
    7          1             0        1.997577    -.878663     .000000
 ---------------------------------------------------------------------
                    Distance matrix (angstroms):
                    1          2          3          4          5
     1  N     .000000
     2  N    1.329263    .000000
     3  N    2.184217   1.417020    .000000
     4  H    3.137174   2.116138   1.012440    .000000
     5  N    1.444287   2.280077   2.210158   3.200253    .000000
     6  C    2.198438   2.251725   1.357824   2.164083   1.327246
     7  H    3.246263   3.285073   2.152631   2.631680   2.134126
                    6          7
     6  C     .000000
     7  H    1.074181    .000000
 Stoichiometry    CH2N4
 Framework group  CS[SG(CH2N4)]
 Deg. of freedom   11
 Full point group                 CS      NOp   2
 Largest Abelian subgroup         CS      NOp   2
 Largest concise Abelian subgroup C1      NOp   1
                         Standard orientation:                         
 ---------------------------------------------------------------------
 Center     Atomic     Atomic              Coordinates (Angstroms)
 Number     Number      Type              X           Y           Z
 ---------------------------------------------------------------------
    1          7             0        -.743037    -.969518     .000000
    2          7             0       -1.172368     .288502     .000000
    3          7             0         .000000    1.084429     .000000
    4          1             0        -.069434    2.094485     .000000
    5          7             0         .700632   -1.011737     .000000
    6          6             0        1.079181     .260381     .000000
    7          1             0        2.097760     .601499     .000000
 ---------------------------------------------------------------------
 Rotational constants (GHZ):      9.9855269      9.6771483      4.9144597
 Isotopes: N-14,N-14,N-14,H-1,N-14,C-12,H-1
 Standard basis: 3-21G* (6D, 7F)
 There are    39 symmetry adapted basis functions of A'  symmetry.
 There are    10 symmetry adapted basis functions of A"  symmetry.
 Crude estimate of integral set expansion from redundant integrals=1.000.
 Integral buffers will be    262144 words long.
 Raffenetti 2 integral format.
 Two-electron integral symmetry is turned on.
    49 basis functions       81 primitive gaussians
    18 alpha electrons       18 beta electrons
       nuclear repulsion energy       161.9252453309 Hartrees.
 One-electron integrals computed using PRISM.
 NBasis=    49 RedAO= T  NBF=    39    10
 NBsUse=    49 1.00D-04 NBFU=    39    10
 Initial guess read from the read-write file:
 Initial guess orbital symmetries:
       Occupied  (A') (A') (A') (A') (A') (A') (A') (A') (A') (A')
                 (A') (A') (A") (A') (A") (A") (A') (A')
       Virtual   (A") (A") (A') (A') (A') (A') (A') (A') (A') (A')
                 (A") (A') (A') (A') (A") (A') (A") (A') (A') (A")
                 (A') (A") (A') (A') (A') (A') (A') (A') (A') (A')
                 (A')
 Requested convergence on RMS density matrix=1.00D-08 within  64 cycles.
 Requested convergence on MAX density matrix=1.00D-06.
 Keep R1 and R2 integrals in memory in canonical form, NReq=     1914419.
 SCF Done:  E(RB+HF-LYP) =  -256.787386385     A.U. after    9 cycles
             Convg  =     .6428D-08             -V/T =  2.0082
             S**2   =    .0000
 ***** Axes restored to original set *****
 -------------------------------------------------------------------
 Center     Atomic                   Forces (Hartrees/Bohr)
 Number     Number              X              Y              Z
 -------------------------------------------------------------------
    1          7           -.000313877     .001091397     .000000000
    2          7           -.000607254    -.001038610     .000000000
    3          7            .000316293     .000954923     .000000000
    4          1            .000109347     .000098326     .000000000
    5          7           -.000216985    -.000648423     .000000000
    6          6            .000709143    -.000504697     .000000000
    7          1            .000003333     .000047084     .000000000
 -------------------------------------------------------------------
 Cartesian Forces:  Max      .001091397 RMS      .000487855

 GradGradGradGradGradGradGradGradGradGradGradGradGradGradGradGradGradGrad
 Berny optimization.
 Internal  Forces:  Max      .000738152 RMS      .000307985
 Search for a local minimum.
 Step number   7 out of a maximum of  36
 All quantities printed in internal units (Hartrees-Bohrs-Radians)
 Update second derivatives using information from points  1  2  3  4  5
                                                        6  7
 Trust test= 1.35D+00 RLast= 6.32D-03 DXMaxT set to 4.24D-01
     Eigenvalues ---     .02505    .02632    .02681    .02832    .12146
     Eigenvalues ---     .16011    .17041    .36017    .37473    .40331
     Eigenvalues ---     .47709    .49248    .54846    .69218    .86500
     Eigenvalues --- 1000.000001000.000001000.000001000.000001000.00000
     Eigenvalues --- 1000.000001000.000001000.000001000.000001000.00000
     Eigenvalues --- 1000.00000
 RFO step:  Lambda=-4.29879701D-06.
 Quartic linear search produced a step of   .48319.
 Iteration  1 RMS(Cart)=   .00069027 RMS(Int)=   .00000035
 Iteration  2 RMS(Cart)=   .00000029 RMS(Int)=   .00000020
 Variable       Old X    -DE/DX   Delta X   Delta X   Delta X     New X
                                 (Linear)    (Quad)   (Total)
    R1        2.51194   -.00071   -.00176   -.00145   -.00321   2.50873
    R2        2.72931    .00055    .00189    .00126    .00315   2.73245
    R3        2.67778    .00049    .00114    .00085    .00199   2.67977
    R4        1.91323    .00014   -.00007    .00016    .00009   1.91333
    R5        2.56592    .00074   -.00061    .00112    .00051   2.56642
    R6        2.50813    .00067   -.00059    .00068    .00008   2.50821
    R7        2.02991   -.00001    .00011   -.00008    .00003   2.02994
    A1        1.92891    .00003    .00001    .00017    .00018   1.92909
    A2        1.83834    .00047    .00003    .00106    .00109   1.83944
    A3        2.09859    .00019   -.00035    .00066    .00031   2.09890
    A4        1.89302   -.00031    .00004   -.00120   -.00116   1.89186
    A5        2.29157    .00012    .00031    .00054    .00086   2.29243
    A6        1.83079   -.00001   -.00027   -.00066   -.00093   1.82986
    A7        1.93371   -.00018    .00020    .00063    .00083   1.93453
    A8        2.16630    .00005    .00028   -.00047   -.00019   2.16610
    A9        2.18318    .00013   -.00047   -.00016   -.00064   2.18255
    D1         .00000    .00000    .00000    .00000    .00000    .00000
    D2         .00000    .00000    .00000    .00000    .00000    .00000
    D3        3.14159    .00000    .00000    .00000    .00000   3.14159
    D4         .00000    .00000    .00000    .00000    .00000    .00000
    D5         .00000    .00000    .00000    .00000    .00000    .00000
    D6        3.14159    .00000    .00000    .00000    .00000   3.14159
    D7        3.14159    .00000    .00000    .00000    .00000   3.14159
    D8         .00000    .00000    .00000    .00000    .00000    .00000
    D9         .00000    .00000    .00000    .00000    .00000    .00000
   D10        3.14159    .00000    .00000    .00000    .00000   3.14159
         Item               Value     Threshold  Converged?
 Maximum Force             .000738      .000450     NO 
 RMS     Force             .000308      .000300     NO 
 Maximum Displacement      .001851      .001800     NO 
 RMS     Displacement      .000690      .001200     YES
 Predicted change in Energy=-3.041335D-06
 GradGradGradGradGradGradGradGradGradGradGradGradGradGradGradGradGradGrad

                          Input orientation:                          
 ---------------------------------------------------------------------
 Center     Atomic     Atomic              Coordinates (Angstroms)
 Number     Number      Type              X           Y           Z
 ---------------------------------------------------------------------
    1          7             0       -1.191628    -.269403     .000000
    2          7             0        -.717624     .970656     .000000
    3          7             0         .693857     .834072     .000000
    4          1             0        1.285905    1.655421     .000000
    5          7             0        -.107799   -1.226529     .000000
    6          6             0         .996326    -.489911     .000000
    7          1             0        1.997554    -.879066     .000000
 ---------------------------------------------------------------------
                    Distance matrix (angstroms):
                    1          2          3          4          5
     1  N     .000000
     2  N    1.327563    .000000
     3  N    2.184653   1.418074    .000000
     4  H    3.137374   2.117317   1.012490    .000000
     5  N    1.445951   2.280243   2.211046   3.201257    .000000
     6  C    2.199038   2.251862   1.358094   2.164787   1.327289
     7  H    3.246932   3.285371   2.152782   2.632503   2.133832
                    6          7
     6  C     .000000
     7  H    1.074197    .000000
 Stoichiometry    CH2N4
 Framework group  CS[SG(CH2N4)]
 Deg. of freedom   11
 Full point group                 CS      NOp   2
 Largest Abelian subgroup         CS      NOp   2
 Largest concise Abelian subgroup C1      NOp   1
                         Standard orientation:                         
 ---------------------------------------------------------------------
 Center     Atomic     Atomic              Coordinates (Angstroms)
 Number     Number      Type              X           Y           Z
 ---------------------------------------------------------------------
    1          7             0        -.743806    -.969135     .000000
    2          7             0       -1.172454     .287323     .000000
    3          7             0         .000000    1.084998     .000000
    4          1             0        -.070124    2.095057     .000000
    5          7             0         .701516   -1.011809     .000000
    6          6             0        1.079249     .260596     .000000
    7          1             0        2.097838     .601734     .000000
 ---------------------------------------------------------------------
 Rotational constants (GHZ):      9.9842858      9.6705744      4.9124633
 Isotopes: N-14,N-14,N-14,H-1,N-14,C-12,H-1
 Standard basis: 3-21G* (6D, 7F)
 There are    39 symmetry adapted basis functions of A'  symmetry.
 There are    10 symmetry adapted basis functions of A"  symmetry.
 Crude estimate of integral set expansion from redundant integrals=1.000.
 Integral buffers will be    262144 words long.
 Raffenetti 2 integral format.
 Two-electron integral symmetry is turned on.
    49 basis functions       81 primitive gaussians
    18 alpha electrons       18 beta electrons
       nuclear repulsion energy       161.8985022554 Hartrees.
 One-electron integrals computed using PRISM.
 NBasis=    49 RedAO= T  NBF=    39    10
 NBsUse=    49 1.00D-04 NBFU=    39    10
 Initial guess read from the read-write file:
 Initial guess orbital symmetries:
       Occupied  (A') (A') (A') (A') (A') (A') (A') (A') (A') (A')
                 (A') (A') (A") (A') (A") (A") (A') (A')
       Virtual   (A") (A") (A') (A') (A') (A') (A') (A') (A') (A')
                 (A") (A') (A') (A') (A") (A') (A") (A') (A') (A")
                 (A') (A") (A') (A') (A') (A') (A') (A') (A') (A')
                 (A')
 Requested convergence on RMS density matrix=1.00D-08 within  64 cycles.
 Requested convergence on MAX density matrix=1.00D-06.
 Keep R1 and R2 integrals in memory in canonical form, NReq=     1914419.
 SCF Done:  E(RB+HF-LYP) =  -256.787390447     A.U. after    9 cycles
             Convg  =     .8806D-08             -V/T =  2.0082
             S**2   =    .0000
 ***** Axes restored to original set *****
 -------------------------------------------------------------------
 Center     Atomic                   Forces (Hartrees/Bohr)
 Number     Number              X              Y              Z
 -------------------------------------------------------------------
    1          7           -.000107565     .000292217     .000000000
    2          7           -.000188184    -.000284230     .000000000
    3          7           -.000056722     .000630252     .000000000
    4          1            .000081497     .000047795     .000000000
    5          7           -.000287446    -.000287426     .000000000
    6          6            .000548439    -.000458707     .000000000
    7          1            .000009982     .000060098     .000000000
 -------------------------------------------------------------------
 Cartesian Forces:  Max      .000630252 RMS      .000249062

 GradGradGradGradGradGradGradGradGradGradGradGradGradGradGradGradGradGrad
 Berny optimization.
 Internal  Forces:  Max      .000566325 RMS      .000162338
 Search for a local minimum.
 Step number   8 out of a maximum of  36
 All quantities printed in internal units (Hartrees-Bohrs-Radians)
 Update second derivatives using information from points  1  2  3  4  5
                                                        6  7  8
 Trust test= 1.34D+00 RLast= 5.46D-03 DXMaxT set to 4.24D-01
     Eigenvalues ---     .02505    .02632    .02681    .02832    .12704
     Eigenvalues ---     .16028    .16402    .33328    .37491    .39670
     Eigenvalues ---     .47558    .48990    .53488    .62142    .73501
     Eigenvalues --- 1000.000001000.000001000.000001000.000001000.00000
     Eigenvalues --- 1000.000001000.000001000.000001000.000001000.00000
     Eigenvalues --- 1000.00000
 RFO step:  Lambda=-8.35088315D-07.
 Quartic linear search produced a step of   .42023.
 Iteration  1 RMS(Cart)=   .00036047 RMS(Int)=   .00000012
 Iteration  2 RMS(Cart)=   .00000006 RMS(Int)=   .00000010
 Variable       Old X    -DE/DX   Delta X   Delta X   Delta X     New X
                                 (Linear)    (Quad)   (Total)
    R1        2.50873   -.00015   -.00135    .00020   -.00115   2.50758
    R2        2.73245    .00018    .00132   -.00032    .00100   2.73345
    R3        2.67977    .00016    .00084   -.00019    .00065   2.68042
    R4        1.91333    .00009    .00004    .00013    .00017   1.91350
    R5        2.56642    .00057    .00021    .00094    .00115   2.56758
    R6        2.50821    .00042    .00003    .00054    .00058   2.50879
    R7        2.02994   -.00001    .00001   -.00004   -.00003   2.02991
    A1        1.92909    .00007    .00007    .00015    .00022   1.92931
    A2        1.83944    .00018    .00046    .00005    .00050   1.83994
    A3        2.09890    .00009    .00013    .00025    .00038   2.09927
    A4        1.89186   -.00011   -.00049    .00008   -.00041   1.89146
    A5        2.29243    .00001    .00036   -.00033    .00003   2.29246
    A6        1.82986    .00000   -.00039    .00020   -.00019   1.82966
    A7        1.93453   -.00014    .00035   -.00048   -.00013   1.93441
    A8        2.16610    .00002   -.00008   -.00015   -.00023   2.16587
    A9        2.18255    .00013   -.00027    .00063    .00036   2.18291
    D1         .00000    .00000    .00000    .00000    .00000    .00000
    D2         .00000    .00000    .00000    .00000    .00000    .00000
    D3        3.14159    .00000    .00000    .00000    .00000   3.14159
    D4         .00000    .00000    .00000    .00000    .00000    .00000
    D5         .00000    .00000    .00000    .00000    .00000    .00000
    D6        3.14159    .00000    .00000    .00000    .00000   3.14159
    D7        3.14159    .00000    .00000    .00000    .00000   3.14159
    D8         .00000    .00000    .00000    .00000    .00000    .00000
    D9         .00000    .00000    .00000    .00000    .00000    .00000
   D10        3.14159    .00000    .00000    .00000    .00000   3.14159
         Item               Value     Threshold  Converged?
[...]
 Red. masses --     2.6141                 1.4110                 8.1753
 Frc consts  --      .6020                  .3787                 2.2509
 IR Inten    --    93.3404                53.8623                11.3771
 Raman Activ --      .0000                  .0000                  .0000
 Depolar     --      .0000                  .0000                  .0000
 Atom AN      X      Y      Z        X      Y      Z        X      Y      Z
   1   7      .00    .00   -.05      .00    .00   -.02      .00    .00    .48
   2   7      .00    .00    .17      .00    .00    .10      .00    .00   -.32
   3   7      .00    .00   -.28      .00    .00   -.04      .00    .00    .00
   4   1      .00    .00    .81      .00    .00   -.93      .00    .00    .43
   5   7      .00    .00   -.04      .00    .00   -.09      .00    .00   -.42
   6   6      .00    .00    .13      .00    .00    .12      .00    .00    .22
   7   1      .00    .00    .46      .00    .00    .32      .00    .00    .51
                     4                      5                      6
                    A'                     A'                     A"
 Frequencies --   763.7760               847.7914               916.4190
 Red. masses --    10.3810                 6.4957                 1.3849
 Frc consts  --     3.5680                 2.7508                  .6853
 IR Inten    --     9.9654                15.9474                15.6779
 Raman Activ --      .0000                  .0000                  .0000
 Depolar     --      .0000                  .0000                  .0000
 Atom AN      X      Y      Z        X      Y      Z        X      Y      Z
   1   7      .52   -.17    .00      .07   -.06    .00      .00    .00    .02
   2   7      .02   -.04    .00      .34    .35    .00      .00    .00    .00
   3   7      .12    .06    .00     -.31   -.28    .00      .00    .00    .04
   4   1      .09    .05    .00     -.55   -.31    .00      .00    .00    .00
   5   7     -.62    .11    .00     -.06    .01    .00      .00    .00    .03
   6   6     -.06    .09    .00      .02   -.04    .00      .00    .00   -.18
   7   1      .13   -.50    .00     -.14    .40    .00      .00    .00    .98
                     7                      8                      9
                    A'                     A'                     A'
 Frequencies --   979.5341              1011.0751              1075.5480
 Red. masses --     4.7453                 6.5413                 7.3200
 Frc consts  --     2.6826                 3.9399                 4.9891
 IR Inten    --     7.5459                 8.7098                 2.8733
 Raman Activ --      .0000                  .0000                  .0000
 Depolar     --      .0000                  .0000                  .0000
 Atom AN      X      Y      Z        X      Y      Z        X      Y      Z
   1   7      .28    .07    .00     -.05   -.10    .00      .15    .57    .00
   2   7     -.19    .19    .00      .36   -.07    .00      .08   -.28    .00
   3   7     -.06    .03    .00     -.06    .41    .00     -.14   -.08    .00
   4   1      .69    .09    .00     -.46    .40    .00     -.67   -.13    .00
   5   7      .13   -.25    .00      .03   -.19    .00     -.07   -.09    .00
   6   6     -.22   -.09    .00     -.28   -.05    .00      .02   -.12    .00
   7   1     -.36    .31    .00     -.18   -.39    .00      .04   -.21    .00
                    10                     11                     12
                    A'                     A'                     A'
 Frequencies --  1142.6978              1216.0810              1360.4390
 Red. masses --     2.1404                 2.1871                 2.6248
 Frc consts  --     1.6467                 1.9056                 2.8622
 IR Inten    --    13.5587                 7.4275                 4.9723
 Raman Activ --      .0000                  .0000                  .0000
 Depolar     --      .0000                  .0000                  .0000
 Atom AN      X      Y      Z        X      Y      Z        X      Y      Z
   1   7     -.05    .05    .00      .01    .02    .00      .00   -.02    .00
   2   7      .12   -.09    .00      .05   -.01    .00      .03   -.07    .00
   3   7      .12   -.10    .00     -.03   -.07    .00     -.13    .13    .00
   4   1      .47   -.09    .00      .53   -.04    .00      .61    .21    .00
   5   7     -.05    .01    .00      .08    .20    .00     -.06    .11    .00
   6   6     -.17    .10    .00     -.17   -.10    .00      .14   -.25    .00
   7   1     -.39    .73    .00      .03   -.79    .00     -.14    .65    .00
                    13                     14                     15
                    A'                     A'                     A'
 Frequencies --  1435.8263              3322.3493              3589.3597
 Red. masses --     2.1713                 1.0993                 1.0845
 Frc consts  --     2.6374                 7.1495                 8.2320
 IR Inten    --    39.5069                 2.2228                94.4466
 Raman Activ --      .0000                  .0000                  .0000
 Depolar     --      .0000                  .0000                  .0000
 Atom AN      X      Y      Z        X      Y      Z        X      Y      Z
   1   7      .04   -.02    .00      .00    .00    .00      .00    .00    .00
   2   7     -.06    .04    .00      .00    .00    .00      .00    .00    .00
   3   7      .15    .01    .00      .00    .00    .00      .01   -.08    .00
   4   1     -.83   -.07    .00      .00    .03    .00     -.07    .99    .00
   5   7      .03    .12    .00      .00    .00    .00      .00    .00    .00
   6   6     -.10   -.20    .00      .09    .03    .00     -.01    .00    .00
   7   1     -.31    .34    .00     -.94   -.31    .00      .03    .01    .00

 -------------------
 - Thermochemistry -
 -------------------
 Temperature   298.150 Kelvin.  Pressure   1.00000 Atm.
 Atom  1 has atomic number  7 and mass  14.00307
 Atom  2 has atomic number  7 and mass  14.00307
 Atom  3 has atomic number  7 and mass  14.00307
 Atom  4 has atomic number  1 and mass   1.00783
 Atom  5 has atomic number  7 and mass  14.00307
 Atom  6 has atomic number  6 and mass  12.00000
 Atom  7 has atomic number  1 and mass   1.00783
 Molecular mass:    70.02795 amu.
 Principal axes and moments of inertia in atomic units:
                           1         2         3
     EIGENVALUES --   180.80223 186.70424 367.50647
           X             .99651    .08351    .00000
           Y            -.08351    .99651    .00000
           Z             .00000    .00000   1.00000
 THIS MOLECULE IS AN ASYMMETRIC TOP.
 ROTATIONAL SYMMETRY NUMBER  1.
 ROTATIONAL TEMPERATURES (KELVIN)       .47905      .46391      .23568
 ROTATIONAL CONSTANTS (GHZ)            9.98185     9.66631     4.91077
 Zero-point vibrational energy     117500.9 (Joules/Mol)
                                   28.08338 (Kcal/Mol)
 VIBRATIONAL TEMPERATURES:    899.52   971.05   983.54  1098.90  1219.78
          (KELVIN)           1318.51  1409.32  1454.70  1547.46  1644.08
                             1749.66  1957.36  2065.82  4780.09  5164.26
 
 Zero-point correction=                            .044754 (Hartree/Particle)
 Thermal correction to Energy=                     .048336
 Thermal correction to Enthalpy=                   .049280
 Thermal correction to Gibbs Free Energy=          .018544
 Sum of electronic and zero-point Energies=           -256.742638
 Sum of electronic and thermal Energies=              -256.739055
 Sum of electronic and thermal Enthalpies=            -256.738111
 Sum of electronic and thermal Free Energies=         -256.768847
 
                     E (Thermal)             CV                S
                      KCAL/MOL        CAL/MOL-KELVIN    CAL/MOL-KELVIN
 TOTAL                   30.331             12.167             64.689
 ELECTRONIC                .000               .000               .000
 TRANSLATIONAL             .889              2.981             38.656
 ROTATIONAL                .889              2.981             24.032
 VIBRATIONAL             28.554              6.205              2.001
                       Q            LOG10(Q)             LN(Q)
 TOTAL BOT        .295328D-08         -8.529696        -19.640351
 TOTAL V=0        .113617D+13         12.055443         27.758683
 VIB (BOT)        .321570D-20        -20.492724        -47.186241
 VIB (V=0)        .123713D+01           .092414           .212792
 ELECTRONIC       .100000D+01           .000000           .000000
 TRANSLATIONAL    .230339D+08          7.362368         16.952478
 ROTATIONAL       .398713D+05          4.600661         10.593413
 ***** Axes restored to original set *****
 -------------------------------------------------------------------
 Center     Atomic                   Forces (Hartrees/Bohr)
 Number     Number              X              Y              Z
 -------------------------------------------------------------------
    1          7           -.000026287    -.000000906     .000000000
    2          7            .000024180    -.000005686     .000000000
    3          7           -.000067313     .000154560     .000000000
    4          1            .000018522    -.000002529     .000000000
    5          7           -.000027083    -.000033406     .000000000
    6          6            .000069804    -.000146766     .000000000
    7          1            .000008177     .000034732     .000000000
 -------------------------------------------------------------------
 Cartesian Forces:  Max      .000154560 RMS      .000053280

 GradGradGradGradGradGradGradGradGradGradGradGradGradGradGradGradGradGrad
 Berny optimization.
 Internal  Forces:  Max      .000128045 RMS      .000030472
 Search for a local minimum.
 Step number   1 out of a maximum of  36
 All quantities printed in internal units (Hartrees-Bohrs-Radians)
 Second derivative matrix not updated -- analytic derivatives used.
     Eigenvalues ---     .00977    .02837    .07006    .07409    .09743
     Eigenvalues ---     .10391    .12246    .15939    .29373    .33111
     Eigenvalues ---     .38701    .42151    .45977    .52022    .59739
     Eigenvalues --- 1000.000001000.000001000.000001000.000001000.00000
     Eigenvalues --- 1000.000001000.000001000.000001000.000001000.00000
     Eigenvalues --- 1000.00000
 Angle between quadratic step and forces=  38.78 degrees.
 Linear search not attempted -- first point.
 Iteration  1 RMS(Cart)=   .00012888 RMS(Int)=   .00000003
 Iteration  2 RMS(Cart)=   .00000002 RMS(Int)=   .00000000
 Variable       Old X    -DE/DX   Delta X   Delta X   Delta X     New X
                                 (Linear)    (Quad)   (Total)
    R1        2.50758    .00002    .00000    .00004    .00004   2.50762
    R2        2.73345    .00003    .00000    .00018    .00018   2.73363
    R3        2.68042   -.00002    .00000   -.00024   -.00024   2.68018
    R4        1.91350    .00001    .00000    .00003    .00003   1.91353
    R5        2.56758    .00013    .00000    .00041    .00041   2.56799
    R6        2.50879    .00004    .00000   -.00001   -.00001   2.50878
    R7        2.02991   -.00001    .00000   -.00002   -.00002   2.02989
    A1        1.92931    .00001    .00000   -.00003   -.00003   1.92928
    A2        1.83994    .00002    .00000    .00011    .00011   1.84005
    A3        2.09927    .00003    .00000    .00024    .00024   2.09951
    A4        1.89146   -.00001    .00000    .00000    .00000   1.89145
    A5        2.29246   -.00001    .00000   -.00023   -.00023   2.29222
    A6        1.82966   -.00001    .00000    .00001    .00001   1.82967
    A7        1.93441   -.00002    .00000   -.00008   -.00008   1.93433
    A8        2.16587   -.00002    .00000   -.00034   -.00034   2.16554
    A9        2.18291    .00004    .00000    .00041    .00041   2.18332
    D1         .00000    .00000    .00000    .00000    .00000    .00000
    D2         .00000    .00000    .00000    .00000    .00000    .00000
    D3        3.14159    .00000    .00000    .00000    .00000   3.14159
    D4         .00000    .00000    .00000    .00000    .00000    .00000
    D5         .00000    .00000    .00000    .00000    .00000    .00000
    D6        3.14159    .00000    .00000    .00000    .00000   3.14159
    D7        3.14159    .00000    .00000    .00000    .00000   3.14159
    D8         .00000    .00000    .00000    .00000    .00000    .00000
    D9         .00000    .00000    .00000    .00000    .00000    .00000
   D10        3.14159    .00000    .00000    .00000    .00000   3.14159
         Item               Value     Threshold  Converged?
 Maximum Force             .000128      .000450     YES
 RMS     Force             .000030      .000300     YES
 Maximum Displacement      .000375      .001800     YES
 RMS     Displacement      .000129      .001200     YES
 Predicted change in Energy=-4.970192D-08
 Optimization completed.
    -- Stationary point found.
                         ----------------------------
                         !   Optimized Parameters   !
                         ! (Angstroms and Degrees)  !
 ------------------------                            -------------------------
 ! Name  Definition              Value          Derivative Info.             !
 -----------------------------------------------------------------------------
 ! R1    R(1,2)                  1.327          -DE/DX =    0.               !
 ! R2    R(1,5)                  1.4465         -DE/DX =    0.               !
 ! R3    R(2,3)                  1.4184         -DE/DX =    0.               !
 ! R4    R(3,4)                  1.0126         -DE/DX =    0.               !
 ! R5    R(3,6)                  1.3587         -DE/DX =    0.0001           !
 ! R6    R(5,6)                  1.3276         -DE/DX =    0.               !
 ! R7    R(6,7)                  1.0742         -DE/DX =    0.               !
 ! A1    A(2,1,5)              110.5414         -DE/DX =    0.               !
 ! A2    A(1,2,3)              105.4208         -DE/DX =    0.               !
 ! A3    A(2,3,4)              120.2795         -DE/DX =    0.               !
 ! A4    A(2,3,6)              108.3724         -DE/DX =    0.               !
 ! A5    A(4,3,6)              131.3481         -DE/DX =    0.               !
 ! A6    A(1,5,6)              104.832          -DE/DX =    0.               !
 ! A7    A(3,6,5)              110.8333         -DE/DX =    0.               !
 ! A8    A(3,6,7)              124.0954         -DE/DX =    0.               !
 ! A9    A(5,6,7)              125.0713         -DE/DX =    0.               !
 ! D1    D(5,1,2,3)              0.             -DE/DX =    0.               !
 ! D2    D(2,1,5,6)              0.             -DE/DX =    0.               !
 ! D3    D(1,2,3,4)            180.             -DE/DX =    0.               !
 ! D4    D(1,2,3,6)              0.             -DE/DX =    0.               !
 ! D5    D(2,3,6,5)              0.             -DE/DX =    0.               !
 ! D6    D(2,3,6,7)            180.             -DE/DX =    0.               !
 ! D7    D(4,3,6,5)            180.             -DE/DX =    0.               !
 ! D8    D(4,3,6,7)              0.             -DE/DX =    0.               !
 ! D9    D(1,5,6,3)              0.             -DE/DX =    0.               !
 ! D10   D(1,5,6,7)            180.             -DE/DX =    0.               !
 -----------------------------------------------------------------------------
 GradGradGradGradGradGradGradGradGradGradGradGradGradGradGradGradGradGrad

 1\1\GINC-SCI-APPS\Freq\RB3LYP\3-21G*\C1H2N4\RUS\11-Apr-2000\0\\#N GEOM
 =ALLCHECK GUESS=TCHECK RB3LYP/3-21G* FREQ\\1H tetrazole c CH-NH-N=N-N=
  casno=288948\\0,1\N,-1.1917587888,-0.2689503272,0.\N,-0.7178334028,0.
 9704856581,0.\N,0.6940419025,0.834423186,0.\H,1.2861306606,1.655855182
 ,0.\N,-0.1078543963,-1.2267897239,0.\C,0.9966292652,-0.4901578766,0.\H
 ,1.9979265454,-0.8790894734,0.\\Version=IBM-RS6000-G98RevA.7\State=1-A
 '\HF=-256.7873914\RMSD=2.506e-09\RMSF=5.328e-05\Dipole=1.9617039,0.860
 7895,0.\DipoleDeriv=0.1022953,-0.0740655,0.0000631,-0.1927449,-0.04366
 55,0.0001752,-0.0001215,0.000096,-0.1543997,0.2963228,0.1820889,-0.000
 0564,0.1646657,-0.2282153,-0.00016,0.0000192,-0.0000355,-0.0622038,-0.
 4509203,-0.199472,0.0000474,-0.2135888,-0.2911338,-0.0000597,0.0001398
 ,-0.0002509,-0.2631242,0.2264801,0.0191394,-0.0000142,0.0351048,0.2721
 771,-0.0000201,-0.0000157,0.0000424,0.4010189,-0.4322254,0.1063074,-0.
 0001948,0.0285525,-0.1750464,-0.0001346,0.0000541,-0.0000846,-0.191463
 3,0.1894186,-0.0587105,0.0001932,0.1821134,0.3345522,0.0001874,-0.0000
 845,0.0002509,0.0842024,0.0686292,0.0247124,-0.0000384,-0.0041023,0.13
 13318,0.0000118,0.0000087,-0.0000182,0.1859697\Polar=36.2001163,0.1351
 578,33.6046098,0.0010986,-0.0021171,11.3025133\PG=CS [SG(C1H2N4)]\NIma
 g=0\\0.42990637,0.08748334,0.29219270,0.00000619,0.00000820,0.10451282
 ,-0.09684910,-0.06919878,-0.00000306,0.28809819,-0.00128202,-0.1955023
 1,-0.00000697,-0.06106028,0.45229136,-0.00000131,-0.00000517,-0.081322
 79,0.00000360,0.00000525,0.09760667,-0.11083085,-0.09315575,0.00000030
 ,-0.10969197,0.00772508,-0.00000220,0.53657367,-0.02822183,-0.06065044
 ,0.00000219,0.04218561,-0.09952153,0.00000365,0.21633613,0.84966014,-0
 .00000371,-0.00001789,0.02163058,-0.00000547,0.00001377,-0.06217504,0.
 00000269,-0.00000132,0.09767663,-0.00921875,-0.00081212,-0.00000164,-0
 .00228166,-0.02978066,-0.00000107,-0.19334331,-0.17689694,0.00000490,0
 .19196693,0.00894859,0.00147383,-0.00000036,0.00485661,0.01034703,-0.0
 0000068,-0.18108025,-0.32540694,0.00000392,0.18907382,0.32167969,0.000
 00129,0.00000314,0.00665515,-0.00000069,-0.00000267,-0.00889223,0.0000
 0073,-0.00000108,-0.01198567,-0.00000061,-0.00000062,0.01493396,-0.086
 60559,0.02207257,-0.00000802,-0.01315048,0.07394760,0.00000597,-0.0004
 8728,-0.10345493,0.00001802,-0.00117019,-0.00042325,-0.00000338,0.3721
 9097,-0.03226201,-0.05760972,-0.00000344,-0.01423736,-0.11206619,0.000
 00372,-0.00311794,-0.08876907,0.00001384,0.00844628,-0.00450217,-0.000
 00234,0.13187266,0.42527681,-0.00000312,-0.00000750,-0.07661461,0.0000
 0319,0.00000690,0.02884838,-0.00000166,0.00000246,0.02394697,0.0000000
 5,0.00000006,0.00686032,0.00000844,0.00000561,0.09904215,-0.12512246,0
 .05353706,0.00000222,-0.06678406,0.01521621,-0.00000909,-0.12676483,0.
 05493749,-0.00001077,0.01440780,-0.02204918,0.00000301,-0.25498643,-0.
 10058517,-0.00000893,0.88903853,-0.02891305,0.02112575,0.00000223,0.09
 936264,-0.05010391,-0.00000521,0.01975084,-0.26585503,-0.00001554,0.01
 033371,-0.00299759,0.00000357,-0.10320365,-0.17350627,-0.00000688,-0.1
 1028054,0.56308311,0.00000376,0.00001861,0.01586276,0.00000093,-0.0000
 1541,0.02090275,0.00000123,-0.00000516,-0.06937901,-0.00000324,-0.0000
 0348,-0.00651629,-0.00002011,-0.00001578,-0.07876812,0.00001920,0.0000
 2140,0.15369685,-0.00127963,0.00007367,0.00000402,0.00065908,-0.004765
 93,0.00000410,0.00454456,-0.00488555,-0.00000566,-0.00036080,0.0006736
 7,-0.00000035,-0.01579099,0.00988354,0.00000204,-0.32978857,0.11295005
 ,-0.00000177,0.34201635,-0.00575303,-0.00102982,-0.00000185,-0.0019084
 3,-0.00544446,-0.00000155,0.03354187,-0.00945714,0.00000322,-0.0003640
 8,-0.00059383,0.,-0.02081102,0.01117661,-0.00000066,0.10922413,-0.0917
 4606,-0.00000018,-0.11392944,0.09709469,-0.00000309,0.00000061,0.00927
 609,0.00000150,-0.00000087,0.00503226,-0.00000109,-0.00000075,0.000285
 53,0.00000161,0.00000116,-0.00105524,-0.00000092,-0.00000161,-0.003315
 10,0.00000438,0.00000043,-0.03579894,-0.00000238,0.00000102,0.02557540
 \\0.00002629,0.00000091,0.,-0.00002418,0.00000569,0.,0.00006731,-0.000
 15456,0.,-0.00001852,0.00000253,0.,0.00002708,0.00003341,0.,-0.0000698
 0,0.00014677,0.,-0.00000818,-0.00003473,0.\\\@


 DESK:  A WASTEBASKET WITH DRAWERS.
 Job cpu time:  0 days  0 hours  2 minutes 21.5 seconds.
 File lengths (MBytes):  RWF=   10 Int=    0 D2E=    0 Chk=    3 Scr=    1
 Normal termination of Gaussian 98.
