 Entering Gaussian System, Link 0=g98
 Initial command:
 /usr/local/apps/g98/g98/l1.exe /wrk/Gau-6951655.inp -scrdir=/wrk/
 Entering Link 1 = /usr/local/apps/g98/g98/l1.exe PID=   6952229.
  
 Copyright (c) 1988,1990,1992,1993,1995,1998 Gaussian, Inc.
                  All Rights Reserved.
  
 This is part of the Gaussian(R) 98 program.  It is based on
 the Gaussian 94(TM) system (copyright 1995 Gaussian, Inc.),
 the Gaussian 92(TM) system (copyright 1992 Gaussian, Inc.),
 the Gaussian 90(TM) system (copyright 1990 Gaussian, Inc.),
 the Gaussian 88(TM) system (copyright 1988 Gaussian, Inc.),
 the Gaussian 86(TM) system (copyright 1986 Carnegie Mellon
 University), and the Gaussian 82(TM) system (copyright 1983
 Carnegie Mellon University). Gaussian is a federally registered
 trademark of Gaussian, Inc.
  
 This software contains proprietary and confidential information,
 including trade secrets, belonging to Gaussian, Inc.
  
 This software is provided under written license and may be
 used, copied, transmitted, or stored only in accord with that
 written license.
  
 The following legend is applicable only to US Government
 contracts under DFARS:
  
                    RESTRICTED RIGHTS LEGEND
  
 Use, duplication or disclosure by the US Government is subject
 to restrictions as set forth in subparagraph (c)(1)(ii) of the
 Rights in Technical Data and Computer Software clause at DFARS
 252.227-7013.
  
 Gaussian, Inc.
 Carnegie Office Park, Building 6, Pittsburgh, PA 15106 USA
  
 The following legend is applicable only to US Government
 contracts under FAR:
  
                    RESTRICTED RIGHTS LEGEND
  
 Use, reproduction and disclosure by the US Government is subject
 to restrictions as set forth in subparagraph (c) of the
 Commercial Computer Software - Restricted Rights clause at FAR
 52.227-19.
  
 Gaussian, Inc.
 Carnegie Office Park, Building 6, Pittsburgh, PA 15106 USA
  
  
 ---------------------------------------------------------------
 Warning -- This program may not be used in any manner that
 competes with the business of Gaussian, Inc. or will provide
 assistance to any competitor of Gaussian, Inc.  The licensee
 of this program is prohibited from giving any competitor of
 Gaussian, Inc. access to this program.  By using this program,
 the user acknowledges that Gaussian, Inc. is engaged in the
 business of creating and licensing software in the field of
 computational chemistry and represents and warrants to the
 licensee that it is not a competitor of Gaussian, Inc. and that
 it will not use this program in any manner prohibited above.
 ---------------------------------------------------------------
  

 Cite this work as:
 Gaussian 98, Revision A.6,
 M. J. Frisch, G. W. Trucks, H. B. Schlegel, G. E. Scuseria, 
 M. A. Robb, J. R. Cheeseman, V. G. Zakrzewski, J. A. Montgomery, Jr., 
 R. E. Stratmann, J. C. Burant, S. Dapprich, J. M. Millam, 
 A. D. Daniels, K. N. Kudin, M. C. Strain, O. Farkas, J. Tomasi, 
 V. Barone, M. Cossi, R. Cammi, B. Mennucci, C. Pomelli, C. Adamo, 
 S. Clifford, J. Ochterski, G. A. Petersson, P. Y. Ayala, Q. Cui, 
 K. Morokuma, D. K. Malick, A. D. Rabuck, K. Raghavachari, 
 J. B. Foresman, J. Cioslowski, J. V. Ortiz, B. B. Stefanov, G. Liu, 
 A. Liashenko, P. Piskorz, I. Komaromi, R. Gomperts, R. L. Martin, 
 D. J. Fox, T. Keith, M. A. Al-Laham, C. Y. Peng, A. Nanayakkara, 
 C. Gonzalez, M. Challacombe, P. M. W. Gill, B. Johnson, W. Chen, 
 M. W. Wong, J. L. Andres, C. Gonzalez, M. Head-Gordon, 
 E. S. Replogle, and J. A. Pople, 
 Gaussian, Inc., Pittsburgh PA, 1998.

 ***************************************
 Gaussian 98:  SGI-G98RevA.6 19-Oct-1998
               23-May-2000 
 ***************************************
 %mem=24000000
 -----------------------
 #BLYP/6-31+G** opt freq
 -----------------------
 1/14=-1,18=20,26=3,38=1/1,3;
 2/9=110,17=6,18=5/2;
 3/5=1,6=6,7=111,11=2,25=1,30=1/1,2,3;
 4//1;
 5/5=2,38=4,42=402/2;
 6/7=2,8=2,9=2,10=2,28=1/1;
 7//1,2,3,16;
 1/14=-1,18=20/3(1);
 99//99;
 2/9=110/2;
 3/5=1,6=6,7=111,11=2,25=1,30=1/1,2,3;
 4/5=5,16=2/1;
 5/5=2,38=4,42=402/2;
 7//1,2,3,16;
 1/14=-1,18=20/3(-5);
 2/9=110/2;
 6/7=2,8=2,9=2,10=2,19=2,28=1/1;
 99/9=1/99;
 -------------------------------
 1H pyrazole C3H4N2 casno=288131
 -------------------------------
 Symbolic Z-matrix:
 Charge =  0 Multiplicity = 1
 H                    -1.9125    0.       -0.75938 
 C                    -1.08438   0.       -0.21875 
 H                     0.43438   0.       -1.63125 
 C                     0.15      0.       -0.68438 
 H                     1.9125    0.        0.37188 
 C                     0.92188   0.        0.375 
 N                     0.18125   0.        1.41875 
 H                    -1.74063   0.        1.63125 
 N                    -1.00313   0.        1.05313 

 GradGradGradGradGradGradGradGradGradGradGradGradGradGradGradGradGradGrad
 Berny optimization.
 Initialization pass.
                         ----------------------------
                         !    Initial Parameters    !
                         ! (Angstroms and Degrees)  !
 ------------------------                            -------------------------
 ! Name  Definition              Value          Derivative Info.             !
 -----------------------------------------------------------------------------
 ! R1    R(1,2)                  0.989          estimate D2E/DX2             !
 ! R2    R(2,4)                  1.3193         estimate D2E/DX2             !
 ! R3    R(2,9)                  1.2745         estimate D2E/DX2             !
 ! R4    R(3,4)                  0.9887         estimate D2E/DX2             !
 ! R5    R(4,6)                  1.3108         estimate D2E/DX2             !
 ! R6    R(5,6)                  0.9906         estimate D2E/DX2             !
 ! R7    R(6,7)                  1.2798         estimate D2E/DX2             !
 ! R8    R(7,9)                  1.2395         estimate D2E/DX2             !
 ! R9    R(8,9)                  0.9371         estimate D2E/DX2             !
 ! A1    A(1,2,4)              126.195          estimate D2E/DX2             !
 ! A2    A(1,2,9)              126.7929         estimate D2E/DX2             !
 ! A3    A(4,2,9)              107.012          estimate D2E/DX2             !
 ! A4    A(2,4,3)              127.3838         estimate D2E/DX2             !
 ! A5    A(2,4,6)              105.4104         estimate D2E/DX2             !
 ! A6    A(3,4,6)              127.2058         estimate D2E/DX2             !
 ! A7    A(4,6,5)              125.8968         estimate D2E/DX2             !
 ! A8    A(4,6,7)              108.5636         estimate D2E/DX2             !
 ! A9    A(5,6,7)              125.5395         estimate D2E/DX2             !
 ! A10   A(6,7,9)              108.203          estimate D2E/DX2             !
 ! A11   A(2,9,7)              110.811          estimate D2E/DX2             !
 ! A12   A(2,9,8)              124.4376         estimate D2E/DX2             !
 ! A13   A(7,9,8)              124.7513         estimate D2E/DX2             !
 ! D1    D(1,2,4,3)              0.             estimate D2E/DX2             !
 ! D2    D(1,2,4,6)            180.             estimate D2E/DX2             !
 ! D3    D(9,2,4,3)            180.             estimate D2E/DX2             !
 ! D4    D(9,2,4,6)              0.             estimate D2E/DX2             !
 ! D5    D(1,2,9,7)            180.             estimate D2E/DX2             !
 ! D6    D(1,2,9,8)              0.             estimate D2E/DX2             !
 ! D7    D(4,2,9,7)              0.             estimate D2E/DX2             !
 ! D8    D(4,2,9,8)            180.             estimate D2E/DX2             !
 ! D9    D(2,4,6,5)            180.             estimate D2E/DX2             !
 ! D10   D(2,4,6,7)              0.             estimate D2E/DX2             !
 ! D11   D(3,4,6,5)              0.             estimate D2E/DX2             !
 ! D12   D(3,4,6,7)            180.             estimate D2E/DX2             !
 ! D13   D(4,6,7,9)              0.             estimate D2E/DX2             !
 ! D14   D(5,6,7,9)            180.             estimate D2E/DX2             !
 ! D15   D(6,7,9,2)              0.             estimate D2E/DX2             !
 ! D16   D(6,7,9,8)            180.             estimate D2E/DX2             !
 -----------------------------------------------------------------------------
 Trust Radius=3.00D-01 FncErr=1.00D-07 GrdErr=1.00D-06
 Number of steps in this run=  48 maximum allowed number of steps= 100.
 GradGradGradGradGradGradGradGradGradGradGradGradGradGradGradGradGradGrad

                          Input orientation:                          
 ---------------------------------------------------------------------
 Center     Atomic     Atomic              Coordinates (Angstroms)
 Number     Number      Type              X           Y           Z
 ---------------------------------------------------------------------
    1          1             0       -1.912500    0.000000   -0.759375
    2          6             0       -1.084375    0.000000   -0.218750
    3          1             0        0.434375    0.000000   -1.631250
    4          6             0        0.150000    0.000000   -0.684375
    5          1             0        1.912500    0.000000    0.371875
    6          6             0        0.921875    0.000000    0.375000
    7          7             0        0.181250    0.000000    1.418750
    8          1             0       -1.740625    0.000000    1.631250
    9          7             0       -1.003125    0.000000    1.053125
 ---------------------------------------------------------------------
                    Distance matrix (angstroms):
                    1          2          3          4          5
     1  H    0.000000
     2  C    0.988972   0.000000
     3  H    2.503595   2.074068   0.000000
     4  C    2.063863   1.319276   0.988656   0.000000
     5  H    3.988778   3.054521   2.489450   2.054768   0.000000
     6  C    3.052947   2.092266   2.064630   1.310750   0.990630
     7  N    3.021261   2.069592   3.060486   2.103357   2.023159
     8  H    2.396796   1.962948   3.921037   2.989412   3.864110
     9  N    2.027836   1.274468   3.045041   2.085331   2.994156
                    6          7          8          9
     6  C    0.000000
     7  N    1.279820   0.000000
     8  H    2.943989   1.933587   0.000000
     9  N    2.040950   1.239526   0.937088   0.000000
 Stoichiometry    C3H4N2
 Framework group  CS[SG(C3H4N2)]
 Deg. of freedom   15
 Full point group                 CS      NOp   2
 Largest Abelian subgroup         CS      NOp   2
 Largest concise Abelian subgroup C1      NOp   1
                         Standard orientation:                         
 ---------------------------------------------------------------------
 Center     Atomic     Atomic              Coordinates (Angstroms)
 Number     Number      Type              X           Y           Z
 ---------------------------------------------------------------------
    1          1             0        1.974407    0.585689    0.000000
    2          6             0        1.028833    0.295936    0.000000
    3          1             0        1.140941   -1.775099    0.000000
    4          6             0        0.595873   -0.950271    0.000000
    5          1             0       -1.344123   -1.627388    0.000000
    6          6             0       -0.712074   -0.864589    0.000000
    7          7             0       -1.039336    0.372682    0.000000
    8          1             0        0.028336    1.984773    0.000000
    9          7             0        0.000000    1.048113    0.000000
 ---------------------------------------------------------------------
 Rotational constants (GHZ):     11.1878032     10.4520048      5.4036973
 Isotopes: H-1,C-12,H-1,C-12,H-1,C-12,N-14,H-1,N-14
 Standard basis: 6-31+G(d,p) (6D, 7F)
 There are    86 symmetry adapted basis functions of A'  symmetry.
 There are    29 symmetry adapted basis functions of A"  symmetry.
 Crude estimate of integral set expansion from redundant integrals=1.000.
 Integral buffers will be    262144 words long.
 Raffenetti 2 integral format.
 Two-electron integral symmetry is turned on.
   115 basis functions      188 primitive gaussians
    18 alpha electrons       18 beta electrons
       nuclear repulsion energy       173.7391879471 Hartrees.
 One-electron integrals computed using PRISM.
 NBasis=   115 RedAO= T  NBF=    86    29
 NBsUse=   115 1.00D-04 NBFU=    86    29
 Projected INDO Guess.
 Initial guess orbital symmetries:
       Occupied  (A') (A') (A') (A') (A') (A') (A') (A') (A') (A')
                 (A') (A") (A') (A') (A') (A") (A') (A")
       Virtual   (A") (A') (A') (A") (A') (A') (A') (A') (A') (A')
                 (A') (A') (A') (A') (A') (A') (A') (A') (A') (A')
                 (A') (A') (A') (A') (A') (A') (A') (A') (A') (A')
                 (A') (A') (A') (A') (A') (A') (A') (A') (A') (A')
                 (A') (A') (A') (A') (A') (A') (A') (A') (A') (A')
                 (A') (A') (A') (A') (A') (A') (A') (A') (A') (A')
                 (A') (A') (A') (A') (A') (A') (A') (A') (A') (A')
                 (A') (A') (A') (A") (A") (A") (A") (A") (A") (A")
                 (A") (A") (A") (A") (A") (A") (A") (A") (A") (A")
                 (A") (A") (A") (A") (A") (A") (A")
 Requested convergence on RMS density matrix=1.00D-08 within  64 cycles.
 Requested convergence on MAX density matrix=1.00D-06.
 SCF Done:  E(RB-LYP) =  -226.057677558     A.U. after   13 cycles
             Convg  =    0.3698D-08             -V/T =  2.0011
             S**2   =   0.0000

 **********************************************************************

            Population analysis using the SCF density.

 **********************************************************************

 Orbital Symmetries:
       Occupied  (A') (A') (A') (A') (A') (A') (A') (A') (A') (A')
                 (A') (A') (A") (A') (A') (A") (A') (A")
       Virtual   (A') (A") (A') (A') (A") (A') (A') (A") (A') (A")
                 (A") (A') (A') (A') (A') (A') (A") (A') (A") (A')
                 (A') (A') (A') (A') (A') (A') (A') (A') (A') (A')
                 (A') (A") (A") (A') (A') (A") (A') (A') (A') (A')
                 (A") (A') (A') (A") (A') (A') (A') (A') (A') (A')
                 (A") (A') (A') (A") (A") (A') (A") (A") (A') (A')
                 (A') (A') (A') (A') (A") (A') (A") (A') (A") (A")
                 (A') (A') (A") (A') (A') (A") (A') (A') (A') (A")
                 (A') (A") (A") (A') (A') (A') (A') (A') (A') (A')
                 (A') (A') (A') (A') (A') (A') (A')
  The electronic state is 1-A'.
 Alpha  occ. eigenvalues --  -14.10419 -14.02753  -9.93238  -9.91362  -9.88970
 Alpha  occ. eigenvalues --   -1.02341  -0.76877  -0.72839  -0.58516  -0.55974
 Alpha  occ. eigenvalues --   -0.50826  -0.42615  -0.42573  -0.38956  -0.35257
 Alpha  occ. eigenvalues --   -0.23819  -0.22599  -0.21675
 Alpha virt. eigenvalues --   -0.01226   0.00660   0.01627   0.02524   0.04015
 Alpha virt. eigenvalues --    0.05115   0.05358   0.05462   0.07526   0.08897
 Alpha virt. eigenvalues --    0.10916   0.11114   0.11621   0.14633   0.15632
 Alpha virt. eigenvalues --    0.17060   0.17223   0.19927   0.20213   0.21562
 Alpha virt. eigenvalues --    0.22270   0.23370   0.25045   0.26984   0.28820
 Alpha virt. eigenvalues --    0.29955   0.31519   0.36830   0.42801   0.47725
 Alpha virt. eigenvalues --    0.51045   0.62420   0.65509   0.66661   0.68356
 Alpha virt. eigenvalues --    0.69305   0.74521   0.79753   0.84387   0.85279
 Alpha virt. eigenvalues --    0.85539   0.86156   0.90061   0.92201   0.94115
 Alpha virt. eigenvalues --    0.96303   0.98095   1.00451   1.08725   1.16642
 Alpha virt. eigenvalues --    1.17701   1.21014   1.24645   1.29721   1.32225
 Alpha virt. eigenvalues --    1.34447   1.40713   1.48206   1.49178   1.54704
 Alpha virt. eigenvalues --    1.75121   1.91720   1.92508   1.98698   2.00700
 Alpha virt. eigenvalues --    2.03341   2.12493   2.16603   2.19928   2.22894
 Alpha virt. eigenvalues --    2.28215   2.33973   2.39553   2.45834   2.46483
 Alpha virt. eigenvalues --    2.46811   2.50116   2.57326   2.60501   2.64779
 Alpha virt. eigenvalues --    2.69067   2.77498   2.87901   2.91076   3.04792
 Alpha virt. eigenvalues --    3.05389   3.23202   3.41169   3.41405   3.52897
 Alpha virt. eigenvalues --    3.76853   3.94951   4.02113   4.24872   4.29873
 Alpha virt. eigenvalues --    4.50073   4.90206
          Condensed to atoms (all electrons):
              1          2          3          4          5          6
  1  H    0.616925   0.391928  -0.004045  -0.070663  -0.000386   0.017324
  2  C    0.391928   5.147423  -0.011845   0.527622   0.030994  -0.113392
  3  H   -0.004045  -0.011845   0.652369   0.271195  -0.004633  -0.004583
  4  C   -0.070663   0.527622   0.271195   5.483472  -0.136001   0.049211
  5  H   -0.000386   0.030994  -0.004633  -0.136001   0.644522   0.450064
  6  C    0.017324  -0.113392  -0.004583   0.049211   0.450064   5.379404
  7  N    0.029883  -0.113771   0.017271   0.166104  -0.110766   0.114230
  8  H   -0.002894  -0.044123  -0.000220  -0.013585   0.000049   0.027861
  9  N   -0.081800   0.352442   0.012407  -0.372163   0.034833   0.158958
              7          8          9
  1  H    0.029883  -0.002894  -0.081800
  2  C   -0.113771  -0.044123   0.352442
  3  H    0.017271  -0.000220   0.012407
  4  C    0.166104  -0.013585  -0.372163
  5  H   -0.110766   0.000049   0.034833
  6  C    0.114230   0.027861   0.158958
  7  N    7.226966  -0.112569   0.058444
  8  H   -0.112569   0.486007   0.383720
  9  N    0.058444   0.383720   6.568715
 Total atomic charges:
              1
  1  H    0.103728
  2  C   -0.167278
  3  H    0.072086
  4  C    0.094807
  5  H    0.091326
  6  C   -0.079077
  7  N   -0.275791
  8  H    0.275754
  9  N   -0.115556
 Sum of Mulliken charges=   0.00000
 Atomic charges with hydrogens summed into heavy atoms:
              1
  1  H    0.000000
  2  C   -0.063549
  3  H    0.000000
  4  C    0.166893
  5  H    0.000000
  6  C    0.012249
  7  N   -0.275791
  8  H    0.000000
  9  N    0.160198
 Sum of Mulliken charges=   0.00000
 Electronic spatial extent (au):  <R**2>=   260.6316
 Charge=     0.0000 electrons
 Dipole moment (Debye):
    X=     2.1494    Y=     0.9268    Z=     0.0000  Tot=     2.3407
 Quadrupole moment (Debye-Ang):
   XX=   -31.0814   YY=   -22.8080   ZZ=   -31.2201
   XY=     2.5865   XZ=     0.0000   YZ=     0.0000
 Octapole moment (Debye-Ang**2):
  XXX=     9.1729  YYY=    11.1338  ZZZ=     0.0000  XYY=     0.6759
  XXY=    -2.6193  XXZ=     0.0000  XZZ=    -0.6269  YZZ=     2.0434
  YYZ=     0.0000  XYZ=     0.0000
 Hexadecapole moment (Debye-Ang**3):
 XXXX=  -165.2003 YYYY=  -129.8034 ZZZZ=   -36.8207 XXXY=     8.0762
 XXXZ=     0.0000 YYYX=     0.8724 YYYZ=     0.0000 ZZZX=     0.0000
 ZZZY=     0.0000 XXYY=   -51.2533 XXZZ=   -36.3255 YYZZ=   -35.2652
 XXYZ=     0.0000 YYXZ=     0.0000 ZZXY=     0.0856
 N-N= 1.737391879471D+02 E-N=-8.738803609598D+02  KE= 2.258143131062D+02
 Symmetry A'   KE= 2.174676346366D+02
 Symmetry A"   KE= 8.346678469516D+00
 ***** Axes restored to original set *****
 -------------------------------------------------------------------
 Center     Atomic                   Forces (Hartrees/Bohr)
 Number     Number              X              Y              Z
 -------------------------------------------------------------------
    1          1          -0.080251001    0.000000000   -0.041872633
    2          6          -0.026959368    0.000000000   -0.061452688
    3          1           0.023234610    0.000000000   -0.086919814
    4          6          -0.007242470    0.000000000   -0.050592102
    5          1           0.087878481    0.000000000    0.010769997
    6          6           0.020536995    0.000000000    0.014424859
    7          7           0.094789195    0.000000000    0.153546653
    8          1          -0.063864813    0.000000000    0.063519391
    9          7          -0.048121629    0.000000000   -0.001423663
 -------------------------------------------------------------------
 Cartesian Forces:  Max     0.153546653 RMS     0.052657127

 GradGradGradGradGradGradGradGradGradGradGradGradGradGradGradGradGradGrad
 Berny optimization.
 Internal  Forces:  Max     0.140277669 RMS     0.052802923
 Search for a local minimum.
 Step number   1 out of a maximum of  48
 All quantities printed in internal units (Hartrees-Bohrs-Radians)
 Second derivative matrix not updated -- first step.
     Eigenvalues ---    0.03204   0.03245   0.03263   0.03273   0.03342
     Eigenvalues ---    0.03375   0.16000   0.16000   0.16000   0.16000
     Eigenvalues ---    0.22000   0.22938   0.49374   0.49681   0.49740
     Eigenvalues ---    0.56490   0.56686   0.60708   0.68179   0.73042
     Eigenvalues ---    0.827791000.000001000.000001000.000001000.00000
     Eigenvalues --- 1000.000001000.000001000.000001000.000001000.00000
     Eigenvalues --- 1000.000001000.000001000.000001000.000001000.00000
     Eigenvalues --- 1000.000001000.000001000.00000
 RFO step:  Lambda=-1.37363460D-01.
 Linear search not attempted -- first point.
 Maximum step size (   0.300) exceeded in Quadratic search.
    -- Step size scaled by   0.693
 Iteration  1 RMS(Cart)=  0.06396105 RMS(Int)=  0.00061567
 Iteration  2 RMS(Cart)=  0.00075667 RMS(Int)=  0.00000808
 Iteration  3 RMS(Cart)=  0.00000041 RMS(Int)=  0.00000807
 Variable       Old X    -DE/DX   Delta X   Delta X   Delta X     New X
                                 (Linear)    (Quad)   (Total)
    R1        1.86889   0.09009   0.00000   0.09841   0.09841   1.96730
    R2        2.49307   0.09420   0.00000   0.08399   0.08400   2.57707
    R3        2.40839   0.12673   0.00000   0.10099   0.10098   2.50937
    R4        1.86829   0.08993   0.00000   0.09815   0.09815   1.96644
    R5        2.47696   0.13762   0.00000   0.11896   0.11897   2.59593
    R6        1.87202   0.08784   0.00000   0.09642   0.09642   1.96844
    R7        2.41851   0.09177   0.00000   0.07327   0.07327   2.49178
    R8        2.34237   0.14028   0.00000   0.09879   0.09877   2.44114
    R9        1.77084   0.08945   0.00000   0.08324   0.08324   1.85408
    A1        2.20252   0.01277   0.00000   0.02852   0.02852   2.23104
    A2        2.21295  -0.00370   0.00000  -0.00984  -0.00984   2.20311
    A3        1.86771  -0.00908   0.00000  -0.01868  -0.01868   1.84903
    A4        2.22327  -0.00379   0.00000  -0.00274  -0.00276   2.22051
    A5        1.83976   0.00244   0.00000  -0.00650  -0.00648   1.83328
    A6        2.22016   0.00135   0.00000   0.00924   0.00923   2.22939
    A7        2.19731   0.00151   0.00000   0.01046   0.01046   2.20777
    A8        1.89479   0.01764   0.00000   0.02723   0.02724   1.92203
    A9        2.19108  -0.01916   0.00000  -0.03769  -0.03769   2.15338
   A10        1.88850  -0.02496   0.00000  -0.03756  -0.03758   1.85091
   A11        1.93402   0.01395   0.00000   0.03552   0.03550   1.96952
   A12        2.17185   0.00240   0.00000   0.00410   0.00411   2.17595
   A13        2.17732  -0.01636   0.00000  -0.03962  -0.03961   2.13771
    D1        0.00000   0.00000   0.00000   0.00000   0.00000   0.00000
    D2        3.14159   0.00000   0.00000   0.00000   0.00000   3.14159
    D3        3.14159   0.00000   0.00000   0.00000   0.00000   3.14159
    D4        0.00000   0.00000   0.00000   0.00000   0.00000   0.00000
    D5        3.14159   0.00000   0.00000   0.00000   0.00000   3.14159
    D6        0.00000   0.00000   0.00000   0.00000   0.00000   0.00000
    D7        0.00000   0.00000   0.00000   0.00000   0.00000   0.00000
    D8        3.14159   0.00000   0.00000   0.00000   0.00000   3.14159
    D9        3.14159   0.00000   0.00000   0.00000   0.00000   3.14159
   D10        0.00000   0.00000   0.00000   0.00000   0.00000   0.00000
   D11        0.00000   0.00000   0.00000   0.00000   0.00000   0.00000
   D12        3.14159   0.00000   0.00000   0.00000   0.00000   3.14159
   D13        0.00000   0.00000   0.00000   0.00000   0.00000   0.00000
   D14        3.14159   0.00000   0.00000   0.00000   0.00000   3.14159
   D15        0.00000   0.00000   0.00000   0.00000   0.00000   0.00000
   D16        3.14159   0.00000   0.00000   0.00000   0.00000   3.14159
         Item               Value     Threshold  Converged?
 Maximum Force            0.140278     0.000450     NO 
 RMS     Force            0.052803     0.000300     NO 
 Maximum Displacement     0.174842     0.001800     NO 
 RMS     Displacement     0.063914     0.001200     NO 
 Predicted change in Energy=-2.677880D-02
 GradGradGradGradGradGradGradGradGradGradGradGradGradGradGradGradGradGrad

                          Input orientation:                          
 ---------------------------------------------------------------------
 Center     Atomic     Atomic              Coordinates (Angstroms)
 Number     Number      Type              X           Y           Z
 ---------------------------------------------------------------------
    1          1             0       -1.806845    0.000000   -1.180218
    2          6             0       -0.921714    0.000000   -0.632198
    3          1             0        0.657508    0.000000   -2.103801
    4          6             0        0.356420    0.000000   -1.107719
    5          1             0        2.194573    0.000000    0.030458
    6          6             0        1.153092    0.000000    0.011381
    7          7             0        0.407575    0.000000    1.098991
    8          1             0       -1.579316    0.000000    1.310963
    9          7             0       -0.818324    0.000000    0.691674
 ---------------------------------------------------------------------
                    Distance matrix (angstroms):
                    1          2          3          4          5
     1  H    0.000000
     2  C    1.041049   0.000000
     3  H    2.631738   2.158601   0.000000
     4  C    2.164480   1.363726   1.040593   0.000000
     5  H    4.180560   3.185963   2.630139   2.162002   0.000000
     6  C    3.190789   2.172329   2.172463   1.373707   1.041656
     7  N    3.177806   2.182665   3.212529   2.207303   2.082096
     8  H    2.501550   2.051418   4.082156   3.097918   3.985214
     9  N    2.116873   1.327903   3.161133   2.148916   3.084600
                    6          7          8          9
     6  C    0.000000
     7  N    1.318595   0.000000
     8  H    3.025718   1.998166   0.000000
     9  N    2.085493   1.291796   0.981136   0.000000
 Stoichiometry    C3H4N2
 Framework group  CS[SG(C3H4N2)]
 Deg. of freedom   15
 Full point group                 CS      NOp   2
 Largest Abelian subgroup         CS      NOp   2
 Largest concise Abelian subgroup C1      NOp   1
                         Standard orientation:                         
 ---------------------------------------------------------------------
 Center     Atomic     Atomic              Coordinates (Angstroms)
 Number     Number      Type              X           Y           Z
 ---------------------------------------------------------------------
    1          1             0        2.070584    0.629766    0.000000
    2          6             0        1.082728    0.301250    0.000000
    3          1             0        1.200883   -1.854115    0.000000
    4          6             0        0.628975   -0.984774    0.000000
    5          1             0       -1.422586   -1.666937    0.000000
    6          6             0       -0.740691   -0.879495    0.000000
    7          7             0       -1.098143    0.389725    0.000000
    8          1             0        0.012046    2.051094    0.000000
    9          7             0        0.000000    1.070032    0.000000
 ---------------------------------------------------------------------
 Rotational constants (GHZ):     10.1044661      9.8907574      4.9982348
 Isotopes: H-1,C-12,H-1,C-12,H-1,C-12,N-14,H-1,N-14
 Standard basis: 6-31+G(d,p) (6D, 7F)
 There are    86 symmetry adapted basis functions of A'  symmetry.
 There are    29 symmetry adapted basis functions of A"  symmetry.
 Crude estimate of integral set expansion from redundant integrals=1.000.
 Integral buffers will be    262144 words long.
 Raffenetti 2 integral format.
 Two-electron integral symmetry is turned on.
   115 basis functions      188 primitive gaussians
    18 alpha electrons       18 beta electrons
       nuclear repulsion energy       167.0067330861 Hartrees.
 One-electron integrals computed using PRISM.
 NBasis=   115 RedAO= T  NBF=    86    29
 NBsUse=   115 1.00D-04 NBFU=    86    29
 Initial guess read from the read-write file:
 Initial guess orbital symmetries:
       Occupied  (A') (A') (A') (A') (A') (A') (A') (A') (A') (A')
                 (A') (A') (A") (A') (A') (A") (A') (A")
       Virtual   (A') (A") (A') (A') (A") (A') (A') (A") (A') (A")
                 (A") (A') (A') (A') (A') (A') (A") (A') (A") (A')
                 (A') (A') (A') (A') (A') (A') (A') (A') (A') (A')
                 (A') (A") (A") (A') (A') (A") (A') (A') (A') (A')
                 (A") (A') (A') (A") (A') (A') (A') (A') (A') (A')
                 (A") (A') (A') (A") (A") (A') (A") (A") (A') (A')
                 (A') (A') (A') (A') (A") (A') (A") (A') (A") (A")
                 (A') (A') (A") (A') (A') (A") (A') (A') (A') (A")
                 (A') (A") (A") (A') (A') (A') (A') (A') (A') (A')
                 (A') (A') (A') (A') (A') (A') (A')
 Requested convergence on RMS density matrix=1.00D-08 within  64 cycles.
 Requested convergence on MAX density matrix=1.00D-06.
 SCF Done:  E(RB-LYP) =  -226.123163218     A.U. after   12 cycles
             Convg  =    0.1841D-08             -V/T =  2.0063
             S**2   =   0.0000
 ***** Axes restored to original set *****
 -------------------------------------------------------------------
 Center     Atomic                   Forces (Hartrees/Bohr)
 Number     Number              X              Y              Z
 -------------------------------------------------------------------
    1          1          -0.034324900    0.000000000   -0.012862962
    2          6          -0.002977984    0.000000000   -0.028382599
    3          1           0.009480264    0.000000000   -0.035049594
    4          6          -0.001894563    0.000000000   -0.015798496
    5          1           0.035596504    0.000000000    0.007512769
    6          6           0.004232439    0.000000000   -0.002055863
    7          7           0.047997339    0.000000000    0.066255226
    8          1          -0.022442204    0.000000000    0.027324674
    9          7          -0.035666894    0.000000000   -0.006943156
 -------------------------------------------------------------------
 Cartesian Forces:  Max     0.066255226 RMS     0.023045401

 GradGradGradGradGradGradGradGradGradGradGradGradGradGradGradGradGradGrad
 Berny optimization.
 Internal  Forces:  Max     0.065061038 RMS     0.021558869
 Search for a local minimum.
 Step number   2 out of a maximum of  48
 All quantities printed in internal units (Hartrees-Bohrs-Radians)
 Update second derivatives using information from points  1  2
 Trust test= 2.45D+00 RLast= 3.00D-01 DXMaxT set to 4.24D-01
     Eigenvalues ---    0.03204   0.03247   0.03260   0.03273   0.03342
     Eigenvalues ---    0.03375   0.15914   0.16000   0.16000   0.16012
     Eigenvalues ---    0.22017   0.23298   0.49456   0.49711   0.51006
     Eigenvalues ---    0.57169   0.58273   0.61677   0.68450   0.73067
     Eigenvalues ---    0.809081000.000001000.000001000.000001000.00000
     Eigenvalues --- 1000.000001000.000001000.000001000.000001000.00000
     Eigenvalues --- 1000.000001000.000001000.000001000.000001000.00000
     Eigenvalues --- 1000.000001000.000001000.00000
 RFO step:  Lambda=-2.81204783D-03.
 Quartic linear search produced a step of  0.92562.
 Iteration  1 RMS(Cart)=  0.06571968 RMS(Int)=  0.00166425
 Iteration  2 RMS(Cart)=  0.00204678 RMS(Int)=  0.00006607
 Iteration  3 RMS(Cart)=  0.00000400 RMS(Int)=  0.00006598
 Iteration  4 RMS(Cart)=  0.00000000 RMS(Int)=  0.00006598
 Variable       Old X    -DE/DX   Delta X   Delta X   Delta X     New X
                                 (Linear)    (Quad)   (Total)
    R1        1.96730   0.03596   0.09109   0.00288   0.09397   2.06127
    R2        2.57707   0.03691   0.07775  -0.00568   0.07196   2.64903
    R3        2.50937   0.04912   0.09347  -0.00778   0.08562   2.59499
    R4        1.96644   0.03629   0.09085   0.00439   0.09524   2.06167
    R5        2.59593   0.05167   0.11012  -0.01537   0.09477   2.69070
    R6        1.96844   0.03573   0.08925   0.00556   0.09482   2.06326
    R7        2.49178   0.03709   0.06782  -0.00210   0.06584   2.55762
    R8        2.44114   0.06506   0.09143   0.01451   0.10599   2.54713
    R9        1.85408   0.03465   0.07705  -0.00456   0.07249   1.92657
    A1        2.23104   0.00782   0.02640   0.04998   0.07648   2.30752
    A2        2.20311  -0.00622  -0.00911  -0.05890  -0.06792   2.13519
    A3        1.84903  -0.00161  -0.01729   0.00892  -0.00856   1.84047
    A4        2.22051  -0.00206  -0.00255  -0.00059  -0.00309   2.21742
    A5        1.83328   0.00203  -0.00600  -0.00584  -0.01194   1.82134
    A6        2.22939   0.00004   0.00855   0.00643   0.01503   2.24442
    A7        2.20777   0.00264   0.00968   0.03768   0.04731   2.25508
    A8        1.92203   0.00821   0.02521   0.01255   0.03786   1.95989
    A9        2.15338  -0.01085  -0.03489  -0.05023  -0.08517   2.06821
   A10        1.85091  -0.01111  -0.03479  -0.00991  -0.04448   1.80644
   A11        1.96952   0.00248   0.03286  -0.00572   0.02712   1.99664
   A12        2.17595   0.00528   0.00380   0.04740   0.05121   2.22717
   A13        2.13771  -0.00776  -0.03666  -0.04168  -0.07833   2.05938
    D1        0.00000   0.00000   0.00000   0.00000   0.00000   0.00000
    D2        3.14159   0.00000   0.00000   0.00000   0.00000   3.14159
    D3        3.14159   0.00000   0.00000   0.00000   0.00000   3.14159
    D4        0.00000   0.00000   0.00000   0.00000   0.00000   0.00000
    D5        3.14159   0.00000   0.00000   0.00000   0.00000   3.14159
    D6        0.00000   0.00000   0.00000   0.00000   0.00000   0.00000
    D7        0.00000   0.00000   0.00000   0.00000   0.00000   0.00000
    D8        3.14159   0.00000   0.00000   0.00000   0.00000   3.14159
    D9        3.14159   0.00000   0.00000   0.00000   0.00000   3.14159
   D10        0.00000   0.00000   0.00000   0.00000   0.00000   0.00000
   D11        0.00000   0.00000   0.00000   0.00000   0.00000   0.00000
   D12        3.14159   0.00000   0.00000   0.00000   0.00000   3.14159
   D13        0.00000   0.00000   0.00000   0.00000   0.00000   0.00000
   D14        3.14159   0.00000   0.00000   0.00000   0.00000   3.14159
   D15        0.00000   0.00000   0.00000   0.00000   0.00000   0.00000
   D16        3.14159   0.00000   0.00000   0.00000   0.00000   3.14159
         Item               Value     Threshold  Converged?
 Maximum Force            0.065061     0.000450     NO 
 RMS     Force            0.021559     0.000300     NO 
 Maximum Displacement     0.198860     0.001800     NO 
 RMS     Displacement     0.065679     0.001200     NO 
 Predicted change in Energy=-2.560693D-02
 GradGradGradGradGradGradGradGradGradGradGradGradGradGradGradGradGradGrad

                          Input orientation:                          
 ---------------------------------------------------------------------
 Center     Atomic     Atomic              Coordinates (Angstroms)
 Number     Number      Type              X           Y           Z
 ---------------------------------------------------------------------
    1          1             0       -1.915341    0.000000   -1.190814
    2          6             0       -0.949828    0.000000   -0.683290
    3          1             0        0.685706    0.000000   -2.207501
    4          6             0        0.366935    0.000000   -1.164118
    5          1             0        2.259696    0.000000    0.101709
    6          6             0        1.171680    0.000000    0.010512
    7          7             0        0.428787    0.000000    1.141837
    8          1             0       -1.594543    0.000000    1.370506
    9          7             0       -0.839488    0.000000    0.685479
 ---------------------------------------------------------------------
                    Distance matrix (angstroms):
                    1          2          3          4          5
     1  H    0.000000
     2  C    1.090777   0.000000
     3  H    2.792686   2.235664   0.000000
     4  C    2.282432   1.401806   1.090991   0.000000
     5  H    4.370531   3.304129   2.794619   2.277029   0.000000
     6  C    3.312534   2.232075   2.270628   1.423858   1.091831
     7  N    3.306991   2.287284   3.359177   2.306785   2.105729
     8  H    2.581331   2.152611   4.242837   3.204952   4.057709
     9  N    2.162853   1.373209   3.270405   2.208273   3.153685
                    6          7          8          9
     6  C    0.000000
     7  N    1.353436   0.000000
     8  H    3.082463   2.036211   0.000000
     9  N    2.121410   1.347881   1.019495   0.000000
 Stoichiometry    C3H4N2
 Framework group  CS[SG(C3H4N2)]
 Deg. of freedom   15
 Full point group                 CS      NOp   2
 Largest Abelian subgroup         CS      NOp   2
 Largest concise Abelian subgroup C1      NOp   1
                         Standard orientation:                         
 ---------------------------------------------------------------------
 Center     Atomic     Atomic              Coordinates (Angstroms)
 Number     Number      Type              X           Y           Z
 ---------------------------------------------------------------------
    1          1             0        2.133227    0.731798    0.000000
    2          6             0        1.128771    0.306519    0.000000
    3          1             0        1.271423   -1.924589    0.000000
    4          6             0        0.666292   -1.016801    0.000000
    5          1             0       -1.512370   -1.678839    0.000000
    6          6             0       -0.752343   -0.894967    0.000000
    7          7             0       -1.156737    0.396642    0.000000
    8          1             0       -0.051441    2.106751    0.000000
    9          7             0        0.000000    1.088555    0.000000
 ---------------------------------------------------------------------
 Rotational constants (GHZ):      9.5097636      9.1893593      4.6734082
 Isotopes: H-1,C-12,H-1,C-12,H-1,C-12,N-14,H-1,N-14
 Standard basis: 6-31+G(d,p) (6D, 7F)
 There are    86 symmetry adapted basis functions of A'  symmetry.
 There are    29 symmetry adapted basis functions of A"  symmetry.
 Crude estimate of integral set expansion from redundant integrals=1.000.
 Integral buffers will be    262144 words long.
 Raffenetti 2 integral format.
 Two-electron integral symmetry is turned on.
   115 basis functions      188 primitive gaussians
    18 alpha electrons       18 beta electrons
       nuclear repulsion energy       161.4039014772 Hartrees.
 One-electron integrals computed using PRISM.
 NBasis=   115 RedAO= T  NBF=    86    29
 NBsUse=   115 1.00D-04 NBFU=    86    29
 Initial guess read from the read-write file:
 Initial guess orbital symmetries:
       Occupied  (A') (A') (A') (A') (A') (A') (A') (A') (A') (A')
                 (A') (A') (A") (A') (A') (A') (A") (A")
       Virtual   (A') (A") (A') (A') (A") (A') (A") (A') (A') (A")
                 (A") (A') (A') (A') (A') (A") (A') (A') (A') (A")
                 (A') (A') (A') (A') (A') (A') (A') (A') (A') (A')
                 (A') (A") (A') (A") (A') (A") (A') (A') (A') (A')
                 (A') (A") (A') (A") (A') (A') (A') (A') (A') (A')
                 (A") (A') (A') (A") (A") (A') (A") (A") (A') (A')
                 (A') (A') (A') (A') (A') (A") (A") (A') (A") (A')
                 (A") (A') (A") (A') (A") (A') (A') (A') (A') (A")
                 (A') (A") (A") (A') (A') (A') (A') (A') (A') (A')
                 (A') (A') (A') (A') (A') (A') (A')
 Requested convergence on RMS density matrix=1.00D-08 within  64 cycles.
 Requested convergence on MAX density matrix=1.00D-06.
 SCF Done:  E(RB-LYP) =  -226.140766055     A.U. after   12 cycles
             Convg  =    0.2071D-08             -V/T =  2.0101
             S**2   =   0.0000
 ***** Axes restored to original set *****
 -------------------------------------------------------------------
 Center     Atomic                   Forces (Hartrees/Bohr)
 Number     Number              X              Y              Z
 -------------------------------------------------------------------
    1          1           0.002224414    0.000000000    0.001709465
    2          6           0.004012341    0.000000000   -0.002677117
    3          1          -0.000533917    0.000000000    0.003054731
    4          6          -0.003400454    0.000000000    0.000940523
    5          1          -0.002226770    0.000000000   -0.001533880
    6          6           0.006030336    0.000000000    0.001467045
    7          7           0.012562730    0.000000000   -0.002122123
    8          1           0.000645125    0.000000000   -0.002440765
    9          7          -0.019313806    0.000000000    0.001602121
 -------------------------------------------------------------------
 Cartesian Forces:  Max     0.019313806 RMS     0.004881248

 GradGradGradGradGradGradGradGradGradGradGradGradGradGradGradGradGradGrad
 Berny optimization.
 Internal  Forces:  Max     0.013475808 RMS     0.002884884
 Search for a local minimum.
 Step number   3 out of a maximum of  48
 All quantities printed in internal units (Hartrees-Bohrs-Radians)
 Update second derivatives using information from points  2  3
 Trust test= 6.87D-01 RLast= 3.20D-01 DXMaxT set to 4.24D-01
     Eigenvalues ---    0.03203   0.03248   0.03251   0.03273   0.03342
     Eigenvalues ---    0.03372   0.15362   0.16000   0.16002   0.16030
     Eigenvalues ---    0.22032   0.23401   0.45959   0.49513   0.49713
     Eigenvalues ---    0.57449   0.58213   0.59374   0.65615   0.68643
     Eigenvalues ---    0.808191000.000001000.000001000.000001000.00000
     Eigenvalues --- 1000.000001000.000001000.000001000.000001000.00000
     Eigenvalues --- 1000.000001000.000001000.000001000.000001000.00000
     Eigenvalues --- 1000.000001000.000001000.00000
 RFO step:  Lambda=-6.39346859D-04.
 Quartic linear search produced a step of -0.02184.
 Iteration  1 RMS(Cart)=  0.00868310 RMS(Int)=  0.00004009
 Iteration  2 RMS(Cart)=  0.00004225 RMS(Int)=  0.00001191
 Iteration  3 RMS(Cart)=  0.00000000 RMS(Int)=  0.00001191
 Variable       Old X    -DE/DX   Delta X   Delta X   Delta X     New X
                                 (Linear)    (Quad)   (Total)
    R1        2.06127  -0.00276  -0.00205  -0.00231  -0.00436   2.05691
    R2        2.64903  -0.00229  -0.00157  -0.00248  -0.00405   2.64498
    R3        2.59499  -0.00103  -0.00187   0.00237   0.00053   2.59551
    R4        2.06167  -0.00308  -0.00208  -0.00290  -0.00498   2.05670
    R5        2.69070  -0.00075  -0.00207   0.00085  -0.00124   2.68946
    R6        2.06326  -0.00235  -0.00207  -0.00153  -0.00360   2.05966
    R7        2.55762  -0.00097  -0.00144   0.00133  -0.00012   2.55750
    R8        2.54713   0.01348  -0.00231   0.01985   0.01754   2.56467
    R9        1.92657  -0.00212  -0.00158  -0.00087  -0.00245   1.92411
    A1        2.30752  -0.00064  -0.00167   0.00050  -0.00118   2.30633
    A2        2.13519  -0.00163   0.00148  -0.00807  -0.00660   2.12859
    A3        1.84047   0.00228   0.00019   0.00757   0.00779   1.84826
    A4        2.21742  -0.00152   0.00007  -0.00208  -0.00200   2.21542
    A5        1.82134   0.00383   0.00026   0.00848   0.00873   1.83007
    A6        2.24442  -0.00231  -0.00033  -0.00641  -0.00673   2.23769
    A7        2.25508  -0.00023  -0.00103  -0.00114  -0.00216   2.25292
    A8        1.95989  -0.00232  -0.00083  -0.01206  -0.01292   1.94697
    A9        2.06821   0.00255   0.00186   0.01320   0.01508   2.08329
   A10        1.80644   0.00197   0.00097   0.01439   0.01535   1.82179
   A11        1.99664  -0.00576  -0.00059  -0.01839  -0.01895   1.97768
   A12        2.22717   0.00156  -0.00112   0.00236   0.00123   2.22840
   A13        2.05938   0.00420   0.00171   0.01602   0.01772   2.07710
    D1        0.00000   0.00000   0.00000   0.00000   0.00000   0.00000
    D2        3.14159   0.00000   0.00000   0.00000   0.00000   3.14159
    D3        3.14159   0.00000   0.00000   0.00000   0.00000   3.14159
    D4        0.00000   0.00000   0.00000   0.00000   0.00000   0.00000
    D5        3.14159   0.00000   0.00000   0.00000   0.00000   3.14159
    D6        0.00000   0.00000   0.00000   0.00000   0.00000   0.00000
    D7        0.00000   0.00000   0.00000   0.00000   0.00000   0.00000
    D8        3.14159   0.00000   0.00000   0.00000   0.00000   3.14159
    D9        3.14159   0.00000   0.00000   0.00000   0.00000   3.14159
   D10        0.00000   0.00000   0.00000   0.00000   0.00000   0.00000
   D11        0.00000   0.00000   0.00000   0.00000   0.00000   0.00000
   D12        3.14159   0.00000   0.00000   0.00000   0.00000   3.14159
   D13        0.00000   0.00000   0.00000   0.00000   0.00000   0.00000
   D14        3.14159   0.00000   0.00000   0.00000   0.00000   3.14159
   D15        0.00000   0.00000   0.00000   0.00000   0.00000   0.00000
   D16        3.14159   0.00000   0.00000   0.00000   0.00000   3.14159
         Item               Value     Threshold  Converged?
 Maximum Force            0.013476     0.000450     NO 
 RMS     Force            0.002885     0.000300     NO 
 Maximum Displacement     0.028119     0.001800     NO 
 RMS     Displacement     0.008680     0.001200     NO 
 Predicted change in Energy=-3.283648D-04
 GradGradGradGradGradGradGradGradGradGradGradGradGradGradGradGradGradGrad

                          Input orientation:                          
 ---------------------------------------------------------------------
 Center     Atomic     Atomic              Coordinates (Angstroms)
 Number     Number      Type              X           Y           Z
 ---------------------------------------------------------------------
    1          1             0       -1.912837    0.000000   -1.184852
    2          6             0       -0.950600    0.000000   -0.676061
    3          1             0        0.681963    0.000000   -2.195622
    4          6             0        0.364749    0.000000   -1.154517
    5          1             0        2.264834    0.000000    0.094078
    6          6             0        1.177890    0.000000    0.013519
    7          7             0        0.428896    0.000000    1.140738
    8          1             0       -1.612016    0.000000    1.372178
    9          7             0       -0.852608    0.000000    0.693926
 ---------------------------------------------------------------------
                    Distance matrix (angstroms):
                    1          2          3          4          5
     1  H    0.000000
     2  C    1.088471   0.000000
     3  H    2.784716   2.230319   0.000000
     4  C    2.277788   1.399665   1.088358   0.000000
     5  H    4.369050   3.306377   2.783560   2.273612   0.000000
     6  C    3.314918   2.237406   2.264122   1.423203   1.089925
     7  N    3.300315   2.281177   3.345944   2.296151   2.113330
     8  H    2.574664   2.152384   4.241643   3.208082   4.082096
     9  N    2.157288   1.373487   3.271757   2.213301   3.174628
                    6          7          8          9
     6  C    0.000000
     7  N    1.353371   0.000000
     8  H    3.103148   2.053993   0.000000
     9  N    2.141466   1.357164   1.018197   0.000000
 Stoichiometry    C3H4N2
 Framework group  CS[SG(C3H4N2)]
 Deg. of freedom   15
 Full point group                 CS      NOp   2
 Largest Abelian subgroup         CS      NOp   2
 Largest concise Abelian subgroup C1      NOp   1
                         Standard orientation:                         
 ---------------------------------------------------------------------
 Center     Atomic     Atomic              Coordinates (Angstroms)
 Number     Number      Type              X           Y           Z
 ---------------------------------------------------------------------
    1          1             0        2.126649    0.736731    0.000000
    2          6             0        1.124907    0.310958    0.000000
    3          1             0        1.274349   -1.914350    0.000000
    4          6             0        0.666540   -1.011525    0.000000
    5          1             0       -1.500825   -1.698435    0.000000
    6          6             0       -0.752730   -0.905787    0.000000
    7          7             0       -1.155021    0.386411    0.000000
    8          1             0       -0.047327    2.116123    0.000000
    9          7             0        0.000000    1.099026    0.000000
 ---------------------------------------------------------------------
 Rotational constants (GHZ):      9.4018562      9.2557758      4.6641220
 Isotopes: H-1,C-12,H-1,C-12,H-1,C-12,N-14,H-1,N-14
 Standard basis: 6-31+G(d,p) (6D, 7F)
 There are    86 symmetry adapted basis functions of A'  symmetry.
 There are    29 symmetry adapted basis functions of A"  symmetry.
 Crude estimate of integral set expansion from redundant integrals=1.000.
 Integral buffers will be    262144 words long.
 Raffenetti 2 integral format.
 Two-electron integral symmetry is turned on.
   115 basis functions      188 primitive gaussians
    18 alpha electrons       18 beta electrons
       nuclear repulsion energy       161.2342159450 Hartrees.
 One-electron integrals computed using PRISM.
 NBasis=   115 RedAO= T  NBF=    86    29
 NBsUse=   115 1.00D-04 NBFU=    86    29
 Initial guess read from the read-write file:
 Initial guess orbital symmetries:
       Occupied  (A') (A') (A') (A') (A') (A') (A') (A') (A') (A')
                 (A') (A') (A") (A') (A') (A') (A") (A")
       Virtual   (A") (A') (A') (A') (A") (A') (A') (A") (A') (A")
                 (A') (A") (A') (A') (A') (A') (A") (A') (A') (A")
                 (A') (A') (A') (A') (A') (A') (A') (A') (A') (A')
                 (A') (A') (A") (A') (A") (A") (A') (A') (A') (A')
                 (A') (A") (A') (A") (A') (A') (A') (A') (A') (A')
                 (A') (A') (A") (A") (A") (A') (A") (A") (A') (A')
                 (A') (A') (A') (A') (A') (A") (A') (A") (A') (A")
                 (A') (A") (A") (A') (A") (A') (A') (A') (A") (A')
                 (A") (A') (A') (A") (A') (A') (A') (A') (A') (A')
                 (A') (A') (A') (A') (A') (A') (A')
 Requested convergence on RMS density matrix=1.00D-08 within  64 cycles.
 Requested convergence on MAX density matrix=1.00D-06.
 SCF Done:  E(RB-LYP) =  -226.141092873     A.U. after   10 cycles
             Convg  =    0.5547D-08             -V/T =  2.0102
             S**2   =   0.0000
 ***** Axes restored to original set *****
 -------------------------------------------------------------------
 Center     Atomic                   Forces (Hartrees/Bohr)
 Number     Number              X              Y              Z
 -------------------------------------------------------------------
    1          1           0.000967046    0.000000000    0.000347504
    2          6           0.002318821    0.000000000   -0.001883340
    3          1          -0.000384373    0.000000000    0.001007483
    4          6          -0.002629439    0.000000000   -0.000612003
    5          1          -0.001424192    0.000000000   -0.000112008
    6          6          -0.003230752    0.000000000    0.001820963
    7          7           0.008968228    0.000000000    0.003547489
    8          1           0.001446804    0.000000000   -0.000730830
    9          7          -0.006032144    0.000000000   -0.003385256
 -------------------------------------------------------------------
 Cartesian Forces:  Max     0.008968228 RMS     0.002565537

 GradGradGradGradGradGradGradGradGradGradGradGradGradGradGradGradGradGrad
 Berny optimization.
 Internal  Forces:  Max     0.006051825 RMS     0.001568806
 Search for a local minimum.
 Step number   4 out of a maximum of  48
 All quantities printed in internal units (Hartrees-Bohrs-Radians)
 Update second derivatives using information from points  1  2  3  4
 Trust test= 9.95D-01 RLast= 4.39D-02 DXMaxT set to 4.24D-01
     Eigenvalues ---    0.03203   0.03247   0.03250   0.03273   0.03342
     Eigenvalues ---    0.03373   0.15241   0.15824   0.16002   0.16092
     Eigenvalues ---    0.21902   0.33633   0.44670   0.46248   0.49606
     Eigenvalues ---    0.49742   0.57727   0.60140   0.60916   0.72105
     Eigenvalues ---    0.736481000.000001000.000001000.000001000.00000
     Eigenvalues --- 1000.000001000.000001000.000001000.000001000.00000
     Eigenvalues --- 1000.000001000.000001000.000001000.000001000.00000
     Eigenvalues --- 1000.000001000.000001000.00000
 RFO step:  Lambda=-1.96886389D-04.
 Quartic linear search produced a step of  0.00597.
 Iteration  1 RMS(Cart)=  0.00347904 RMS(Int)=  0.00000940
 Iteration  2 RMS(Cart)=  0.00001076 RMS(Int)=  0.00000395
 Iteration  3 RMS(Cart)=  0.00000000 RMS(Int)=  0.00000395
 Variable       Old X    -DE/DX   Delta X   Delta X   Delta X     New X
                                 (Linear)    (Quad)   (Total)
    R1        2.05691  -0.00102  -0.00003  -0.00267  -0.00270   2.05422
    R2        2.64498  -0.00406  -0.00002  -0.00786  -0.00789   2.63710
    R3        2.59551  -0.00009   0.00000   0.00106   0.00106   2.59657
    R4        2.05670  -0.00108  -0.00003  -0.00297  -0.00300   2.05370
    R5        2.68946   0.00064  -0.00001   0.00060   0.00060   2.69006
    R6        2.05966  -0.00143  -0.00002  -0.00329  -0.00331   2.05635
    R7        2.55750  -0.00255   0.00000  -0.00302  -0.00301   2.55449
    R8        2.56467   0.00605   0.00010   0.01369   0.01379   2.57846
    R9        1.92411  -0.00157  -0.00001  -0.00280  -0.00281   1.92130
    A1        2.30633  -0.00008  -0.00001   0.00002   0.00002   2.30635
    A2        2.12859   0.00021  -0.00004  -0.00077  -0.00080   2.12779
    A3        1.84826  -0.00013   0.00005   0.00075   0.00079   1.84905
    A4        2.21542  -0.00029  -0.00001  -0.00002  -0.00003   2.21539
    A5        1.83007   0.00041   0.00005   0.00030   0.00035   1.83043
    A6        2.23769  -0.00013  -0.00004  -0.00029  -0.00033   2.23737
    A7        2.25292  -0.00135  -0.00001  -0.00544  -0.00545   2.24747
    A8        1.94697   0.00268  -0.00008   0.00643   0.00637   1.95334
    A9        2.08329  -0.00133   0.00009  -0.00100  -0.00091   2.08238
   A10        1.82179  -0.00378   0.00009  -0.00840  -0.00830   1.81349
   A11        1.97768   0.00082  -0.00011   0.00091   0.00079   1.97848
   A12        2.22840   0.00000   0.00001   0.00005   0.00006   2.22846
   A13        2.07710  -0.00081   0.00011  -0.00096  -0.00085   2.07625
    D1        0.00000   0.00000   0.00000   0.00000   0.00000   0.00000
    D2        3.14159   0.00000   0.00000   0.00000   0.00000   3.14159
    D3        3.14159   0.00000   0.00000   0.00000   0.00000   3.14159
    D4        0.00000   0.00000   0.00000   0.00000   0.00000   0.00000
    D5        3.14159   0.00000   0.00000   0.00000   0.00000   3.14159
    D6        0.00000   0.00000   0.00000   0.00000   0.00000   0.00000
    D7        0.00000   0.00000   0.00000   0.00000   0.00000   0.00000
    D8        3.14159   0.00000   0.00000   0.00000   0.00000   3.14159
    D9        3.14159   0.00000   0.00000   0.00000   0.00000   3.14159
   D10        0.00000   0.00000   0.00000   0.00000   0.00000   0.00000
   D11        0.00000   0.00000   0.00000   0.00000   0.00000   0.00000
   D12        3.14159   0.00000   0.00000   0.00000   0.00000   3.14159
   D13        0.00000   0.00000   0.00000   0.00000   0.00000   0.00000
   D14        3.14159   0.00000   0.00000   0.00000   0.00000   3.14159
   D15        0.00000   0.00000   0.00000   0.00000   0.00000   0.00000
   D16        3.14159   0.00000   0.00000   0.00000   0.00000   3.14159
         Item               Value     Threshold  Converged?
 Maximum Force            0.006052     0.000450     NO 
 RMS     Force            0.001569     0.000300     NO 
 Maximum Displacement     0.010198     0.001800     NO 
 RMS     Displacement     0.003479     0.001200     NO 
 Predicted change in Energy=-9.840276D-05
 GradGradGradGradGradGradGradGradGradGradGradGradGradGradGradGradGradGrad

                          Input orientation:                          
 ---------------------------------------------------------------------
 Center     Atomic     Atomic              Coordinates (Angstroms)
 Number     Number      Type              X           Y           Z
 ---------------------------------------------------------------------
    1          1             0       -1.909828    0.000000   -1.186965
    2          6             0       -0.949220    0.000000   -0.678145
    3          1             0        0.680053    0.000000   -2.193564
    4          6             0        0.362560    0.000000   -1.154203
    5          1             0        2.261020    0.000000    0.089337
    6          6             0        1.175430    0.000000    0.014407
    7          7             0        0.434065    0.000000    1.144752
    8          1             0       -1.612574    0.000000    1.368698
    9          7             0       -0.853284    0.000000    0.692550
 ---------------------------------------------------------------------
                    Distance matrix (angstroms):
                    1          2          3          4          5
     1  H    0.000000
     2  C    1.087044   0.000000
     3  H    2.778619   2.225090   0.000000
     4  C    2.272624   1.395492   1.086772   0.000000
     5  H    4.361756   3.300708   2.776886   2.269480   0.000000
     6  C    3.310908   2.234674   2.262860   1.423519   1.088172
     7  N    3.306167   2.288326   3.347367   2.300067   2.109897
     8  H    2.572891   2.151652   4.236254   3.204089   4.079399
     9  N    2.156121   1.374048   3.268145   2.211057   3.172185
                    6          7          8          9
     6  C    0.000000
     7  N    1.351778   0.000000
     8  H    3.099528   2.058855   0.000000
     9  N    2.139056   1.364462   1.016709   0.000000
 Stoichiometry    C3H4N2
 Framework group  CS[SG(C3H4N2)]
 Deg. of freedom   15
 Full point group                 CS      NOp   2
 Largest Abelian subgroup         CS      NOp   2
 Largest concise Abelian subgroup C1      NOp   1
                         Standard orientation:                         
 ---------------------------------------------------------------------
 Center     Atomic     Atomic              Coordinates (Angstroms)
 Number     Number      Type              X           Y           Z
 ---------------------------------------------------------------------
    1          1             0        2.125475    0.736549    0.000000
    2          6             0        1.125417    0.310465    0.000000
    3          1             0        1.277255   -1.909439    0.000000
    4          6             0        0.669539   -1.008465    0.000000
    5          1             0       -1.491777   -1.700745    0.000000
    6          6             0       -0.750172   -0.904415    0.000000
    7          7             0       -1.161753    0.383181    0.000000
    8          1             0       -0.047387    2.114387    0.000000
    9          7             0        0.000000    1.098782    0.000000
 ---------------------------------------------------------------------
 Rotational constants (GHZ):      9.4269579      9.2248214      4.6623972
 Isotopes: H-1,C-12,H-1,C-12,H-1,C-12,N-14,H-1,N-14
 Standard basis: 6-31+G(d,p) (6D, 7F)
 There are    86 symmetry adapted basis functions of A'  symmetry.
 There are    29 symmetry adapted basis functions of A"  symmetry.
 Crude estimate of integral set expansion from redundant integrals=1.000.
 Integral buffers will be    262144 words long.
 Raffenetti 2 integral format.
 Two-electron integral symmetry is turned on.
   115 basis functions      188 primitive gaussians
    18 alpha electrons       18 beta electrons
       nuclear repulsion energy       161.2022439675 Hartrees.
 One-electron integrals computed using PRISM.
 NBasis=   115 RedAO= T  NBF=    86    29
 NBsUse=   115 1.00D-04 NBFU=    86    29
 Initial guess read from the read-write file:
 Initial guess orbital symmetries:
       Occupied  (A') (A') (A') (A') (A') (A') (A') (A') (A') (A')
                 (A') (A') (A") (A') (A') (A') (A") (A")
       Virtual   (A") (A') (A') (A') (A") (A') (A') (A") (A') (A")
                 (A') (A") (A') (A') (A') (A') (A") (A') (A') (A")
                 (A') (A') (A') (A') (A') (A') (A') (A') (A') (A')
                 (A') (A') (A") (A') (A") (A") (A') (A') (A') (A')
                 (A') (A") (A') (A") (A') (A') (A') (A') (A') (A')
                 (A') (A') (A") (A") (A") (A') (A") (A") (A') (A')
                 (A') (A') (A') (A') (A') (A") (A') (A") (A') (A")
                 (A') (A") (A") (A') (A") (A') (A') (A') (A") (A')
                 (A") (A') (A") (A') (A') (A') (A') (A') (A') (A')
                 (A') (A') (A') (A') (A') (A') (A')
 Requested convergence on RMS density matrix=1.00D-08 within  64 cycles.
 Requested convergence on MAX density matrix=1.00D-06.
 SCF Done:  E(RB-LYP) =  -226.141219380     A.U. after   10 cycles
             Convg  =    0.5353D-08             -V/T =  2.0101
             S**2   =   0.0000
 ***** Axes restored to original set *****
 -------------------------------------------------------------------
 Center     Atomic                   Forces (Hartrees/Bohr)
 Number     Number              X              Y              Z
 -------------------------------------------------------------------
    1          1           0.000051776    0.000000000   -0.000035373
    2          6           0.000998584    0.000000000    0.000798671
    3          1           0.000091064    0.000000000    0.000044152
    4          6          -0.000464857    0.000000000   -0.000569752
    5          1          -0.000084461    0.000000000    0.000069740
    6          6          -0.001778049    0.000000000    0.001156645
    7          7           0.003487146    0.000000000    0.000464920
    8          1           0.000588315    0.000000000    0.000115791
    9          7          -0.002889518    0.000000000   -0.002044795
 -------------------------------------------------------------------
 Cartesian Forces:  Max     0.003487146 RMS     0.001088110

 GradGradGradGradGradGradGradGradGradGradGradGradGradGradGradGradGradGrad
 Berny optimization.
 Internal  Forces:  Max     0.002235228 RMS     0.000532776
 Search for a local minimum.
 Step number   5 out of a maximum of  48
 All quantities printed in internal units (Hartrees-Bohrs-Radians)
 Update second derivatives using information from points  1  2  3  4  5

 Trust test= 1.29D+00 RLast= 2.10D-02 DXMaxT set to 4.24D-01
     Eigenvalues ---    0.03203   0.03247   0.03250   0.03273   0.03342
     Eigenvalues ---    0.03372   0.15271   0.15377   0.16017   0.16403
     Eigenvalues ---    0.20418   0.34685   0.34994   0.46566   0.49571
     Eigenvalues ---    0.49719   0.57748   0.60014   0.60993   0.70812
     Eigenvalues ---    0.735481000.000001000.000001000.000001000.00000
     Eigenvalues --- 1000.000001000.000001000.000001000.000001000.00000
     Eigenvalues --- 1000.000001000.000001000.000001000.000001000.00000
     Eigenvalues --- 1000.000001000.000001000.00000
 RFO step:  Lambda=-1.29641355D-05.
 Quartic linear search produced a step of  0.41379.
 Iteration  1 RMS(Cart)=  0.00141768 RMS(Int)=  0.00000293
 Iteration  2 RMS(Cart)=  0.00000232 RMS(Int)=  0.00000208
 Iteration  3 RMS(Cart)=  0.00000000 RMS(Int)=  0.00000208
 Variable       Old X    -DE/DX   Delta X   Delta X   Delta X     New X
                                 (Linear)    (Quad)   (Total)
    R1        2.05422  -0.00003  -0.00112   0.00067  -0.00045   2.05377
    R2        2.63710  -0.00064  -0.00326   0.00076  -0.00251   2.63459
    R3        2.59657  -0.00074   0.00044  -0.00111  -0.00068   2.59590
    R4        2.05370  -0.00002  -0.00124   0.00073  -0.00051   2.05319
    R5        2.69006   0.00021   0.00025   0.00026   0.00051   2.69057
    R6        2.05635  -0.00008  -0.00137   0.00084  -0.00053   2.05581
    R7        2.55449  -0.00146  -0.00125  -0.00158  -0.00283   2.55166
    R8        2.57846   0.00224   0.00571   0.00218   0.00789   2.58635
    R9        1.92130  -0.00036  -0.00116   0.00009  -0.00107   1.92023
    A1        2.30635  -0.00016   0.00001  -0.00089  -0.00088   2.30547
    A2        2.12779  -0.00005  -0.00033  -0.00110  -0.00143   2.12636
    A3        1.84905   0.00020   0.00033   0.00199   0.00231   1.85136
    A4        2.21539   0.00019  -0.00001   0.00195   0.00193   2.21733
    A5        1.83043  -0.00019   0.00015  -0.00169  -0.00154   1.82889
    A6        2.23737   0.00000  -0.00014  -0.00026  -0.00040   2.23697
    A7        2.24747  -0.00037  -0.00226  -0.00003  -0.00229   2.24518
    A8        1.95334   0.00089   0.00263   0.00107   0.00371   1.95705
    A9        2.08238  -0.00052  -0.00038  -0.00104  -0.00142   2.08095
   A10        1.81349  -0.00086  -0.00343   0.00046  -0.00298   1.81051
   A11        1.97848  -0.00004   0.00033  -0.00183  -0.00151   1.97697
   A12        2.22846   0.00048   0.00003   0.00406   0.00409   2.23255
   A13        2.07625  -0.00044  -0.00035  -0.00223  -0.00258   2.07367
    D1        0.00000   0.00000   0.00000   0.00000   0.00000   0.00000
    D2        3.14159   0.00000   0.00000   0.00000   0.00000   3.14159
    D3        3.14159   0.00000   0.00000   0.00000   0.00000   3.14159
    D4        0.00000   0.00000   0.00000   0.00000   0.00000   0.00000
    D5        3.14159   0.00000   0.00000   0.00000   0.00000   3.14159
    D6        0.00000   0.00000   0.00000   0.00000   0.00000   0.00000
    D7        0.00000   0.00000   0.00000   0.00000   0.00000   0.00000
    D8        3.14159   0.00000   0.00000   0.00000   0.00000   3.14159
    D9        3.14159   0.00000   0.00000   0.00000   0.00000   3.14159
   D10        0.00000   0.00000   0.00000   0.00000   0.00000   0.00000
   D11        0.00000   0.00000   0.00000   0.00000   0.00000   0.00000
   D12        3.14159   0.00000   0.00000   0.00000   0.00000   3.14159
   D13        0.00000   0.00000   0.00000   0.00000   0.00000   0.00000
   D14        3.14159   0.00000   0.00000   0.00000   0.00000   3.14159
   D15        0.00000   0.00000   0.00000   0.00000   0.00000   0.00000
   D16        3.14159   0.00000   0.00000   0.00000   0.00000   3.14159
         Item               Value     Threshold  Converged?
 Maximum Force            0.002235     0.000450     NO 
 RMS     Force            0.000533     0.000300     NO 
 Maximum Displacement     0.004299     0.001800     NO 
 RMS     Displacement     0.001417     0.001200     NO 
 Predicted change in Energy=-1.847681D-05
 GradGradGradGradGradGradGradGradGradGradGradGradGradGradGradGradGradGrad

                          Input orientation:                          
 ---------------------------------------------------------------------
 Center     Atomic     Atomic              Coordinates (Angstroms)
 Number     Number      Type              X           Y           Z
 ---------------------------------------------------------------------
    1          1             0       -1.909031    0.000000   -1.188317
    2          6             0       -0.948800    0.000000   -0.679290
    3          1             0        0.680325    0.000000   -2.194277
    4          6             0        0.361473    0.000000   -1.155616
    5          1             0        2.258744    0.000000    0.087516
    6          6             0        1.173340    0.000000    0.014018
    7          7             0        0.435875    0.000000    1.145126
    8          1             0       -1.612593    0.000000    1.368750
    9          7             0       -0.855300    0.000000    0.691215
 ---------------------------------------------------------------------
                    Distance matrix (angstroms):
                    1          2          3          4          5
     1  H    0.000000
     2  C    1.086808   0.000000
     3  H    2.777899   2.224687   0.000000
     4  C    2.270739   1.394167   1.086501   0.000000
     5  H    4.358682   3.297929   2.774525   2.268263   0.000000
     6  C    3.308568   2.232522   2.262661   1.423789   1.087890
     7  N    3.308102   2.290375   3.348338   2.301945   2.107461
     8  H    2.574192   2.152925   4.237055   3.204584   4.077844
     9  N    2.154760   1.373691   3.268671   2.211633   3.172022
                    6          7          8          9
     6  C    0.000000
     7  N    1.350282   0.000000
     8  H    3.097858   2.060638   0.000000
     9  N    2.138686   1.368637   1.016143   0.000000
 Stoichiometry    C3H4N2
 Framework group  CS[SG(C3H4N2)]
 Deg. of freedom   15
 Full point group                 CS      NOp   2
 Largest Abelian subgroup         CS      NOp   2
 Largest concise Abelian subgroup C1      NOp   1
                         Standard orientation:                         
 ---------------------------------------------------------------------
 Center     Atomic     Atomic              Coordinates (Angstroms)
 Number     Number      Type              X           Y           Z
 ---------------------------------------------------------------------
    1          1             0        2.124168    0.737786    0.000000
    2          6             0        1.124713    0.310888    0.000000
    3          1             0        1.279055   -1.908439    0.000000
    4          6             0        0.671624   -1.007600    0.000000
    5          1             0       -1.487771   -1.701887    0.000000
    6          6             0       -0.748382   -0.903884    0.000000
    7          7             0       -1.164600    0.380649    0.000000
    8          1             0       -0.050977    2.114452    0.000000
    9          7             0        0.000000    1.099588    0.000000
 ---------------------------------------------------------------------
 Rotational constants (GHZ):      9.4331545      9.2133450      4.6609771
 Isotopes: H-1,C-12,H-1,C-12,H-1,C-12,N-14,H-1,N-14
 Standard basis: 6-31+G(d,p) (6D, 7F)
 There are    86 symmetry adapted basis functions of A'  symmetry.
 There are    29 symmetry adapted basis functions of A"  symmetry.
 Crude estimate of integral set expansion from redundant integrals=1.000.
 Integral buffers will be    262144 words long.
 Raffenetti 2 integral format.
 Two-electron integral symmetry is turned on.
   115 basis functions      188 primitive gaussians
    18 alpha electrons       18 beta electrons
       nuclear repulsion energy       161.1761034338 Hartrees.
 One-electron integrals computed using PRISM.
 NBasis=   115 RedAO= T  NBF=    86    29
 NBsUse=   115 1.00D-04 NBFU=    86    29
 Initial guess read from the read-write file:
 Initial guess orbital symmetries:
       Occupied  (A') (A') (A') (A') (A') (A') (A') (A') (A') (A')
                 (A') (A') (A") (A') (A') (A') (A") (A")
       Virtual   (A") (A') (A') (A') (A") (A') (A') (A") (A') (A")
                 (A') (A") (A') (A') (A') (A') (A") (A') (A') (A")
                 (A') (A') (A') (A') (A') (A') (A') (A') (A') (A')
                 (A') (A') (A") (A') (A") (A") (A') (A') (A') (A')
                 (A') (A") (A') (A") (A') (A') (A') (A') (A') (A')
                 (A') (A') (A") (A") (A") (A') (A") (A") (A') (A')
                 (A') (A') (A') (A') (A') (A") (A') (A") (A') (A")
                 (A') (A") (A") (A') (A") (A') (A') (A') (A") (A')
                 (A") (A') (A") (A') (A') (A') (A') (A') (A') (A')
                 (A') (A') (A') (A') (A') (A') (A')
 Requested convergence on RMS density matrix=1.00D-08 within  64 cycles.
 Requested convergence on MAX density matrix=1.00D-06.
 SCF Done:  E(RB-LYP) =  -226.141239418     A.U. after    9 cycles
             Convg  =    0.6571D-08             -V/T =  2.0101
             S**2   =   0.0000
 ***** Axes restored to original set *****
 -------------------------------------------------------------------
 Center     Atomic                   Forces (Hartrees/Bohr)
 Number     Number              X              Y              Z
 -------------------------------------------------------------------
    1          1          -0.000133748    0.000000000   -0.000154197
    2          6          -0.000200144    0.000000000    0.001054854
    3          1           0.000069843    0.000000000   -0.000104936
    4          6           0.000205632    0.000000000   -0.000132425
    5          1           0.000220134    0.000000000    0.000058614
    6          6          -0.000471382    0.000000000    0.000549865
    7          7           0.000579810    0.000000000   -0.000332869
    8          1           0.000077037    0.000000000    0.000149649
    9          7          -0.000347182    0.000000000   -0.001088555
 -------------------------------------------------------------------
 Cartesian Forces:  Max     0.001088555 RMS     0.000366535

 GradGradGradGradGradGradGradGradGradGradGradGradGradGradGradGradGradGrad
 Berny optimization.
 Internal  Forces:  Max     0.000741863 RMS     0.000189701
 Search for a local minimum.
 Step number   6 out of a maximum of  48
 All quantities printed in internal units (Hartrees-Bohrs-Radians)
 Update second derivatives using information from points  2  3  4  5  6

 Trust test= 1.08D+00 RLast= 1.22D-02 DXMaxT set to 4.24D-01
     Eigenvalues ---    0.03203   0.03247   0.03250   0.03273   0.03341
     Eigenvalues ---    0.03372   0.14536   0.15322   0.16012   0.16136
     Eigenvalues ---    0.21053   0.33026   0.33964   0.46793   0.49582
     Eigenvalues ---    0.49763   0.57728   0.59691   0.61149   0.68517
     Eigenvalues ---    0.751181000.000001000.000001000.000001000.00000
     Eigenvalues --- 1000.000001000.000001000.000001000.000001000.00000
     Eigenvalues --- 1000.000001000.000001000.000001000.000001000.00000
     Eigenvalues --- 1000.000001000.000001000.00000
 RFO step:  Lambda=-2.22481701D-06.
 Quartic linear search produced a step of  0.12787.
 Iteration  1 RMS(Cart)=  0.00038952 RMS(Int)=  0.00000027
 Iteration  2 RMS(Cart)=  0.00000024 RMS(Int)=  0.00000007
 Variable       Old X    -DE/DX   Delta X   Delta X   Delta X     New X
                                 (Linear)    (Quad)   (Total)
    R1        2.05377   0.00019  -0.00006   0.00039   0.00033   2.05410
    R2        2.63459   0.00037  -0.00032   0.00068   0.00036   2.63495
    R3        2.59590  -0.00074  -0.00009  -0.00100  -0.00109   2.59481
    R4        2.05319   0.00012  -0.00007   0.00023   0.00016   2.05335
    R5        2.69057   0.00010   0.00007   0.00020   0.00027   2.69084
    R6        2.05581   0.00022  -0.00007   0.00047   0.00040   2.05621
    R7        2.55166  -0.00061  -0.00036  -0.00076  -0.00113   2.55054
    R8        2.58635   0.00032   0.00101   0.00026   0.00127   2.58762
    R9        1.92023   0.00004  -0.00014   0.00009  -0.00004   1.92019
    A1        2.30547  -0.00004  -0.00011  -0.00027  -0.00038   2.30509
    A2        2.12636   0.00010  -0.00018   0.00060   0.00042   2.12678
    A3        1.85136  -0.00007   0.00030  -0.00033  -0.00004   1.85132
    A4        2.21733   0.00006   0.00025   0.00011   0.00036   2.21768
    A5        1.82889  -0.00006  -0.00020   0.00010  -0.00009   1.82879
    A6        2.23697   0.00000  -0.00005  -0.00021  -0.00026   2.23671
    A7        2.24518   0.00005  -0.00029   0.00035   0.00006   2.24523
    A8        1.95705  -0.00003   0.00047  -0.00025   0.00022   1.95728
    A9        2.08095  -0.00003  -0.00018  -0.00010  -0.00028   2.08068
   A10        1.81051   0.00007  -0.00038   0.00019  -0.00019   1.81032
   A11        1.97697   0.00009  -0.00019   0.00029   0.00010   1.97707
   A12        2.23255   0.00011   0.00052   0.00070   0.00123   2.23377
   A13        2.07367  -0.00021  -0.00033  -0.00100  -0.00133   2.07235
    D1        0.00000   0.00000   0.00000   0.00000   0.00000   0.00000
    D2        3.14159   0.00000   0.00000   0.00000   0.00000   3.14159
    D3        3.14159   0.00000   0.00000   0.00000   0.00000   3.14159
    D4        0.00000   0.00000   0.00000   0.00000   0.00000   0.00000
    D5        3.14159   0.00000   0.00000   0.00000   0.00000   3.14159
    D6        0.00000   0.00000   0.00000   0.00000   0.00000   0.00000
    D7        0.00000   0.00000   0.00000   0.00000   0.00000   0.00000
    D8        3.14159   0.00000   0.00000   0.00000   0.00000   3.14159
    D9        3.14159   0.00000   0.00000   0.00000   0.00000   3.14159
   D10        0.00000   0.00000   0.00000   0.00000   0.00000   0.00000
   D11        0.00000   0.00000   0.00000   0.00000   0.00000   0.00000
   D12        3.14159   0.00000   0.00000   0.00000   0.00000   3.14159
   D13        0.00000   0.00000   0.00000   0.00000   0.00000   0.00000
   D14        3.14159   0.00000   0.00000   0.00000   0.00000   3.14159
   D15        0.00000   0.00000   0.00000   0.00000   0.00000   0.00000
   D16        3.14159   0.00000   0.00000   0.00000   0.00000   3.14159
         Item               Value     Threshold  Converged?
 Maximum Force            0.000742     0.000450     NO 
 RMS     Force            0.000190     0.000300     YES
 Maximum Displacement     0.001127     0.001800     YES
 RMS     Displacement     0.000390     0.001200     YES
 Predicted change in Energy=-1.377162D-06
 GradGradGradGradGradGradGradGradGradGradGradGradGradGradGradGradGradGrad

                          Input orientation:                          
 ---------------------------------------------------------------------
 Center     Atomic     Atomic              Coordinates (Angstroms)
 Number     Number      Type              X           Y           Z
 ---------------------------------------------------------------------
    1          1             0       -1.909251    0.000000   -1.188747
    2          6             0       -0.949051    0.000000   -0.679286
    3          1             0        0.680629    0.000000   -2.194330
    4          6             0        0.361396    0.000000   -1.155695
    5          1             0        2.258853    0.000000    0.087781
    6          6             0        1.173249    0.000000    0.014121
    7          7             0        0.436269    0.000000    1.144834
    8          1             0       -1.611929    0.000000    1.369125
    9          7             0       -0.855518    0.000000    0.690639
 ---------------------------------------------------------------------
                    Distance matrix (angstroms):
                    1          2          3          4          5
     1  H    0.000000
     2  C    1.086984   0.000000
     3  H    2.778250   2.225132   0.000000
     4  C    2.270887   1.394358   1.086587   0.000000
     5  H    4.359199   3.298339   2.774676   2.268607   0.000000
     6  C    3.308882   2.232704   2.262726   1.423929   1.088100
     7  N    3.308635   2.290530   3.348094   2.301748   2.106934
     8  H    2.575095   2.152998   4.237220   3.204486   4.077351
     9  N    2.154634   1.373115   3.268455   2.211296   3.172183
                    6          7          8          9
     6  C    0.000000
     7  N    1.349686   0.000000
     8  H    3.097297   2.060442   0.000000
     9  N    2.138592   1.369309   1.016120   0.000000
[...]
 Atom AN      X      Y      Z        X      Y      Z        X      Y      Z
   1   1     0.71   0.30   0.00    -0.55  -0.24   0.00     0.02   0.00   0.00
   2   6    -0.06  -0.03   0.00     0.05   0.03   0.00     0.00   0.00   0.00
   3   1    -0.26   0.39   0.00    -0.42   0.63   0.00     0.00   0.00   0.00
   4   6     0.03  -0.03   0.00     0.04  -0.06   0.00     0.00   0.00   0.00
   5   1     0.29   0.31   0.00     0.17   0.18   0.00     0.00   0.00   0.00
   6   6    -0.03  -0.03   0.00    -0.02  -0.02   0.00     0.00   0.00   0.00
   7   7     0.00   0.00   0.00     0.00   0.00   0.00     0.00   0.00   0.00
   8   1     0.00  -0.01   0.00     0.00   0.01   0.00    -0.06   1.00   0.00
   9   7     0.00   0.00   0.00     0.00   0.00   0.00     0.01  -0.07   0.00

 -------------------
 - Thermochemistry -
 -------------------
 Temperature   298.150 Kelvin.  Pressure   1.00000 Atm.
 Atom  1 has atomic number  1 and mass   1.00783
 Atom  2 has atomic number  6 and mass  12.00000
 Atom  3 has atomic number  1 and mass   1.00783
 Atom  4 has atomic number  6 and mass  12.00000
 Atom  5 has atomic number  1 and mass   1.00783
 Atom  6 has atomic number  6 and mass  12.00000
 Atom  7 has atomic number  7 and mass  14.00307
 Atom  8 has atomic number  1 and mass   1.00783
 Atom  9 has atomic number  7 and mass  14.00307
 Molecular mass:    68.03745 amu.
 Principal axes and moments of inertia in atomic units:
                           1         2         3
     EIGENVALUES --   191.32124 195.86972 387.19095
           X            0.93773   0.34737   0.00000
           Y           -0.34737   0.93773   0.00000
           Z            0.00000   0.00000   1.00000
 THIS MOLECULE IS AN ASYMMETRIC TOP.
 ROTATIONAL SYMMETRY NUMBER  1.
 ROTATIONAL TEMPERATURES (KELVIN)      0.45271     0.44220     0.22370
 ROTATIONAL CONSTANTS (GHZ)            9.43304     9.21399     4.66111
 Zero-point vibrational energy     180507.8 (Joules/Mol)
                                   43.14241 (Kcal/Mol)
 WARNING-- EXPLICIT CONSIDERATION OF   2 DEGREES OF FREEDOM AS
           VIBRATIONS MAY CAUSE SIGNIFICANT ERROR
 VIBRATIONAL TEMPERATURES:    696.26   877.37   949.83  1030.59  1144.86
          (KELVIN)           1221.10  1280.18  1302.44  1440.26  1477.49
                             1591.49  1622.74  1769.95  1910.00  1984.22
                             2047.11  2168.04  4571.46  4586.58  4610.30
                             5137.69
 
 Zero-point correction=                           0.068752 (Hartree/Particle)
 Thermal correction to Energy=                    0.072627
 Thermal correction to Enthalpy=                  0.073571
 Thermal correction to Gibbs Free Energy=         0.042402
 Sum of electronic and zero-point Energies=           -226.072489
 Sum of electronic and thermal Energies=              -226.068615
 Sum of electronic and thermal Enthalpies=            -226.067670
 Sum of electronic and thermal Free Energies=         -226.098840
 
                     E (Thermal)             CV                S
                      KCAL/MOL        CAL/MOL-KELVIN    CAL/MOL-KELVIN
 TOTAL                   45.574             14.065             65.601
 ELECTRONIC               0.000              0.000              0.000
 TRANSLATIONAL            0.889              2.981             38.570
 ROTATIONAL               0.889              2.981             24.188
 VIBRATIONAL             43.796              8.104              2.843
 VIBRATION  1             0.840              1.286              0.700
 VIBRATION  2             0.969              1.011              0.433
                       Q            LOG10(Q)             LN(Q)
 TOTAL BOT       0.313886D-19        -19.503228        -44.907841
 TOTAL V=0       0.131883D+13         12.120190         27.907769
 VIB (BOT)       0.329999D-31        -31.481487        -72.488804
 VIB (BOT)  1    0.344437D+00         -0.462891         -1.065845
 VIB (BOT)  2    0.242395D+00         -0.615476         -1.417187
 VIB (V=0)       0.138653D+01          0.141930          0.326807
 VIB (V=0)  1    0.110715D+01          0.044208          0.101793
 VIB (V=0)  2    0.105566D+01          0.023523          0.054164
 ELECTRONIC      0.100000D+01          0.000000          0.000000
 TRANSLATIONAL   0.220588D+08          7.343582         16.909224
 ROTATIONAL      0.431198D+05          4.634677         10.671739
 ***** Axes restored to original set *****
 -------------------------------------------------------------------
 Center     Atomic                   Forces (Hartrees/Bohr)
 Number     Number              X              Y              Z
 -------------------------------------------------------------------
    1          1          -0.000038301    0.000000000   -0.000079563
    2          6          -0.000116812    0.000000000    0.000609274
    3          1           0.000021361    0.000000000   -0.000055987
    4          6           0.000208249    0.000000000   -0.000151779
    5          1           0.000097065    0.000000000    0.000008195
    6          6          -0.000145912    0.000000000    0.000168287
    7          7           0.000016573    0.000000000   -0.000154061
    8          1          -0.000012640    0.000000000    0.000064429
    9          7          -0.000029583    0.000000000   -0.000408796
 -------------------------------------------------------------------
 Cartesian Forces:  Max     0.000609274 RMS     0.000163079

 GradGradGradGradGradGradGradGradGradGradGradGradGradGradGradGradGradGrad
 Berny optimization.
 Internal  Forces:  Max     0.000356692 RMS     0.000083312
 Search for a local minimum.
 Step number   1 out of a maximum of  48
 All quantities printed in internal units (Hartrees-Bohrs-Radians)
 Second derivative matrix not updated -- analytic derivatives used.
     Eigenvalues ---    0.00620   0.01051   0.01462   0.02556   0.05439
     Eigenvalues ---    0.05744   0.08937   0.09884   0.10502   0.11274
     Eigenvalues ---    0.20505   0.24782   0.31108   0.34510   0.35745
     Eigenvalues ---    0.35914   0.36846   0.39513   0.44440   0.45628
     Eigenvalues ---    0.517781000.000001000.000001000.000001000.00000
     Eigenvalues --- 1000.000001000.000001000.000001000.000001000.00000
     Eigenvalues --- 1000.000001000.000001000.000001000.000001000.00000
     Eigenvalues --- 1000.000001000.000001000.00000
 Angle between quadratic step and forces=  30.85 degrees.
 Linear search not attempted -- first point.
 Iteration  1 RMS(Cart)=  0.00021650 RMS(Int)=  0.00000007
 Iteration  2 RMS(Cart)=  0.00000008 RMS(Int)=  0.00000001
 Variable       Old X    -DE/DX   Delta X   Delta X   Delta X     New X
                                 (Linear)    (Quad)   (Total)
    R1        2.05410   0.00007   0.00000   0.00022   0.00022   2.05432
    R2        2.63495   0.00025   0.00000   0.00070   0.00070   2.63566
    R3        2.59481  -0.00036   0.00000  -0.00110  -0.00110   2.59371
    R4        2.05335   0.00006   0.00000   0.00014   0.00014   2.05350
    R5        2.69084   0.00001   0.00000   0.00009   0.00009   2.69093
    R6        2.05621   0.00010   0.00000   0.00029   0.00029   2.05650
    R7        2.55054  -0.00013   0.00000  -0.00031  -0.00031   2.55023
    R8        2.58762  -0.00001   0.00000   0.00009   0.00009   2.58771
    R9        1.92019   0.00005   0.00000   0.00011   0.00011   1.92030
    A1        2.30509  -0.00007   0.00000  -0.00086  -0.00086   2.30424
    A2        2.12678   0.00003   0.00000   0.00058   0.00058   2.12735
    A3        1.85132   0.00005   0.00000   0.00028   0.00028   1.85160
    A4        2.21768   0.00005   0.00000   0.00009   0.00009   2.21777
    A5        1.82879  -0.00010   0.00000  -0.00044  -0.00044   1.82835
    A6        2.23671   0.00005   0.00000   0.00036   0.00036   2.23707
    A7        2.24523   0.00002   0.00000  -0.00004  -0.00004   2.24519
    A8        1.95728  -0.00004   0.00000   0.00004   0.00004   1.95732
    A9        2.08068   0.00002   0.00000   0.00000   0.00000   2.08068
   A10        1.81032   0.00008   0.00000   0.00011   0.00011   1.81044
   A11        1.97707   0.00001   0.00000   0.00001   0.00001   1.97708
   A12        2.23377   0.00004   0.00000   0.00044   0.00044   2.23422
   A13        2.07235  -0.00005   0.00000  -0.00046  -0.00046   2.07189
    D1        0.00000   0.00000   0.00000   0.00000   0.00000   0.00000
    D2        3.14159   0.00000   0.00000   0.00000   0.00000   3.14159
    D3        3.14159   0.00000   0.00000   0.00000   0.00000   3.14159
    D4        0.00000   0.00000   0.00000   0.00000   0.00000   0.00000
    D5        3.14159   0.00000   0.00000   0.00000   0.00000   3.14159
    D6        0.00000   0.00000   0.00000   0.00000   0.00000   0.00000
    D7        0.00000   0.00000   0.00000   0.00000   0.00000   0.00000
    D8        3.14159   0.00000   0.00000   0.00000   0.00000   3.14159
    D9        3.14159   0.00000   0.00000   0.00000   0.00000   3.14159
   D10        0.00000   0.00000   0.00000   0.00000   0.00000   0.00000
   D11        0.00000   0.00000   0.00000   0.00000   0.00000   0.00000
   D12        3.14159   0.00000   0.00000   0.00000   0.00000   3.14159
   D13        0.00000   0.00000   0.00000   0.00000   0.00000   0.00000
   D14        3.14159   0.00000   0.00000   0.00000   0.00000   3.14159
   D15        0.00000   0.00000   0.00000   0.00000   0.00000   0.00000
   D16        3.14159   0.00000   0.00000   0.00000   0.00000   3.14159
         Item               Value     Threshold  Converged?
 Maximum Force            0.000357     0.000450     YES
 RMS     Force            0.000083     0.000300     YES
 Maximum Displacement     0.000765     0.001800     YES
 RMS     Displacement     0.000217     0.001200     YES
 Predicted change in Energy=-4.335665D-07
 Optimization completed.
    -- Stationary point found.
                         ----------------------------
                         !   Optimized Parameters   !
                         ! (Angstroms and Degrees)  !
 ------------------------                            -------------------------
 ! Name  Definition              Value          Derivative Info.             !
 -----------------------------------------------------------------------------
 ! R1    R(1,2)                  1.087          -DE/DX =    0.0001           !
 ! R2    R(2,4)                  1.3944         -DE/DX =    0.0003           !
 ! R3    R(2,9)                  1.3731         -DE/DX =   -0.0004           !
 ! R4    R(3,4)                  1.0866         -DE/DX =    0.0001           !
 ! R5    R(4,6)                  1.4239         -DE/DX =    0.               !
 ! R6    R(5,6)                  1.0881         -DE/DX =    0.0001           !
 ! R7    R(6,7)                  1.3497         -DE/DX =   -0.0001           !
 ! R8    R(7,9)                  1.3693         -DE/DX =    0.               !
 ! R9    R(8,9)                  1.0161         -DE/DX =    0.0001           !
 ! A1    A(1,2,4)              132.072          -DE/DX =   -0.0001           !
 ! A2    A(1,2,9)              121.8553         -DE/DX =    0.               !
 ! A3    A(4,2,9)              106.0727         -DE/DX =    0.               !
 ! A4    A(2,4,3)              127.0638         -DE/DX =    0.               !
 ! A5    A(2,4,6)              104.7821         -DE/DX =   -0.0001           !
 ! A6    A(3,4,6)              128.1541         -DE/DX =    0.               !
 ! A7    A(4,6,5)              128.6424         -DE/DX =    0.               !
 ! A8    A(4,6,7)              112.1437         -DE/DX =    0.               !
 ! A9    A(5,6,7)              119.2139         -DE/DX =    0.               !
 ! A10   A(6,7,9)              103.7238         -DE/DX =    0.0001           !
 ! A11   A(2,9,7)              113.2776         -DE/DX =    0.               !
 ! A12   A(2,9,8)              127.9857         -DE/DX =    0.               !
 ! A13   A(7,9,8)              118.7367         -DE/DX =    0.               !
 ! D1    D(1,2,4,3)              0.             -DE/DX =    0.               !
 ! D2    D(1,2,4,6)            180.             -DE/DX =    0.               !
 ! D3    D(9,2,4,3)            180.             -DE/DX =    0.               !
 ! D4    D(9,2,4,6)              0.             -DE/DX =    0.               !
 ! D5    D(1,2,9,7)            180.             -DE/DX =    0.               !
 ! D6    D(1,2,9,8)              0.             -DE/DX =    0.               !
 ! D7    D(4,2,9,7)              0.             -DE/DX =    0.               !
 ! D8    D(4,2,9,8)            180.             -DE/DX =    0.               !
 ! D9    D(2,4,6,5)            180.             -DE/DX =    0.               !
 ! D10   D(2,4,6,7)              0.             -DE/DX =    0.               !
 ! D11   D(3,4,6,5)              0.             -DE/DX =    0.               !
 ! D12   D(3,4,6,7)            180.             -DE/DX =    0.               !
 ! D13   D(4,6,7,9)              0.             -DE/DX =    0.               !
 ! D14   D(5,6,7,9)            180.             -DE/DX =    0.               !
 ! D15   D(6,7,9,2)              0.             -DE/DX =    0.               !
 ! D16   D(6,7,9,8)            180.             -DE/DX =    0.               !
 -----------------------------------------------------------------------------
 GradGradGradGradGradGradGradGradGradGradGradGradGradGradGradGradGradGrad

 1\1\ NATIONAL INSTITUTE OF STANDARDS AND TECHNOLOGY-AMUR\Freq\RBLYP\6-
 31+G(d,p)\C3H4N2\RDJ3\23-May-2000\0\\#N GEOM=ALLCHECK GUESS=TCHECK RBL
 YP/6-31+G(D,P) FREQ\\1H pyrazole C3H4N2 casno=288131\\0,1\H,-1.9091711
 321,0.,-1.1886633079\C,-0.9489706836,0.,-0.679202509\H,0.6807086736,0.
 ,-2.194246159\C,0.3614756269,0.,-1.1556112131\H,2.2589327666,0.,0.0878
 653589\C,1.1733288351,0.,0.0142046182\N,0.4363492062,0.,1.1449182544\H
 ,-1.6118485496,0.,1.3692093922\N,-0.8554384104,0.,0.6907230798\\Versio
 n=SGI-G98RevA.6\State=1-A'\HF=-226.1412412\RMSD=1.725e-09\RMSF=1.631e-
 04\Dipole=-0.798761,0.,-0.4795509\DipoleDeriv=-0.017849,0.0007671,-0.0
 495618,0.0000052,0.1962434,-0.0000767,-0.0398314,0.000379,0.0593103,0.
 1237118,-0.0013446,-0.1795108,-0.0000008,-0.1163505,0.0003441,-0.31633
 27,-0.0006692,0.2271653,0.0892255,0.0002209,0.0291689,-0.0000709,0.181
 3892,-0.0000779,0.0358746,-0.000902,-0.0486761,-0.1980304,-0.0003197,0
 .028344,0.0000654,-0.2154593,0.0002169,-0.0322674,0.0005834,-0.0464525
 ,-0.050412,-0.0006449,-0.0058363,0.0000194,0.1544241,-0.0000164,-0.026
 101,-0.0000624,0.0743015,0.1720234,0.0001805,0.0833742,-0.0001767,-0.0
 979629,-0.0001731,0.192987,0.0011825,0.226988,0.0320824,0.0002559,-0.1
 802541,0.0001976,-0.2256291,0.0001844,-0.1042216,-0.000651,-0.5443894,
 0.190199,-0.0003794,-0.0427545,-0.0000501,0.3100534,-0.0000589,-0.0284
 19,0.0001839,0.2089044,-0.3409496,0.001265,0.3170333,0.0000112,-0.1867
 07,-0.0003434,0.3183144,-0.0000452,-0.1571487\Polar=57.4263913,-0.0021
 719,32.9498619,0.7435922,-0.0346678,56.0102434\PG=CS [SG(C3H4N2)]\NIma
 g=0\\0.28908142,-0.00000036,0.01806816,0.12897835,-0.00000018,0.116808
 98,-0.28355872,0.00000141,-0.11170048,0.79602890,-0.00000075,-0.021559
 62,-0.00000076,-0.00000045,0.10387844,-0.11967063,0.00000191,-0.113524
 95,0.09424248,0.00000244,0.58270642,0.00027709,0.00000062,-0.00075324,
 0.00144093,0.00000005,0.02477065,0.07237743,0.00000105,-0.00235984,0.0
 0000053,-0.00000040,-0.00222598,0.00000089,0.00000019,0.01980347,0.000
 42354,-0.00000156,-0.00013053,-0.00294616,-0.00000053,-0.00018833,-0.0
 8900125,-0.00000022,0.33070963,-0.00681063,-0.00000111,0.00881819,-0.3
 1382506,0.00000103,0.06716281,-0.07836516,-0.00000054,0.08307946,0.571
 22394,0.00000147,0.00024157,0.00000054,-0.00000514,-0.05522608,-0.0000
 0039,0.00000118,-0.02304927,-0.00000453,-0.00000028,0.10351571,-0.0144
 4053,0.00000169,0.01209341,0.09052731,-0.00000123,-0.12953280,0.080481
 93,0.00000091,-0.31754702,-0.11282017,0.00000173,0.77420763,-0.0001830
 9,-0.00000050,0.00026431,-0.00062383,-0.00000025,-0.00098347,-0.000081
 14,-0.00000055,-0.00038212,-0.00498537,-0.00000390,0.00351911,0.354539
 22,-0.00000051,0.00083681,-0.00000029,-0.00000137,0.00425797,-0.000000
 60,0.00000025,-0.00170799,-0.00000099,0.00000126,0.00040090,0.00000007
 ,0.00000073,0.02223190,-0.00100381,0.00000026,0.00105770,-0.00280135,-
 0.00000072,-0.00561319,0.00078061,0.00000009,0.00018091,-0.02083654,-0
 .00000034,0.00625342,0.01959644,-0.00000002,0.05288484,-0.00417041,0.0
 0000294,0.00446743,-0.05255418,-0.00000258,-0.00208739,0.01211068,0.00
 000226,0.01148584,-0.16591646,0.00000262,-0.09635960,-0.33443923,-0.00
 000070,-0.03020889,0.81871671,0.00000196,0.00460624,0.00000116,0.00000
 606,0.00905360,0.00000528,-0.00000061,-0.00294780,0.00000322,-0.000005
 07,-0.05811737,0.00000029,-0.00000237,-0.02719307,0.00000048,0.0000060
 9,0.12451835,0.00074097,-0.00000280,-0.00237879,-0.06190417,0.00000424
 ,0.02974856,-0.01451730,-0.00000184,-0.00921437,-0.06604079,0.00000557
 ,-0.21145762,-0.02318427,0.00000061,-0.05642840,0.00182304,-0.00000603
 ,0.54549370,0.00034185,-0.00000063,0.00043979,-0.05054987,-0.00000092,
 -0.04808614,-0.00204982,-0.00000048,-0.00095542,0.02341502,0.00000093,
 0.03383435,-0.01355305,0.00000020,0.02698297,-0.15948157,-0.00000291,0
 .12286629,0.42933914,-0.00000009,0.00574622,0.00000015,-0.00000672,0.0
 1564101,-0.00000949,-0.00000005,0.00605690,-0.00000121,0.00000427,0.01
 813734,-0.00000048,0.00000105,-0.00703742,-0.00000048,-0.00000655,-0.0
 6518402,0.00000580,0.00000461,0.09411984,0.00210835,0.00000163,-0.0052
 0130,-0.01943826,-0.00000241,-0.05905175,-0.00538973,0.00000089,-0.003
 81619,-0.02853031,-0.00000267,-0.07293506,-0.00089819,-0.00000007,0.00
 540154,0.08682884,0.00000125,-0.26761969,-0.04319192,-0.00000122,0.502
 80579,-0.00020465,0.00000034,0.00039211,0.00920433,0.00000154,-0.00512
 107,0.00067591,0.00000033,-0.00008438,0.00162281,-0.00000105,-0.003172
 64,-0.00039548,-0.00000054,0.00145703,-0.00733841,0.00000301,-0.004965
 97,-0.01921027,-0.00000514,0.02315423,0.27773399,0.00000104,-0.0012462
 3,0.00000060,0.00000077,-0.00791833,0.00000080,0.00000006,0.00209616,0
 .00000012,-0.00000147,0.00292402,0.00000079,-0.00000070,0.00208125,0.0
 0000017,0.00000196,0.00374876,-0.00000182,-0.00000056,-0.01150402,0.00
 000046,0.00000028,0.01085038,-0.00056746,0.,0.00001138,0.02380540,-0.0
 0000161,-0.00434000,0.00124627,-0.00000013,0.00019850,-0.00202629,0.00
 000044,-0.00669211,-0.00051262,0.00000054,0.00094647,-0.00560162,-0.00
 000271,0.00045542,-0.01044529,0.00000415,0.01439474,-0.19482579,-0.000
 00029,0.23701596,0.00522717,-0.00000273,-0.03090645,-0.10556253,0.0000
 0235,-0.01022727,-0.00638591,-0.00000185,-0.00161949,-0.02635910,0.000
 00417,0.01843022,-0.00027804,0.00000066,0.00603354,-0.10692712,-0.0000
 0615,0.04518219,-0.20825142,0.00000865,-0.01464303,-0.26208822,-0.0000
 0136,0.18892742,0.71062516,-0.00000379,-0.00433331,-0.00000173,0.00000
 580,-0.04590099,-0.00000087,-0.00000168,0.00433437,0.00000571,0.000001
 94,0.01117317,-0.00000375,0.00000647,0.00612966,0.00000057,-0.00000601
 ,0.01151531,-0.00000372,-0.00000021,-0.05597587,0.00000213,0.00000124,
 -0.00103199,-0.00000042,-0.00000376,0.07408966,0.00343128,-0.00000095,
 -0.00873585,-0.00978484,0.00000057,-0.30020405,0.00238206,-0.00000111,
 -0.00019259,0.07119358,-0.00000035,-0.05438984,0.00258086,0.00000074,-
 0.00468327,0.02965228,-0.00000294,-0.02859877,-0.08144456,0.00000280,-
 0.11397804,0.18316647,-0.00000081,-0.24199034,-0.20117713,0.00000208,0
 .75277266\\0.00003830,0.,0.00007956,0.00011681,0.,-0.00060927,-0.00002
 136,0.,0.00005599,-0.00020825,0.,0.00015178,-0.00009706,0.,-0.00000820
 ,0.00014591,0.,-0.00016829,-0.00001657,0.,0.00015406,0.00001264,0.,-0.
 00006443,0.00002958,0.,0.00040880\\\@


 YOU SHOULDN'T LET PEOPLE DRIVE YOU CRAZY
 WHEN YOU KNOW IT'S WITHIN WALKING DISTANCE.
 Job cpu time:  0 days  0 hours 34 minutes 55.0 seconds.
 File lengths (MBytes):  RWF=   19 Int=    0 D2E=    0 Chk=    3 Scr=    1
 Normal termination of Gaussian 98.
