setenv GAUSS_EXEDIR /usr/local/apps/g98/g98/linda-exe:/usr/local/apps/g98/g98/bsd:/usr/local/apps/g98/g98/local:/usr/local/apps/g98/g98/extras:/usr/local/apps/g98/g98
set SW_LIST = `echo $LOADL_PROCESSOR_LIST| sed -e 's/grand/hssw/g'`
sed -e s/grand/hssw/g
echo grand43.nist.gov grand46.nist.gov grand47.nist.gov grand48.nist.gov
setenv q "
setenv NODELIST  " hssw43.nist.gov hssw46.nist.gov hssw47.nist.gov hssw48.nist.gov " 
setenv GAUSS_LFLAGS -nodelist   " hssw43.nist.gov hssw46.nist.gov hssw47.nist.gov hssw48.nist.gov " 
g98
 Entering Gaussian System, Link 0=g98
 Initial command:
 /usr/local/apps/g98/g98/l1.exe /wrk2/Gau-18168.inp -scrdir=/wrk2/
 Entering Link 1 = /usr/local/apps/g98/g98/l1.exe PID=     19696.
  
 Copyright (c) 1988,1990,1992,1993,1995,1998 Gaussian, Inc.
                  All Rights Reserved.
  
 This is part of the Gaussian(R) 98 program.  It is based on
 the Gaussian 94(TM) system (copyright 1995 Gaussian, Inc.),
 the Gaussian 92(TM) system (copyright 1992 Gaussian, Inc.),
 the Gaussian 90(TM) system (copyright 1990 Gaussian, Inc.),
 the Gaussian 88(TM) system (copyright 1988 Gaussian, Inc.),
 the Gaussian 86(TM) system (copyright 1986 Carnegie Mellon
 University), and the Gaussian 82(TM) system (copyright 1983
 Carnegie Mellon University). Gaussian is a federally registered
 trademark of Gaussian, Inc.
  
 This software contains proprietary and confidential information,
 including trade secrets, belonging to Gaussian, Inc.
  
 This software is provided under written license and may be
 used, copied, transmitted, or stored only in accord with that
 written license.
  
 The following legend is applicable only to US Government
 contracts under DFARS:
  
                    RESTRICTED RIGHTS LEGEND
  
 Use, duplication or disclosure by the US Government is subject
 to restrictions as set forth in subparagraph (c)(1)(ii) of the
 Rights in Technical Data and Computer Software clause at DFARS
 252.227-7013.
  
 Gaussian, Inc.
 Carnegie Office Park, Building 6, Pittsburgh, PA 15106 USA
  
 The following legend is applicable only to US Government
 contracts under FAR:
  
                    RESTRICTED RIGHTS LEGEND
  
 Use, reproduction and disclosure by the US Government is subject
 to restrictions as set forth in subparagraph (c) of the
 Commercial Computer Software - Restricted Rights clause at FAR
 52.227-19.
  
 Gaussian, Inc.
 Carnegie Office Park, Building 6, Pittsburgh, PA 15106 USA
  
  
 ---------------------------------------------------------------
 Warning -- This program may not be used in any manner that
 competes with the business of Gaussian, Inc. or will provide
 assistance to any competitor of Gaussian, Inc.  The licensee
 of this program is prohibited from giving any competitor of
 Gaussian, Inc. access to this program.  By using this program,
 the user acknowledges that Gaussian, Inc. is engaged in the
 business of creating and licensing software in the field of
 computational chemistry and represents and warrants to the
 licensee that it is not a competitor of Gaussian, Inc. and that
 it will not use this program in any manner prohibited above.
 ---------------------------------------------------------------
  

 Cite this work as:
 Gaussian 98, Revision A.7,
 M. J. Frisch, G. W. Trucks, H. B. Schlegel, G. E. Scuseria, 
 M. A. Robb, J. R. Cheeseman, V. G. Zakrzewski, J. A. Montgomery, Jr., 
 R. E. Stratmann, J. C. Burant, S. Dapprich, J. M. Millam, 
 A. D. Daniels, K. N. Kudin, M. C. Strain, O. Farkas, J. Tomasi, 
 V. Barone, M. Cossi, R. Cammi, B. Mennucci, C. Pomelli, C. Adamo, 
 S. Clifford, J. Ochterski, G. A. Petersson, P. Y. Ayala, Q. Cui, 
 K. Morokuma, D. K. Malick, A. D. Rabuck, K. Raghavachari, 
 J. B. Foresman, J. Cioslowski, J. V. Ortiz, A. G. Baboul, 
 B. B. Stefanov, G. Liu, A. Liashenko, P. Piskorz, I. Komaromi, 
 R. Gomperts, R. L. Martin, D. J. Fox, T. Keith, M. A. Al-Laham, 
 C. Y. Peng, A. Nanayakkara, C. Gonzalez, M. Challacombe, 
 P. M. W. Gill, B. Johnson, W. Chen, M. W. Wong, J. L. Andres, 
 C. Gonzalez, M. Head-Gordon, E. S. Replogle, and J. A. Pople, 
 Gaussian, Inc., Pittsburgh PA, 1998.

 **********************************************
 Gaussian 98:  IBM-RS6000-G98RevA.7 11-Apr-1999
                  12-May-2000 
 **********************************************
 %NProcl=4
 Will use up to    4 processors via Linda.
 %mem=24000000
 ----------------------
 #BLYP/6-311G* opt freq
 ----------------------
 1/14=-1,18=20,26=3,38=1/1,3;
 2/9=110,17=6,18=5/2;
 3/5=4,6=6,7=1,11=2,25=1,30=1/1,2,3;
 4//1;
 5/5=2,38=4,42=402/2;
 6/7=2,8=2,9=2,10=2,28=1/1;
 7//1,2,3,16;
 1/14=-1,18=20/3(1);
 99//99;
 2/9=110/2;
 3/5=4,6=6,7=1,11=2,25=1,30=1/1,2,3;
 4/5=5,16=2/1;
 5/5=2,38=4,42=402/2;
 7//1,2,3,16;
 1/14=-1,18=20/3(-5);
 2/9=110/2;
 6/7=2,8=2,9=2,10=2,19=2,28=1/1;
 99/9=1/99;
 -------------------------------
 1H pyrazole C3H4N2 casno=288131
 -------------------------------
 Symbolic Z-matrix:
 Charge =  0 Multiplicity = 1
 H                    -1.9125    0.       -0.75938 
 C                    -1.08438   0.       -0.21875 
 H                     0.43438   0.       -1.63125 
 C                     0.15      0.       -0.68438 
 H                     1.9125    0.        0.37188 
 C                     0.92188   0.        0.375 
 N                     0.18125   0.        1.41875 
 H                    -1.74063   0.        1.63125 
 N                    -1.00313   0.        1.05313 

 GradGradGradGradGradGradGradGradGradGradGradGradGradGradGradGradGradGrad
 Berny optimization.
 Initialization pass.
                         ----------------------------
                         !    Initial Parameters    !
                         ! (Angstroms and Degrees)  !
 ------------------------                            -------------------------
 ! Name  Definition              Value          Derivative Info.             !
 -----------------------------------------------------------------------------
 ! R1    R(1,2)                  0.989          estimate D2E/DX2             !
 ! R2    R(2,4)                  1.3193         estimate D2E/DX2             !
 ! R3    R(2,9)                  1.2745         estimate D2E/DX2             !
 ! R4    R(3,4)                  0.9887         estimate D2E/DX2             !
 ! R5    R(4,6)                  1.3108         estimate D2E/DX2             !
 ! R6    R(5,6)                  0.9906         estimate D2E/DX2             !
 ! R7    R(6,7)                  1.2798         estimate D2E/DX2             !
 ! R8    R(7,9)                  1.2395         estimate D2E/DX2             !
 ! R9    R(8,9)                  0.9371         estimate D2E/DX2             !
 ! A1    A(1,2,4)              126.195          estimate D2E/DX2             !
 ! A2    A(1,2,9)              126.7929         estimate D2E/DX2             !
 ! A3    A(4,2,9)              107.012          estimate D2E/DX2             !
 ! A4    A(2,4,3)              127.3838         estimate D2E/DX2             !
 ! A5    A(2,4,6)              105.4104         estimate D2E/DX2             !
 ! A6    A(3,4,6)              127.2058         estimate D2E/DX2             !
 ! A7    A(4,6,5)              125.8968         estimate D2E/DX2             !
 ! A8    A(4,6,7)              108.5636         estimate D2E/DX2             !
 ! A9    A(5,6,7)              125.5395         estimate D2E/DX2             !
 ! A10   A(6,7,9)              108.203          estimate D2E/DX2             !
 ! A11   A(2,9,7)              110.811          estimate D2E/DX2             !
 ! A12   A(2,9,8)              124.4376         estimate D2E/DX2             !
 ! A13   A(7,9,8)              124.7513         estimate D2E/DX2             !
 ! D1    D(1,2,4,3)              0.             estimate D2E/DX2             !
 ! D2    D(1,2,4,6)            180.             estimate D2E/DX2             !
 ! D3    D(9,2,4,3)            180.             estimate D2E/DX2             !
 ! D4    D(9,2,4,6)              0.             estimate D2E/DX2             !
 ! D5    D(1,2,9,7)            180.             estimate D2E/DX2             !
 ! D6    D(1,2,9,8)              0.             estimate D2E/DX2             !
 ! D7    D(4,2,9,7)              0.             estimate D2E/DX2             !
 ! D8    D(4,2,9,8)            180.             estimate D2E/DX2             !
 ! D9    D(2,4,6,5)            180.             estimate D2E/DX2             !
 ! D10   D(2,4,6,7)              0.             estimate D2E/DX2             !
 ! D11   D(3,4,6,5)              0.             estimate D2E/DX2             !
 ! D12   D(3,4,6,7)            180.             estimate D2E/DX2             !
 ! D13   D(4,6,7,9)              0.             estimate D2E/DX2             !
 ! D14   D(5,6,7,9)            180.             estimate D2E/DX2             !
 ! D15   D(6,7,9,2)              0.             estimate D2E/DX2             !
 ! D16   D(6,7,9,8)            180.             estimate D2E/DX2             !
 -----------------------------------------------------------------------------
 Trust Radius=3.00D-01 FncErr=1.00D-07 GrdErr=1.00D-06
 Number of steps in this run=  48 maximum allowed number of steps= 100.
 GradGradGradGradGradGradGradGradGradGradGradGradGradGradGradGradGradGrad

                          Input orientation:                          
 ---------------------------------------------------------------------
 Center     Atomic     Atomic              Coordinates (Angstroms)
 Number     Number      Type              X           Y           Z
 ---------------------------------------------------------------------
    1          1             0       -1.912500     .000000    -.759375
    2          6             0       -1.084375     .000000    -.218750
    3          1             0         .434375     .000000   -1.631250
    4          6             0         .150000     .000000    -.684375
    5          1             0        1.912500     .000000     .371875
    6          6             0         .921875     .000000     .375000
    7          7             0         .181250     .000000    1.418750
    8          1             0       -1.740625     .000000    1.631250
    9          7             0       -1.003125     .000000    1.053125
 ---------------------------------------------------------------------
                    Distance matrix (angstroms):
                    1          2          3          4          5
     1  H     .000000
     2  C     .988972    .000000
     3  H    2.503595   2.074068    .000000
     4  C    2.063863   1.319276    .988656    .000000
     5  H    3.988778   3.054521   2.489450   2.054768    .000000
     6  C    3.052947   2.092266   2.064630   1.310750    .990630
     7  N    3.021261   2.069592   3.060486   2.103357   2.023159
     8  H    2.396796   1.962948   3.921037   2.989412   3.864110
     9  N    2.027836   1.274468   3.045041   2.085331   2.994156
                    6          7          8          9
     6  C     .000000
     7  N    1.279820    .000000
     8  H    2.943989   1.933587    .000000
     9  N    2.040950   1.239526    .937088    .000000
 Stoichiometry    C3H4N2
 Framework group  CS[SG(C3H4N2)]
 Deg. of freedom   15
 Full point group                 CS      NOp   2
 Largest Abelian subgroup         CS      NOp   2
 Largest concise Abelian subgroup C1      NOp   1
                         Standard orientation:                         
 ---------------------------------------------------------------------
 Center     Atomic     Atomic              Coordinates (Angstroms)
 Number     Number      Type              X           Y           Z
 ---------------------------------------------------------------------
    1          1             0        1.974407     .585689     .000000
    2          6             0        1.028833     .295936     .000000
    3          1             0        1.140941   -1.775099     .000000
    4          6             0         .595873    -.950271     .000000
    5          1             0       -1.344123   -1.627388     .000000
    6          6             0        -.712074    -.864589     .000000
    7          7             0       -1.039336     .372682     .000000
    8          1             0         .028336    1.984773     .000000
    9          7             0         .000000    1.048113     .000000
 ---------------------------------------------------------------------
 Rotational constants (GHZ):     11.1878032     10.4520048      5.4036973
 Isotopes: H-1,C-12,H-1,C-12,H-1,C-12,N-14,H-1,N-14
 Standard basis: 6-311G(d) (5D, 7F)
 There are    77 symmetry adapted basis functions of A'  symmetry.
 There are    25 symmetry adapted basis functions of A"  symmetry.
 Crude estimate of integral set expansion from redundant integrals=1.000.
 Integral buffers will be    262144 words long.
 Raffenetti 2 integral format.
 Two-electron integral symmetry is turned on.
   102 basis functions      180 primitive gaussians
    18 alpha electrons       18 beta electrons
       nuclear repulsion energy       173.7391879471 Hartrees.
 One-electron integrals computed using PRISM.
 NBasis=   102 RedAO= T  NBF=    77    25
 NBsUse=   102 1.00D-04 NBFU=    77    25
 Projected INDO Guess.
 Initial guess orbital symmetries:
       Occupied  (A') (A') (A') (A') (A') (A') (A') (A') (A') (A')
                 (A') (A") (A') (A') (A') (A") (A') (A")
       Virtual   (A") (A') (A') (A") (A') (A') (A') (A') (A') (A')
                 (A') (A') (A') (A') (A') (A') (A') (A') (A') (A')
                 (A') (A') (A') (A') (A') (A') (A') (A') (A') (A')
                 (A') (A') (A') (A') (A') (A') (A') (A') (A') (A')
                 (A') (A') (A') (A') (A') (A') (A') (A') (A') (A')
                 (A') (A') (A') (A') (A') (A') (A') (A') (A') (A')
                 (A') (A') (A') (A') (A") (A") (A") (A") (A") (A")
                 (A") (A") (A") (A") (A") (A") (A") (A") (A") (A")
                 (A") (A") (A") (A")
 Requested convergence on RMS density matrix=1.00D-08 within  64 cycles.
 Requested convergence on MAX density matrix=1.00D-06.
 Integral accuracy reduced to 1.0D-05 until final iterations.
 Initial convergence to 1.0D-05 achieved.  Increase integral accuracy.
 SCF Done:  E(RB-LYP) =  -226.097210032     A.U. after   16 cycles
             Convg  =     .3343D-08             -V/T =  1.9938
             S**2   =    .0000

 **********************************************************************

            Population analysis using the SCF density.

 **********************************************************************

 Orbital Symmetries:
       Occupied  (A') (A') (A') (A') (A') (A') (A') (A') (A') (A')
                 (A') (A') (A") (A') (A') (A") (A') (A")
       Virtual   (A") (A') (A") (A') (A') (A') (A') (A') (A') (A')
                 (A') (A") (A') (A') (A") (A') (A') (A") (A') (A')
                 (A") (A') (A') (A') (A') (A") (A') (A') (A') (A')
                 (A') (A') (A') (A") (A') (A") (A') (A") (A') (A")
                 (A') (A") (A') (A') (A') (A') (A') (A") (A") (A')
                 (A') (A') (A") (A') (A') (A") (A') (A') (A") (A')
                 (A") (A") (A') (A") (A') (A') (A') (A') (A') (A')
                 (A") (A') (A') (A") (A') (A') (A') (A') (A') (A')
                 (A') (A') (A') (A')
  The electronic state is 1-A'.
 Alpha  occ. eigenvalues --  -14.06332 -13.98182  -9.89845  -9.87953  -9.85558
 Alpha  occ. eigenvalues --   -1.01525   -.76206   -.72103   -.58097   -.55363
 Alpha  occ. eigenvalues --    -.50359   -.42246   -.41897   -.38562   -.34879
 Alpha  occ. eigenvalues --    -.23123   -.21619   -.20908
 Alpha virt. eigenvalues --     .02020    .02676    .06698    .06809    .08264
 Alpha virt. eigenvalues --     .11101    .21204    .21960    .24947    .25315
 Alpha virt. eigenvalues --     .35157    .36236    .38885    .41285    .41894
 Alpha virt. eigenvalues --     .43850    .46005    .48026    .50093    .56999
 Alpha virt. eigenvalues --     .59227    .60739    .61538    .65111    .66828
 Alpha virt. eigenvalues --     .68334    .69010    .72754    .78809    .81773
 Alpha virt. eigenvalues --     .86787    .90591   1.01017   1.01694   1.11355
 Alpha virt. eigenvalues --    1.13155   1.21399   1.25200   1.26777   1.36364
 Alpha virt. eigenvalues --    1.57934   1.59048   1.59601   1.66948   1.72826
 Alpha virt. eigenvalues --    1.79712   1.83046   1.90643   1.93049   1.99269
 Alpha virt. eigenvalues --    2.07131   2.15459   2.18192   2.24906   2.38767
 Alpha virt. eigenvalues --    2.41602   2.48859   2.53206   2.54621   2.66864
 Alpha virt. eigenvalues --    2.67317   2.77404   2.77810   2.90283   3.02477
 Alpha virt. eigenvalues --    3.16477   3.28440   3.30823   3.32346   3.44020
 Alpha virt. eigenvalues --    3.55736   3.56672   3.64968   3.83629   3.96573
 Alpha virt. eigenvalues --    4.11605   4.43533   4.54638   5.45615  23.25988
 Alpha virt. eigenvalues --   23.85276  24.19004  35.15984  35.41962
          Condensed to atoms (all electrons):
              1          2          3          4          5          6
  1  H     .458042    .376194    .001706   -.031475   -.000525    .003700
  2  C     .376194   5.175127   -.062491    .493018    .014834   -.054164
  3  H     .001706   -.062491    .493359    .398032   -.004284   -.044064
  4  C    -.031475    .493018    .398032   5.082114   -.064415    .554403
  5  H    -.000525    .014834   -.004284   -.064415    .461769    .412887
  6  C     .003700   -.054164   -.044064    .554403    .412887   4.808633
  7  N     .007828   -.208584    .015676   -.038890   -.026825    .605223
  8  H    -.002771   -.070866   -.000186    .016282   -.000589    .002611
  9  N    -.028990    .354713    .008538   -.033144    .004116   -.195036
              7          8          9
  1  H     .007828   -.002771   -.028990
  2  C    -.208584   -.070866    .354713
  3  H     .015676   -.000186    .008538
  4  C    -.038890    .016282   -.033144
  5  H    -.026825   -.000589    .004116
  6  C     .605223    .002611   -.195036
  7  N    6.455564   -.038512    .384060
  8  H    -.038512    .394684    .356606
  9  N     .384060    .356606   6.461476
 Total atomic charges:
              1
  1  H     .216290
  2  C    -.017781
  3  H     .193715
  4  C    -.375925
  5  H     .203032
  6  C    -.094193
  7  N    -.155540
  8  H     .342741
  9  N    -.312338
 Sum of Mulliken charges=    .00000
 Atomic charges with hydrogens summed into heavy atoms:
              1
  1  H     .000000
  2  C     .198509
  3  H     .000000
  4  C    -.182210
  5  H     .000000
  6  C     .108839
  7  N    -.155540
  8  H     .000000
  9  N     .030403
 Sum of Mulliken charges=    .00000
 Electronic spatial extent (au):  <R**2>=   259.0746
 Charge=      .0000 electrons
 Dipole moment (Debye):
    X=     1.9467    Y=     1.0708    Z=      .0000  Tot=     2.2217
 Quadrupole moment (Debye-Ang):
   XX=   -30.0855   YY=   -22.2364   ZZ=   -30.6935
   XY=     2.3661   XZ=      .0000   YZ=      .0000
 Octapole moment (Debye-Ang**2):
  XXX=     7.4357  YYY=    11.5008  ZZZ=      .0000  XYY=      .3535
  XXY=    -2.0588  XXZ=      .0000  XZZ=     -.9996  YZZ=     2.2874
  YYZ=      .0000  XYZ=      .0000
 Hexadecapole moment (Debye-Ang**3):
 XXXX=  -154.5689 YYYY=  -124.9266 ZZZZ=   -31.4018 XXXY=     6.4804
 XXXZ=      .0000 YYYX=      .0072 YYYZ=      .0000 ZZZX=      .0000
 ZZZY=      .0000 XXYY=   -48.4330 XXZZ=   -33.3614 YYZZ=   -33.2161
 XXYZ=      .0000 YYXZ=      .0000 ZZXY=     -.4063
 N-N= 1.737391879471D+02 E-N=-8.761123735903D+02  KE= 2.275060298508D+02
 Symmetry A'   KE= 2.189727228870D+02
 Symmetry A"   KE= 8.533306963746D+00
 ***** Axes restored to original set *****
 -------------------------------------------------------------------
 Center     Atomic                   Forces (Hartrees/Bohr)
 Number     Number              X              Y              Z
 -------------------------------------------------------------------
    1          1           -.077967329     .000000000    -.040426756
    2          6           -.024247054     .000000000    -.061129894
    3          1            .022439442     .000000000    -.084644796
    4          6           -.008334815     .000000000    -.046610619
    5          1            .085434260     .000000000     .010940166
    6          6            .014135921     .000000000     .014831056
    7          7            .092731787     .000000000     .148659456
    8          1           -.062017315     .000000000     .062502124
    9          7           -.042174896     .000000000    -.004120737
 -------------------------------------------------------------------
 Cartesian Forces:  Max      .148659456 RMS      .050929860

 GradGradGradGradGradGradGradGradGradGradGradGradGradGradGradGradGradGrad
 Berny optimization.
 Internal  Forces:  Max      .133571829 RMS      .050743373
 Search for a local minimum.
 Step number   1 out of a maximum of  48
 All quantities printed in internal units (Hartrees-Bohrs-Radians)
 Second derivative matrix not updated -- first step.
     Eigenvalues ---     .03204    .03245    .03263    .03273    .03342
     Eigenvalues ---     .03375    .16000    .16000    .16000    .16000
     Eigenvalues ---     .22000    .22938    .49374    .49681    .49740
     Eigenvalues ---     .56490    .56686    .60708    .68179    .73042
     Eigenvalues ---     .827791000.000001000.000001000.000001000.00000
     Eigenvalues --- 1000.000001000.000001000.000001000.000001000.00000
     Eigenvalues --- 1000.000001000.000001000.000001000.000001000.00000
     Eigenvalues --- 1000.000001000.000001000.00000
 RFO step:  Lambda=-1.29187105D-01.
 Linear search not attempted -- first point.
 Maximum step size (    .300) exceeded in Quadratic search.
    -- Step size scaled by    .706
 Iteration  1 RMS(Cart)=   .06344417 RMS(Int)=   .00066785
 Iteration  2 RMS(Cart)=   .00082790 RMS(Int)=   .00000684
 Iteration  3 RMS(Cart)=   .00000048 RMS(Int)=   .00000682
 Variable       Old X    -DE/DX   Delta X   Delta X   Delta X     New X
                                 (Linear)    (Quad)   (Total)
    R1        1.86889    .08739    .00000    .09849    .09849   1.96738
    R2        2.49307    .08776    .00000    .08059    .08060   2.57367
    R3        2.40839    .12253    .00000    .10047    .10046   2.50886
    R4        1.86829    .08752    .00000    .09855    .09855   1.96684
    R5        2.47696    .13220    .00000    .11753    .11755   2.59451
    R6        1.87202    .08540    .00000    .09673    .09673   1.96875
    R7        2.41851    .08547    .00000    .07005    .07005   2.48856
    R8        2.34237    .13357    .00000    .09661    .09659   2.43896
    R9        1.77084    .08737    .00000    .08372    .08372   1.85456
    A1        2.20252    .01317    .00000    .03040    .03040   2.23292
    A2        2.21295   -.00323    .00000   -.00961   -.00961   2.20334
    A3        1.86771   -.00994    .00000   -.02079   -.02079   1.84692
    A4        2.22327   -.00365    .00000   -.00285   -.00286   2.22040
    A5        1.83976    .00195    .00000   -.00734   -.00732   1.83244
    A6        2.22016    .00170    .00000    .01019    .01018   2.23034
    A7        2.19731    .00101    .00000    .01016    .01015   2.20746
    A8        1.89479    .01896    .00000    .03086    .03087   1.92566
    A9        2.19108   -.01997    .00000   -.04102   -.04102   2.15006
   A10        1.88850   -.02621    .00000   -.04217   -.04218   1.84632
   A11        1.93402    .01523    .00000    .03943    .03941   1.97343
   A12        2.17185    .00207    .00000    .00391    .00392   2.17576
   A13        2.17732   -.01730    .00000   -.04334   -.04333   2.13399
    D1         .00000    .00000    .00000    .00000    .00000    .00000
    D2        3.14159    .00000    .00000    .00000    .00000   3.14159
    D3        3.14159    .00000    .00000    .00000    .00000   3.14159
    D4         .00000    .00000    .00000    .00000    .00000    .00000
    D5        3.14159    .00000    .00000    .00000    .00000   3.14159
    D6         .00000    .00000    .00000    .00000    .00000    .00000
    D7         .00000    .00000    .00000    .00000    .00000    .00000
    D8        3.14159    .00000    .00000    .00000    .00000   3.14159
    D9        3.14159    .00000    .00000    .00000    .00000   3.14159
   D10         .00000    .00000    .00000    .00000    .00000    .00000
   D11         .00000    .00000    .00000    .00000    .00000    .00000
   D12        3.14159    .00000    .00000    .00000    .00000   3.14159
   D13         .00000    .00000    .00000    .00000    .00000    .00000
   D14        3.14159    .00000    .00000    .00000    .00000   3.14159
   D15         .00000    .00000    .00000    .00000    .00000    .00000
   D16        3.14159    .00000    .00000    .00000    .00000   3.14159
         Item               Value     Threshold  Converged?
 Maximum Force             .133572      .000450     NO 
 RMS     Force             .050743      .000300     NO 
 Maximum Displacement      .175213      .001800     NO 
 RMS     Displacement      .063396      .001200     NO 
 Predicted change in Energy=-2.634165D-02
 GradGradGradGradGradGradGradGradGradGradGradGradGradGradGradGradGradGrad

                          Input orientation:                          
 ---------------------------------------------------------------------
 Center     Atomic     Atomic              Coordinates (Angstroms)
 Number     Number      Type              X           Y           Z
 ---------------------------------------------------------------------
    1          1             0       -1.807042     .000000   -1.180283
    2          6             0        -.921149     .000000    -.633413
    3          1             0         .657152     .000000   -2.103758
    4          6             0         .355560     .000000   -1.107603
    5          1             0        2.191859     .000000     .032198
    6          6             0        1.150239     .000000     .011989
    7          7             0         .408126     .000000    1.099858
    8          1             0       -1.576060     .000000    1.310517
    9          7             0        -.815717     .000000     .690025
 ---------------------------------------------------------------------
                    Distance matrix (angstroms):
                    1          2          3          4          5
     1  H     .000000
     2  C    1.041092    .000000
     3  H    2.631550   2.157069    .000000
     4  C    2.163822   1.361925   1.040809    .000000
     5  H    4.178674   3.183372   2.630139   2.161282    .000000
     6  C    3.188577   2.169607   2.172445   1.372953   1.041816
     7  N    3.178996   2.184308   3.213280   2.208087   2.078846
     8  H    2.501487   2.051286   4.079768   3.094908   3.978858
     9  N    2.116784   1.327631   3.158253   2.145543   3.078677
                    6          7          8          9
     6  C     .000000
     7  N    1.316887    .000000
     8  H    3.019749   1.995338    .000000
     9  N    2.079595   1.290642    .981393    .000000
 Stoichiometry    C3H4N2
 Framework group  CS[SG(C3H4N2)]
 Deg. of freedom   15
 Full point group                 CS      NOp   2
 Largest Abelian subgroup         CS      NOp   2
 Largest concise Abelian subgroup C1      NOp   1
                         Standard orientation:                         
 ---------------------------------------------------------------------
 Center     Atomic     Atomic              Coordinates (Angstroms)
 Number     Number      Type              X           Y           Z
 ---------------------------------------------------------------------
    1          1             0        2.070959     .629102     .000000
    2          6             0        1.083344     .299726     .000000
    3          1             0        1.200116   -1.854180     .000000
    4          6             0         .628882    -.984137     .000000
    5          1             0       -1.423057   -1.662877     .000000
    6          6             0        -.739836    -.876373     .000000
    7          7             0       -1.099075     .390568     .000000
    8          1             0         .011166    2.048499     .000000
    9          7             0         .000000    1.067170     .000000
 ---------------------------------------------------------------------
 Rotational constants (GHZ):     10.1075399      9.9196448      5.0063555
 Isotopes: H-1,C-12,H-1,C-12,H-1,C-12,N-14,H-1,N-14
 Standard basis: 6-311G(d) (5D, 7F)
 There are    77 symmetry adapted basis functions of A'  symmetry.
 There are    25 symmetry adapted basis functions of A"  symmetry.
 Crude estimate of integral set expansion from redundant integrals=1.000.
 Integral buffers will be    262144 words long.
 Raffenetti 2 integral format.
 Two-electron integral symmetry is turned on.
   102 basis functions      180 primitive gaussians
    18 alpha electrons       18 beta electrons
       nuclear repulsion energy       167.1352683015 Hartrees.
 One-electron integrals computed using PRISM.
 NBasis=   102 RedAO= T  NBF=    77    25
 NBsUse=   102 1.00D-04 NBFU=    77    25
 Initial guess read from the read-write file:
 Initial guess orbital symmetries:
       Occupied  (A') (A') (A') (A') (A') (A') (A') (A') (A') (A')
                 (A') (A') (A") (A') (A') (A") (A') (A")
       Virtual   (A") (A') (A") (A') (A') (A') (A') (A') (A') (A')
                 (A') (A") (A') (A') (A") (A') (A') (A") (A') (A')
                 (A") (A') (A') (A') (A') (A") (A') (A') (A') (A')
                 (A') (A') (A') (A") (A') (A") (A') (A") (A') (A")
                 (A') (A") (A') (A') (A') (A') (A') (A") (A") (A')
                 (A') (A') (A") (A') (A') (A") (A') (A') (A") (A')
                 (A") (A") (A') (A") (A') (A') (A') (A') (A') (A')
                 (A") (A') (A') (A") (A') (A') (A') (A') (A') (A')
                 (A') (A') (A') (A')
 Requested convergence on RMS density matrix=1.00D-08 within  64 cycles.
 Requested convergence on MAX density matrix=1.00D-06.
 Integral accuracy reduced to 1.0D-05 until final iterations.
 Initial convergence to 1.0D-05 achieved.  Increase integral accuracy.
 SCF Done:  E(RB-LYP) =  -226.159548075     A.U. after   14 cycles
             Convg  =     .8151D-08             -V/T =  1.9987
             S**2   =    .0000
 ***** Axes restored to original set *****
 -------------------------------------------------------------------
 Center     Atomic                   Forces (Hartrees/Bohr)
 Number     Number              X              Y              Z
 -------------------------------------------------------------------
    1          1           -.033000207     .000000000    -.012023591
    2          6           -.001084739     .000000000    -.027203160
    3          1            .009080578     .000000000    -.033535804
    4          6           -.002214562     .000000000    -.013775823
    5          1            .034238641     .000000000     .007425581
    6          6            .002485055     .000000000    -.001824834
    7          7            .046403771     .000000000     .061622525
    8          1           -.020924958     .000000000     .026021712
    9          7           -.034983580     .000000000    -.006706605
 -------------------------------------------------------------------
 Cartesian Forces:  Max      .061622525 RMS      .021898707

 GradGradGradGradGradGradGradGradGradGradGradGradGradGradGradGradGradGrad
 Berny optimization.
 Internal  Forces:  Max      .061787443 RMS      .020356319
 Search for a local minimum.
 Step number   2 out of a maximum of  48
 All quantities printed in internal units (Hartrees-Bohrs-Radians)
 Update second derivatives using information from points  1  2
 Trust test= 2.37D+00 RLast= 3.00D-01 DXMaxT set to 4.24D-01
     Eigenvalues ---     .03204    .03247    .03260    .03273    .03342
     Eigenvalues ---     .03375    .15904    .16000    .16000    .16016
     Eigenvalues ---     .22017    .23478    .49444    .49711    .50755
     Eigenvalues ---     .57147    .58115    .61602    .68484    .72279
     Eigenvalues ---     .808831000.000001000.000001000.000001000.00000
     Eigenvalues --- 1000.000001000.000001000.000001000.000001000.00000
     Eigenvalues --- 1000.000001000.000001000.000001000.000001000.00000
     Eigenvalues --- 1000.000001000.000001000.00000
 RFO step:  Lambda=-2.68648393D-03.
 Quartic linear search produced a step of   .88055.
 Iteration  1 RMS(Cart)=   .06276798 RMS(Int)=   .00155417
 Iteration  2 RMS(Cart)=   .00188126 RMS(Int)=   .00005086
 Iteration  3 RMS(Cart)=   .00000353 RMS(Int)=   .00005076
 Iteration  4 RMS(Cart)=   .00000000 RMS(Int)=   .00005076
 Variable       Old X    -DE/DX   Delta X   Delta X   Delta X     New X
                                 (Linear)    (Quad)   (Total)
    R1        1.96738    .03440    .08673    .00365    .09038   2.05775
    R2        2.57367    .03428    .07097   -.00329    .06760   2.64126
    R3        2.50886    .04627    .08846   -.00734    .08107   2.58993
    R4        1.96684    .03473    .08678    .00467    .09145   2.05830
    R5        2.59451    .04838    .10351   -.01474    .08878   2.68328
    R6        1.96875    .03438    .08517    .00660    .09177   2.06052
    R7        2.48856    .03399    .06168   -.00122    .06054   2.54910
    R8        2.43896    .06179    .08506    .01621    .10131   2.54027
    R9        1.85456    .03266    .07372   -.00558    .06814   1.92271
    A1        2.23292    .00767    .02677    .04696    .07380   2.30672
    A2        2.20334   -.00631   -.00846   -.05991   -.06830   2.13505
    A3        1.84692   -.00136   -.01831    .01295   -.00550   1.84142
    A4        2.22040   -.00202   -.00252   -.00060   -.00308   2.21732
    A5        1.83244    .00200   -.00644   -.00437   -.01089   1.82155
    A6        2.23034    .00001    .00896    .00497    .01397   2.24431
    A7        2.20746    .00275    .00894    .03880    .04770   2.25516
    A8        1.92566    .00780    .02718    .00614    .03340   1.95907
    A9        2.15006   -.01055   -.03612   -.04494   -.08110   2.06896
   A10        1.84632   -.01017   -.03714   -.00037   -.03734   1.80898
   A11        1.97343    .00173    .03470   -.01435    .02033   1.99376
   A12        2.17576    .00556    .00345    .04918    .05264   2.22840
   A13        2.13399   -.00730   -.03815   -.03483   -.07297   2.06102
    D1         .00000    .00000    .00000    .00000    .00000    .00000
    D2        3.14159    .00000    .00000    .00000    .00000   3.14159
    D3        3.14159    .00000    .00000    .00000    .00000   3.14159
    D4         .00000    .00000    .00000    .00000    .00000    .00000
    D5        3.14159    .00000    .00000    .00000    .00000   3.14159
    D6         .00000    .00000    .00000    .00000    .00000    .00000
    D7         .00000    .00000    .00000    .00000    .00000    .00000
    D8        3.14159    .00000    .00000    .00000    .00000   3.14159
    D9        3.14159    .00000    .00000    .00000    .00000   3.14159
   D10         .00000    .00000    .00000    .00000    .00000    .00000
   D11         .00000    .00000    .00000    .00000    .00000    .00000
   D12        3.14159    .00000    .00000    .00000    .00000   3.14159
   D13         .00000    .00000    .00000    .00000    .00000    .00000
   D14        3.14159    .00000    .00000    .00000    .00000   3.14159
   D15         .00000    .00000    .00000    .00000    .00000    .00000
   D16        3.14159    .00000    .00000    .00000    .00000   3.14159
         Item               Value     Threshold  Converged?
 Maximum Force             .061787      .000450     NO 
 RMS     Force             .020356      .000300     NO 
 Maximum Displacement      .189352      .001800     NO 
 RMS     Displacement      .062730      .001200     NO 
 Predicted change in Energy=-2.262834D-02
 GradGradGradGradGradGradGradGradGradGradGradGradGradGradGradGradGradGrad

                          Input orientation:                          
 ---------------------------------------------------------------------
 Center     Atomic     Atomic              Coordinates (Angstroms)
 Number     Number      Type              X           Y           Z
 ---------------------------------------------------------------------
    1          1             0       -1.910595     .000000   -1.189226
    2          6             0        -.947151     .000000    -.681765
    3          1             0         .683942     .000000   -2.202841
    4          6             0         .365766     .000000   -1.161146
    5          1             0        2.255082     .000000     .101073
    6          6             0        1.168503     .000000     .010102
    7          7             0         .427355     .000000    1.137178
    8          1             0       -1.591736     .000000    1.368288
    9          7             0        -.838366     .000000     .684444
 ---------------------------------------------------------------------
                    Distance matrix (angstroms):
                    1          2          3          4          5
     1  H     .000000
     2  C    1.088917    .000000
     3  H    2.785504   2.230277    .000000
     4  C    2.276534   1.397697   1.089204    .000000
     5  H    4.360933   3.296534   2.788638   2.272160    .000000
     6  C    3.304426   2.225909   2.265373   1.419932   1.090381
     7  N    3.298206   2.279873   3.349860   2.299149   2.100976
     8  H    2.577314   2.149001   4.234580   3.198414   4.050166
     9  N    2.158776   1.370533   3.264021   2.203664   3.147975
                    6          7          8          9
     6  C     .000000
     7  N    1.348925    .000000
     8  H    3.076294   2.032274    .000000
     9  N    2.117135   1.344253   1.017452    .000000
 Stoichiometry    C3H4N2
 Framework group  CS[SG(C3H4N2)]
 Deg. of freedom   15
 Full point group                 CS      NOp   2
 Largest Abelian subgroup         CS      NOp   2
 Largest concise Abelian subgroup C1      NOp   1
                         Standard orientation:                         
 ---------------------------------------------------------------------
 Center     Atomic     Atomic              Coordinates (Angstroms)
 Number     Number      Type              X           Y           Z
 ---------------------------------------------------------------------
    1          1             0        2.128783     .728399     .000000
    2          6             0        1.125546     .305014     .000000
    3          1             0        1.267848   -1.920718     .000000
    4          6             0         .663947   -1.014260     .000000
    5          1             0       -1.509960   -1.675199     .000000
    6          6             0        -.750760    -.892546     .000000
    7          7             0       -1.152545     .395153     .000000
    8          1             0        -.051256    2.103165     .000000
    9          7             0         .000000    1.087004     .000000
 ---------------------------------------------------------------------
 Rotational constants (GHZ):      9.5529787      9.2431218      4.6977481
 Isotopes: H-1,C-12,H-1,C-12,H-1,C-12,N-14,H-1,N-14
 Standard basis: 6-311G(d) (5D, 7F)
 There are    77 symmetry adapted basis functions of A'  symmetry.
 There are    25 symmetry adapted basis functions of A"  symmetry.
 Crude estimate of integral set expansion from redundant integrals=1.000.
 Integral buffers will be    262144 words long.
 Raffenetti 2 integral format.
 Two-electron integral symmetry is turned on.
   102 basis functions      180 primitive gaussians
    18 alpha electrons       18 beta electrons
       nuclear repulsion energy       161.8171066040 Hartrees.
 One-electron integrals computed using PRISM.
 NBasis=   102 RedAO= T  NBF=    77    25
 NBsUse=   102 1.00D-04 NBFU=    77    25
 Initial guess read from the read-write file:
 Initial guess orbital symmetries:
       Occupied  (A') (A') (A') (A') (A') (A') (A') (A') (A') (A')
                 (A') (A') (A") (A') (A') (A') (A") (A")
       Virtual   (A") (A') (A") (A') (A') (A') (A') (A') (A') (A')
                 (A') (A') (A") (A') (A') (A") (A') (A') (A") (A')
                 (A") (A') (A') (A') (A') (A") (A') (A') (A') (A')
                 (A') (A') (A') (A") (A') (A") (A') (A") (A') (A")
                 (A') (A') (A") (A') (A') (A') (A') (A") (A") (A')
                 (A') (A') (A") (A') (A') (A") (A') (A') (A") (A')
                 (A") (A') (A") (A") (A') (A') (A') (A') (A') (A')
                 (A') (A') (A") (A") (A') (A') (A') (A') (A') (A')
                 (A') (A') (A') (A')
 Requested convergence on RMS density matrix=1.00D-08 within  64 cycles.
 Requested convergence on MAX density matrix=1.00D-06.
 Integral accuracy reduced to 1.0D-05 until final iterations.
 Initial convergence to 1.0D-05 achieved.  Increase integral accuracy.
 SCF Done:  E(RB-LYP) =  -226.175542205     A.U. after   15 cycles
             Convg  =     .1705D-08             -V/T =  2.0022
             S**2   =    .0000
 ***** Axes restored to original set *****
 -------------------------------------------------------------------
 Center     Atomic                   Forces (Hartrees/Bohr)
 Number     Number              X              Y              Z
 -------------------------------------------------------------------
    1          1            .001789451     .000000000     .001408197
    2          6            .004012264     .000000000    -.003005295
    3          1           -.000528301     .000000000     .002525115
    4          6           -.003862584     .000000000     .001202472
    5          1           -.001918939     .000000000    -.001245124
    6          6            .004013163     .000000000     .001883001
    7          7            .013091880     .000000000    -.000922163
    8          1            .000693549     .000000000    -.002386417
    9          7           -.017290482     .000000000     .000540214
 -------------------------------------------------------------------
 Cartesian Forces:  Max      .017290482 RMS      .004537482

 GradGradGradGradGradGradGradGradGradGradGradGradGradGradGradGradGradGrad
 Berny optimization.
 Internal  Forces:  Max      .013009887 RMS      .002634555
 Search for a local minimum.
 Step number   3 out of a maximum of  48
 All quantities printed in internal units (Hartrees-Bohrs-Radians)
 Update second derivatives using information from points  1  2  3
 Trust test= 7.07D-01 RLast= 3.05D-01 DXMaxT set to 4.24D-01
     Eigenvalues ---     .03203    .03248    .03251    .03273    .03342
     Eigenvalues ---     .03372    .15356    .16000    .16002    .16024
     Eigenvalues ---     .22036    .23404    .45579    .49510    .49713
     Eigenvalues ---     .57416    .58375    .59518    .65631    .68694
     Eigenvalues ---     .810361000.000001000.000001000.000001000.00000
     Eigenvalues --- 1000.000001000.000001000.000001000.000001000.00000
     Eigenvalues --- 1000.000001000.000001000.000001000.000001000.00000
     Eigenvalues --- 1000.000001000.000001000.00000
 RFO step:  Lambda=-4.63857685D-04.
 Quartic linear search produced a step of  -.01298.
 Iteration  1 RMS(Cart)=   .00684719 RMS(Int)=   .00002495
 Iteration  2 RMS(Cart)=   .00002566 RMS(Int)=   .00000686
 Iteration  3 RMS(Cart)=   .00000000 RMS(Int)=   .00000686
 Variable       Old X    -DE/DX   Delta X   Delta X   Delta X     New X
                                 (Linear)    (Quad)   (Total)
    R1        2.05775   -.00224   -.00117   -.00218   -.00336   2.05440
    R2        2.64126   -.00316   -.00088   -.00458   -.00546   2.63581
    R3        2.58993   -.00083   -.00105    .00177    .00073   2.59067
    R4        2.05830   -.00257   -.00119   -.00282   -.00401   2.05429
    R5        2.68328   -.00025   -.00115    .00067   -.00050   2.68279
    R6        2.06052   -.00202   -.00119   -.00178   -.00297   2.05755
    R7        2.54910   -.00168   -.00079   -.00039   -.00119   2.54791
    R8        2.54027    .01301   -.00131    .01832    .01701   2.55728
    R9        1.92271   -.00212   -.00088   -.00160   -.00248   1.92022
    A1        2.30672   -.00038   -.00096    .00099    .00002   2.30674
    A2        2.13505   -.00124    .00089   -.00585   -.00497   2.13007
    A3        1.84142    .00162    .00007    .00486    .00495   1.84637
    A4        2.21732   -.00153    .00004   -.00248   -.00244   2.21488
    A5        1.82155    .00354    .00014    .00753    .00767   1.82922
    A6        2.24431   -.00200   -.00018   -.00505   -.00523   2.23908
    A7        2.25516   -.00046   -.00062   -.00196   -.00257   2.25259
    A8        1.95907   -.00131   -.00043   -.00809   -.00854   1.95053
    A9        2.06896    .00177    .00105    .01005    .01111   2.08007
   A10        1.80898    .00056    .00048    .00864    .00912   1.81810
   A11        1.99376   -.00440   -.00026   -.01295   -.01320   1.98057
   A12        2.22840    .00095   -.00068   -.00039   -.00108   2.22732
   A13        2.06102    .00345    .00095    .01333    .01427   2.07530
    D1         .00000    .00000    .00000    .00000    .00000    .00000
    D2        3.14159    .00000    .00000    .00000    .00000   3.14159
    D3        3.14159    .00000    .00000    .00000    .00000   3.14159
    D4         .00000    .00000    .00000    .00000    .00000    .00000
    D5        3.14159    .00000    .00000    .00000    .00000   3.14159
    D6         .00000    .00000    .00000    .00000    .00000    .00000
    D7         .00000    .00000    .00000    .00000    .00000    .00000
    D8        3.14159    .00000    .00000    .00000    .00000   3.14159
    D9        3.14159    .00000    .00000    .00000    .00000   3.14159
   D10         .00000    .00000    .00000    .00000    .00000    .00000
   D11         .00000    .00000    .00000    .00000    .00000    .00000
   D12        3.14159    .00000    .00000    .00000    .00000   3.14159
   D13         .00000    .00000    .00000    .00000    .00000    .00000
   D14        3.14159    .00000    .00000    .00000    .00000   3.14159
   D15         .00000    .00000    .00000    .00000    .00000    .00000
   D16        3.14159    .00000    .00000    .00000    .00000   3.14159
         Item               Value     Threshold  Converged?
 Maximum Force             .013010      .000450     NO 
 RMS     Force             .002635      .000300     NO 
 Maximum Displacement      .022082      .001800     NO 
 RMS     Displacement      .006845      .001200     NO 
 Predicted change in Energy=-2.345925D-04
 GradGradGradGradGradGradGradGradGradGradGradGradGradGradGradGradGradGrad

                          Input orientation:                          
 ---------------------------------------------------------------------
 Center     Atomic     Atomic              Coordinates (Angstroms)
 Number     Number      Type              X           Y           Z
 ---------------------------------------------------------------------
    1          1             0       -1.909004     .000000   -1.183599
    2          6             0        -.947944     .000000    -.675428
    3          1             0         .679745     .000000   -2.191615
    4          6             0         .363036     .000000   -1.151690
    5          1             0        2.258442     .000000     .095956
    6          6             0        1.172687     .000000     .014469
    7          7             0         .429076     .000000    1.139169
    8          1             0       -1.605708     .000000    1.369041
    9          7             0        -.848111     .000000     .691854
 ---------------------------------------------------------------------
                    Distance matrix (angstroms):
                    1          2          3          4          5
     1  H     .000000
     2  C    1.087141    .000000
     3  H    2.778078   2.224455    .000000
     4  C    2.272265   1.394810   1.087083    .000000
     5  H    4.359458   3.297870   2.779436   2.269181    .000000
     6  C    3.306386   2.230030   2.260486   1.419669   1.088809
     7  N    3.295736   2.277926   3.340203   2.291810   2.105914
     8  H    2.570596   2.147675   4.231025   3.198444   4.068465
     9  N    2.154721   1.370922   3.263241   2.205795   3.163189
                    6          7          8          9
     6  C     .000000
     7  N    1.348297    .000000
     8  H    3.091010   2.047728    .000000
     9  N    2.131308   1.353254   1.016138    .000000
 Stoichiometry    C3H4N2
 Framework group  CS[SG(C3H4N2)]
 Deg. of freedom   15
 Full point group                 CS      NOp   2
 Largest Abelian subgroup         CS      NOp   2
 Largest concise Abelian subgroup C1      NOp   1
                         Standard orientation:                         
 ---------------------------------------------------------------------
 Center     Atomic     Atomic              Coordinates (Angstroms)
 Number     Number      Type              X           Y           Z
 ---------------------------------------------------------------------
    1          1             0        2.124169     .732766     .000000
    2          6             0        1.123274     .308403     .000000
    3          1             0        1.271206   -1.911127     .000000
    4          6             0         .664793   -1.008902     .000000
    5          1             0       -1.499488   -1.690863     .000000
    6          6             0        -.750723    -.900385     .000000
    7          7             0       -1.153316     .386404     .000000
    8          1             0        -.046744    2.109392     .000000
    9          7             0         .000000    1.094330     .000000
 ---------------------------------------------------------------------
 Rotational constants (GHZ):      9.4773555      9.2854467      4.6902098
 Isotopes: H-1,C-12,H-1,C-12,H-1,C-12,N-14,H-1,N-14
 Standard basis: 6-311G(d) (5D, 7F)
 There are    77 symmetry adapted basis functions of A'  symmetry.
 There are    25 symmetry adapted basis functions of A"  symmetry.
 Crude estimate of integral set expansion from redundant integrals=1.000.
 Integral buffers will be    262144 words long.
 Raffenetti 2 integral format.
 Two-electron integral symmetry is turned on.
   102 basis functions      180 primitive gaussians
    18 alpha electrons       18 beta electrons
       nuclear repulsion energy       161.6773317272 Hartrees.
 One-electron integrals computed using PRISM.
 NBasis=   102 RedAO= T  NBF=    77    25
 NBsUse=   102 1.00D-04 NBFU=    77    25
 Initial guess read from the read-write file:
 Initial guess orbital symmetries:
       Occupied  (A') (A') (A') (A') (A') (A') (A') (A') (A') (A')
                 (A') (A') (A") (A') (A') (A') (A") (A")
       Virtual   (A") (A') (A") (A') (A') (A') (A') (A') (A') (A')
                 (A') (A') (A') (A') (A") (A') (A") (A') (A") (A')
                 (A') (A") (A') (A') (A') (A") (A') (A') (A') (A')
                 (A') (A') (A') (A") (A') (A") (A') (A") (A') (A")
                 (A') (A') (A") (A') (A') (A') (A') (A") (A") (A')
                 (A') (A') (A") (A') (A') (A') (A") (A') (A') (A")
                 (A") (A') (A") (A") (A') (A') (A') (A') (A') (A')
                 (A') (A') (A") (A") (A') (A') (A') (A') (A') (A')
                 (A') (A') (A') (A')
 Requested convergence on RMS density matrix=1.00D-08 within  64 cycles.
 Requested convergence on MAX density matrix=1.00D-06.
 Integral accuracy reduced to 1.0D-05 until final iterations.
 Initial convergence to 1.0D-05 achieved.  Increase integral accuracy.
 SCF Done:  E(RB-LYP) =  -226.175818474     A.U. after   12 cycles
             Convg  =     .2079D-08             -V/T =  2.0023
             S**2   =    .0000
 ***** Axes restored to original set *****
 -------------------------------------------------------------------
 Center     Atomic                   Forces (Hartrees/Bohr)
 Number     Number              X              Y              Z
 -------------------------------------------------------------------
    1          1            .000847151     .000000000     .000384769
    2          6            .002571639     .000000000    -.001513063
    3          1           -.000289358     .000000000     .000913435
    4          6           -.002439375     .000000000    -.000589450
    5          1           -.001196173     .000000000    -.000181568
    6          6           -.002607703     .000000000     .001846195
    7          7            .008650117     .000000000     .002626218
    8          1            .001288830     .000000000    -.000727485
    9          7           -.006825128     .000000000    -.002759051
 -------------------------------------------------------------------
 Cartesian Forces:  Max      .008650117 RMS      .002485241

 GradGradGradGradGradGradGradGradGradGradGradGradGradGradGradGradGradGrad
 Berny optimization.
 Internal  Forces:  Max      .006139515 RMS      .001427751
 Search for a local minimum.
 Step number   4 out of a maximum of  48
 All quantities printed in internal units (Hartrees-Bohrs-Radians)
 Update second derivatives using information from points  1  2  3  4
 Trust test= 1.18D+00 RLast= 3.42D-02 DXMaxT set to 4.24D-01
     Eigenvalues ---     .03203    .03247    .03250    .03273    .03342
     Eigenvalues ---     .03373    .15265    .15729    .16002    .16126
     Eigenvalues ---     .21843    .33933    .37505    .45772    .49572
     Eigenvalues ---     .49732    .57650    .60073    .60816    .71241
     Eigenvalues ---     .734401000.000001000.000001000.000001000.00000
     Eigenvalues --- 1000.000001000.000001000.000001000.000001000.00000
     Eigenvalues --- 1000.000001000.000001000.000001000.000001000.00000
     Eigenvalues --- 1000.000001000.000001000.00000
 RFO step:  Lambda=-1.87104015D-04.
 Quartic linear search produced a step of   .23331.
 Iteration  1 RMS(Cart)=   .00393892 RMS(Int)=   .00001100
 Iteration  2 RMS(Cart)=   .00001260 RMS(Int)=   .00000243
 Iteration  3 RMS(Cart)=   .00000000 RMS(Int)=   .00000243
 Variable       Old X    -DE/DX   Delta X   Delta X   Delta X     New X
                                 (Linear)    (Quad)   (Total)
    R1        2.05440   -.00093   -.00078   -.00204   -.00282   2.05158
    R2        2.63581   -.00349   -.00127   -.00798   -.00925   2.62656
    R3        2.59067   -.00021    .00017    .00105    .00122   2.59188
    R4        2.05429   -.00096   -.00094   -.00221   -.00315   2.05114
    R5        2.68279    .00053   -.00012    .00089    .00078   2.68356
    R6        2.05755   -.00121   -.00069   -.00268   -.00337   2.05418
    R7        2.54791   -.00237   -.00028   -.00357   -.00385   2.54407
    R8        2.55728    .00614    .00397    .01332    .01729   2.57457
    R9        1.92022   -.00145   -.00058   -.00272   -.00330   1.91692
    A1        2.30674   -.00016    .00001    .00010    .00011   2.30685
    A2        2.13007   -.00005   -.00116   -.00103   -.00218   2.12789
    A3        1.84637    .00021    .00115    .00092    .00207   1.84844
    A4        2.21488   -.00025   -.00057    .00061    .00004   2.21493
    A5        1.82922    .00047    .00179   -.00111    .00068   1.82989
    A6        2.23908   -.00022   -.00122    .00050   -.00072   2.23837
    A7        2.25259   -.00118   -.00060   -.00566   -.00626   2.24633
    A8        1.95053    .00216   -.00199    .00835    .00636   1.95689
    A9        2.08007   -.00098    .00259   -.00269   -.00010   2.07997
   A10        1.81810   -.00295    .00213   -.01002   -.00789   1.81021
   A11        1.98057    .00010   -.00308    .00186   -.00122   1.97934
   A12        2.22732    .00026   -.00025    .00056    .00031   2.22763
   A13        2.07530   -.00036    .00333   -.00242    .00091   2.07621
    D1         .00000    .00000    .00000    .00000    .00000    .00000
    D2        3.14159    .00000    .00000    .00000    .00000   3.14159
    D3        3.14159    .00000    .00000    .00000    .00000   3.14159
    D4         .00000    .00000    .00000    .00000    .00000    .00000
    D5        3.14159    .00000    .00000    .00000    .00000   3.14159
    D6         .00000    .00000    .00000    .00000    .00000    .00000
    D7         .00000    .00000    .00000    .00000    .00000    .00000
    D8        3.14159    .00000    .00000    .00000    .00000   3.14159
    D9        3.14159    .00000    .00000    .00000    .00000   3.14159
   D10         .00000    .00000    .00000    .00000    .00000    .00000
   D11         .00000    .00000    .00000    .00000    .00000    .00000
   D12        3.14159    .00000    .00000    .00000    .00000   3.14159
   D13         .00000    .00000    .00000    .00000    .00000    .00000
   D14        3.14159    .00000    .00000    .00000    .00000   3.14159
   D15         .00000    .00000    .00000    .00000    .00000    .00000
   D16        3.14159    .00000    .00000    .00000    .00000   3.14159
         Item               Value     Threshold  Converged?
 Maximum Force             .006140      .000450     NO 
 RMS     Force             .001428      .000300     NO 
 Maximum Displacement      .012085      .001800     NO 
 RMS     Displacement      .003938      .001200     NO 
 Predicted change in Energy=-1.038670D-04
 GradGradGradGradGradGradGradGradGradGradGradGradGradGradGradGradGradGrad

                          Input orientation:                          
 ---------------------------------------------------------------------
 Center     Atomic     Atomic              Coordinates (Angstroms)
 Number     Number      Type              X           Y           Z
 ---------------------------------------------------------------------
    1          1             0       -1.905676     .000000   -1.185515
    2          6             0        -.946229     .000000    -.677487
    3          1             0         .677461     .000000   -2.189275
    4          6             0         .360477     .000000   -1.151176
    5          1             0        2.254812     .000000     .089909
    6          6             0        1.170347     .000000     .015332
    7          7             0         .435002     .000000    1.143023
    8          1             0       -1.608076     .000000    1.364876
    9          7             0        -.850124     .000000     .690708
 ---------------------------------------------------------------------
                    Distance matrix (angstroms):
                    1          2          3          4          5
     1  H     .000000
     2  C    1.085648    .000000
     3  H    2.771305   2.218529    .000000
     4  C    2.266414   1.389915   1.085417    .000000
     5  H    4.351594   3.291741   2.771771   2.264684    .000000
     6  C    3.302113   2.227081   2.259033   1.420080   1.087027
     7  N    3.301645   2.285182   3.341108   2.295409   2.102560
     8  H    2.567695   2.146925   4.225597   3.194639   4.067855
     9  N    2.152766   1.371566   3.260034   2.204108   3.162529
                    6          7          8          9
     6  C     .000000
     7  N    1.346262    .000000
     8  H    3.088835   2.055088    .000000
     9  N    2.130360   1.362402   1.014393    .000000
 Stoichiometry    C3H4N2
 Framework group  CS[SG(C3H4N2)]
 Deg. of freedom   15
 Full point group                 CS      NOp   2
 Largest Abelian subgroup         CS      NOp   2
 Largest concise Abelian subgroup C1      NOp   1
                         Standard orientation:                         
 ---------------------------------------------------------------------
 Center     Atomic     Atomic              Coordinates (Angstroms)
 Number     Number      Type              X           Y           Z
 ---------------------------------------------------------------------
    1          1             0        2.122166     .733473     .000000
    2          6             0        1.123303     .308144     .000000
    3          1             0        1.275056   -1.905189     .000000
    4          6             0         .668316   -1.005191     .000000
    5          1             0       -1.488739   -1.695053     .000000
    6          6             0        -.747836    -.899635     .000000
    7          7             0       -1.160693     .381759     .000000
    8          1             0        -.046334    2.108487     .000000
    9          7             0         .000000    1.095153     .000000
 ---------------------------------------------------------------------
 Rotational constants (GHZ):      9.4973428      9.2547009      4.6872260
 Isotopes: H-1,C-12,H-1,C-12,H-1,C-12,N-14,H-1,N-14
 Standard basis: 6-311G(d) (5D, 7F)
 There are    77 symmetry adapted basis functions of A'  symmetry.
 There are    25 symmetry adapted basis functions of A"  symmetry.
 Crude estimate of integral set expansion from redundant integrals=1.000.
 Integral buffers will be    262144 words long.
 Raffenetti 2 integral format.
 Two-electron integral symmetry is turned on.
   102 basis functions      180 primitive gaussians
    18 alpha electrons       18 beta electrons
       nuclear repulsion energy       161.6223763409 Hartrees.
 One-electron integrals computed using PRISM.
 NBasis=   102 RedAO= T  NBF=    77    25
 NBsUse=   102 1.00D-04 NBFU=    77    25
 Initial guess read from the read-write file:
 Initial guess orbital symmetries:
       Occupied  (A') (A') (A') (A') (A') (A') (A') (A') (A') (A')
                 (A') (A') (A") (A') (A') (A') (A") (A")
       Virtual   (A") (A') (A") (A') (A') (A') (A') (A') (A') (A')
                 (A') (A') (A') (A') (A") (A') (A") (A') (A") (A')
                 (A') (A") (A') (A') (A') (A") (A') (A') (A') (A')
                 (A') (A') (A') (A") (A') (A") (A') (A") (A') (A")
                 (A') (A') (A") (A') (A') (A') (A') (A") (A") (A')
                 (A') (A') (A") (A') (A') (A') (A") (A') (A') (A")
                 (A") (A') (A") (A") (A') (A') (A') (A') (A') (A')
                 (A') (A') (A") (A") (A') (A') (A') (A') (A') (A')
                 (A') (A') (A') (A')
 Requested convergence on RMS density matrix=1.00D-08 within  64 cycles.
 Requested convergence on MAX density matrix=1.00D-06.
 SCF Done:  E(RB-LYP) =  -226.175936158     A.U. after   10 cycles
             Convg  =     .4011D-08             -V/T =  2.0022
             S**2   =    .0000
 ***** Axes restored to original set *****
 -------------------------------------------------------------------
 Center     Atomic                   Forces (Hartrees/Bohr)
 Number     Number              X              Y              Z
 -------------------------------------------------------------------
    1          1           -.000083847     .000000000    -.000114776
    2          6            .000569403     .000000000     .001436402
    3          1            .000182391     .000000000    -.000104854
    4          6            .000093647     .000000000    -.000759991
    5          1            .000143386     .000000000     .000101380
    6          6           -.001367824     .000000000     .001049287
    7          7            .002147350     .000000000    -.000181996
    8          1            .000451595     .000000000     .000340528
    9          7           -.002136102     .000000000    -.001765980
 -------------------------------------------------------------------
 Cartesian Forces:  Max      .002147350 RMS      .000831928

 GradGradGradGradGradGradGradGradGradGradGradGradGradGradGradGradGradGrad
 Berny optimization.
 Internal  Forces:  Max      .001289630 RMS      .000377370
 Search for a local minimum.
 Step number   5 out of a maximum of  48
 All quantities printed in internal units (Hartrees-Bohrs-Radians)
 Update second derivatives using information from points  1  2  3  4  5

 Trust test= 1.13D+00 RLast= 2.44D-02 DXMaxT set to 4.24D-01
     Eigenvalues ---     .03203    .03247    .03250    .03273    .03342
     Eigenvalues ---     .03373    .15250    .15341    .16014    .16619
     Eigenvalues ---     .20210    .34381    .35061    .46061    .49567
     Eigenvalues ---     .49727    .57669    .60148    .60708    .71491
     Eigenvalues ---     .730451000.000001000.000001000.000001000.00000
     Eigenvalues --- 1000.000001000.000001000.000001000.000001000.00000
     Eigenvalues --- 1000.000001000.000001000.000001000.000001000.00000
     Eigenvalues --- 1000.000001000.000001000.00000
 RFO step:  Lambda=-1.26403548D-05.
 Quartic linear search produced a step of   .16915.
 Iteration  1 RMS(Cart)=   .00103926 RMS(Int)=   .00000158
 Iteration  2 RMS(Cart)=   .00000163 RMS(Int)=   .00000058
 Iteration  3 RMS(Cart)=   .00000000 RMS(Int)=   .00000058
 Variable       Old X    -DE/DX   Delta X   Delta X   Delta X     New X
                                 (Linear)    (Quad)   (Total)
    R1        2.05158    .00013   -.00048    .00056    .00009   2.05167
    R2        2.62656    .00020   -.00156    .00100   -.00056   2.62600
    R3        2.59188   -.00087    .00021   -.00109   -.00088   2.59100
    R4        2.05114    .00015   -.00053    .00060    .00007   2.05121
    R5        2.68356    .00017    .00013    .00037    .00051   2.68407
    R6        2.05418    .00015   -.00057    .00071    .00014   2.05432
    R7        2.54407   -.00119   -.00065   -.00148   -.00213   2.54194
    R8        2.57457    .00129    .00292    .00181    .00473   2.57930
    R9        1.91692   -.00011   -.00056    .00010   -.00046   1.91647
    A1        2.30685   -.00020    .00002   -.00104   -.00102   2.30583
    A2        2.12789   -.00008   -.00037   -.00080   -.00117   2.12672
    A3        1.84844    .00028    .00035    .00184    .00219   1.85063
    A4        2.21493    .00033    .00001    .00196    .00197   2.21689
    A5        1.82989   -.00038    .00011   -.00174   -.00162   1.82827
    A6        2.23837    .00005   -.00012   -.00022   -.00034   2.23802
    A7        2.24633   -.00016   -.00106    .00001   -.00105   2.24528
    A8        1.95689    .00050    .00108    .00105    .00213   1.95902
    A9        2.07997   -.00034   -.00002   -.00106   -.00108   2.07889
   A10        1.81021   -.00020   -.00133    .00045   -.00088   1.80933
   A11        1.97934   -.00020   -.00021   -.00160   -.00181   1.97753
   A12        2.22763    .00063    .00005    .00425    .00430   2.23193
   A13        2.07621   -.00044    .00015   -.00265   -.00249   2.07372
    D1         .00000    .00000    .00000    .00000    .00000    .00000
    D2        3.14159    .00000    .00000    .00000    .00000   3.14159
    D3        3.14159    .00000    .00000    .00000    .00000   3.14159
    D4         .00000    .00000    .00000    .00000    .00000    .00000
    D5        3.14159    .00000    .00000    .00000    .00000   3.14159
    D6         .00000    .00000    .00000    .00000    .00000    .00000
    D7         .00000    .00000    .00000    .00000    .00000    .00000
    D8        3.14159    .00000    .00000    .00000    .00000   3.14159
    D9        3.14159    .00000    .00000    .00000    .00000   3.14159
   D10         .00000    .00000    .00000    .00000    .00000    .00000
   D11         .00000    .00000    .00000    .00000    .00000    .00000
   D12        3.14159    .00000    .00000    .00000    .00000   3.14159
   D13         .00000    .00000    .00000    .00000    .00000    .00000
   D14        3.14159    .00000    .00000    .00000    .00000   3.14159
   D15         .00000    .00000    .00000    .00000    .00000    .00000
   D16        3.14159    .00000    .00000    .00000    .00000   3.14159
         Item               Value     Threshold  Converged?
 Maximum Force             .001290      .000450     NO 
 RMS     Force             .000377      .000300     NO 
 Maximum Displacement      .003209      .001800     NO 
 RMS     Displacement      .001039      .001200     YES
 Predicted change in Energy=-8.864448D-06
 GradGradGradGradGradGradGradGradGradGradGradGradGradGradGradGradGradGrad

                          Input orientation:                          
 ---------------------------------------------------------------------
 Center     Atomic     Atomic              Coordinates (Angstroms)
 Number     Number      Type              X           Y           Z
 ---------------------------------------------------------------------
    1          1             0       -1.905665     .000000   -1.186779
    2          6             0        -.946319     .000000    -.678459
    3          1             0         .678030     .000000   -2.190753
    4          6             0         .359758     .000000   -1.153008
    5          1             0        2.253294     .000000     .088848
    6          6             0        1.168744     .000000     .014438
    7          7             0         .435414     .000000    1.142096
    8          1             0       -1.608085     .000000    1.365571
    9          7             0        -.852236     .000000     .689408
 ---------------------------------------------------------------------
                    Distance matrix (angstroms):
                    1          2          3          4          5
     1  H     .000000
     2  C    1.085694    .000000
     3  H    2.771902   2.219356    .000000
     4  C    2.265675   1.389617   1.085454    .000000
     5  H    4.350191   3.290332   2.770927   2.264439    .000000
     6  C    3.300744   2.225669   2.259130   1.420348   1.087099
     7  N    3.302167   2.285521   3.341668   2.296350   2.100957
     8  H    2.569638   2.148486   4.227736   3.196192   4.066973
     9  N    2.151695   1.371099   3.261447   2.205318   3.163066
                    6          7          8          9
     6  C     .000000
     7  N    1.345134    .000000
     8  H    3.088096   2.055682    .000000
     9  N    2.130715   1.364905   1.014152    .000000
 Stoichiometry    C3H4N2
 Framework group  CS[SG(C3H4N2)]
 Deg. of freedom   15
 Full point group                 CS      NOp   2
 Largest Abelian subgroup         CS      NOp   2
 Largest concise Abelian subgroup C1      NOp   1
                         Standard orientation:                         
 ---------------------------------------------------------------------
 Center     Atomic     Atomic              Coordinates (Angstroms)
 Number     Number      Type              X           Y           Z
 ---------------------------------------------------------------------
    1          1             0        2.121125     .734688     .000000
    2          6             0        1.122480     .308730     .000000
    3          1             0        1.276187   -1.905297     .000000
    4          6             0         .669730   -1.005063     .000000
    5          1             0       -1.486805   -1.695744     .000000
    6          6             0        -.746689    -.899495     .000000
    7          7             0       -1.161931     .379943     .000000
    8          1             0        -.050112    2.109013     .000000
    9          7             0         .000000    1.096101     .000000
 ---------------------------------------------------------------------
 Rotational constants (GHZ):      9.4962263      9.2509915      4.6860025
 Isotopes: H-1,C-12,H-1,C-12,H-1,C-12,N-14,H-1,N-14
 Standard basis: 6-311G(d) (5D, 7F)
 There are    77 symmetry adapted basis functions of A'  symmetry.
 There are    25 symmetry adapted basis functions of A"  symmetry.
 Crude estimate of integral set expansion from redundant integrals=1.000.
 Integral buffers will be    262144 words long.
 Raffenetti 2 integral format.
 Two-electron integral symmetry is turned on.
   102 basis functions      180 primitive gaussians
    18 alpha electrons       18 beta electrons
       nuclear repulsion energy       161.6004149111 Hartrees.
 One-electron integrals computed using PRISM.
 NBasis=   102 RedAO= T  NBF=    77    25
 NBsUse=   102 1.00D-04 NBFU=    77    25
 Initial guess read from the read-write file:
 Initial guess orbital symmetries:
       Occupied  (A') (A') (A') (A') (A') (A') (A') (A') (A') (A')
                 (A') (A') (A') (A") (A') (A') (A") (A")
       Virtual   (A") (A') (A") (A') (A') (A') (A') (A') (A') (A')
                 (A') (A') (A') (A') (A") (A') (A") (A') (A") (A')
                 (A') (A") (A') (A') (A') (A") (A') (A') (A') (A')
                 (A') (A') (A') (A") (A') (A") (A') (A") (A') (A")
                 (A') (A') (A") (A') (A') (A') (A') (A") (A") (A')
                 (A') (A') (A") (A') (A') (A') (A") (A') (A') (A")
                 (A") (A') (A") (A") (A') (A') (A') (A') (A') (A')
                 (A') (A') (A") (A") (A') (A') (A') (A') (A') (A')
                 (A') (A') (A') (A')
 Requested convergence on RMS density matrix=1.00D-08 within  64 cycles.
 Requested convergence on MAX density matrix=1.00D-06.
 SCF Done:  E(RB-LYP) =  -226.175946837     A.U. after    9 cycles
             Convg  =     .3156D-08             -V/T =  2.0022
             S**2   =    .0000
 ***** Axes restored to original set *****
 -------------------------------------------------------------------
 Center     Atomic                   Forces (Hartrees/Bohr)
 Number     Number              X              Y              Z
 -------------------------------------------------------------------
    1          1           -.000087750     .000000000    -.000154257
    2          6           -.000257731     .000000000     .001065048
    3          1            .000056950     .000000000    -.000069565
    4          6            .000212283     .000000000    -.000225996
    5          1            .000167873     .000000000     .000061974
    6          6           -.000518952     .000000000     .000569748
    7          7            .000522930     .000000000    -.000247350
    8          1            .000122325     .000000000     .000162999
    9          7           -.000217928     .000000000    -.001162601
 -------------------------------------------------------------------
 Cartesian Forces:  Max      .001162601 RMS      .000372067

 GradGradGradGradGradGradGradGradGradGradGradGradGradGradGradGradGradGrad
 Berny optimization.
 Internal  Forces:  Max      .000741487 RMS      .000188265
 Search for a local minimum.
 Step number   6 out of a maximum of  48
 All quantities printed in internal units (Hartrees-Bohrs-Radians)
 Update second derivatives using information from points  1  2  3  4  5
                                                        6
 Trust test= 1.20D+00 RLast= 8.83D-03 DXMaxT set to 4.24D-01
     Eigenvalues ---     .03203    .03247    .03250    .03273    .03341
     Eigenvalues ---     .03372    .13584    .15280    .15963    .16065
     Eigenvalues ---     .22105    .32198    .35063    .45922    .49574
     Eigenvalues ---     .49800    .57765    .59353    .60034    .66316
     Eigenvalues ---     .725591000.000001000.000001000.000001000.00000
     Eigenvalues --- 1000.000001000.000001000.000001000.000001000.00000
     Eigenvalues --- 1000.000001000.000001000.000001000.000001000.00000
     Eigenvalues --- 1000.000001000.000001000.00000
 RFO step:  Lambda=-2.32034806D-06.
 Quartic linear search produced a step of   .31088.
 Iteration  1 RMS(Cart)=   .00054955 RMS(Int)=   .00000055
 Iteration  2 RMS(Cart)=   .00000052 RMS(Int)=   .00000007
 Variable       Old X    -DE/DX   Delta X   Delta X   Delta X     New X
                                 (Linear)    (Quad)   (Total)
    R1        2.05167    .00015    .00003    .00029    .00032   2.05198
    R2        2.62600    .00033   -.00017    .00065    .00048   2.62647
    R3        2.59100   -.00074   -.00027   -.00107   -.00135   2.58965
    R4        2.05121    .00008    .00002    .00011    .00013   2.05134
    R5        2.68407    .00012    .00016    .00021    .00037   2.68444
    R6        2.05432    .00017    .00004    .00035    .00039   2.05471
    R7        2.54194   -.00062   -.00066   -.00073   -.00140   2.54054
    R8        2.57930    .00022    .00147   -.00005    .00142   2.58072
    R9        1.91647    .00002   -.00014    .00005   -.00009   1.91638
    A1        2.30583   -.00005   -.00032   -.00030   -.00062   2.30522
    A2        2.12672    .00014   -.00036    .00095    .00059   2.12731
    A3        1.85063   -.00009    .00068   -.00065    .00003   1.85066
    A4        2.21689    .00009    .00061   -.00001    .00060   2.21749
    A5        1.82827   -.00011   -.00050    .00018   -.00032   1.82795
    A6        2.23802    .00002   -.00011   -.00017   -.00027   2.23775
    A7        2.24528    .00003   -.00033    .00032   -.00001   2.24527
    A8        1.95902    .00004    .00066   -.00020    .00046   1.95948
    A9        2.07889   -.00006   -.00034   -.00012   -.00045   2.07844
   A10        1.80933   -.00001   -.00027   -.00008   -.00035   1.80898
   A11        1.97753    .00017   -.00056    .00075    .00019   1.97772
   A12        2.23193    .00011    .00134    .00047    .00180   2.23374
   A13        2.07372   -.00029   -.00077   -.00122   -.00199   2.07173
    D1         .00000    .00000    .00000    .00000    .00000    .00000
    D2        3.14159    .00000    .00000    .00000    .00000   3.14159
    D3        3.14159    .00000    .00000    .00000    .00000   3.14159
    D4         .00000    .00000    .00000    .00000    .00000    .00000
    D5        3.14159    .00000    .00000    .00000    .00000   3.14159
    D6         .00000    .00000    .00000    .00000    .00000    .00000
    D7         .00000    .00000    .00000    .00000    .00000    .00000
    D8        3.14159    .00000    .00000    .00000    .00000   3.14159
    D9        3.14159    .00000    .00000    .00000    .00000   3.14159
   D10         .00000    .00000    .00000    .00000    .00000    .00000
   D11         .00000    .00000    .00000    .00000    .00000    .00000
   D12        3.14159    .00000    .00000    .00000    .00000   3.14159
   D13         .00000    .00000    .00000    .00000    .00000    .00000
   D14        3.14159    .00000    .00000    .00000    .00000   3.14159
   D15         .00000    .00000    .00000    .00000    .00000    .00000
   D16        3.14159    .00000    .00000    .00000    .00000   3.14159
         Item               Value     Threshold  Converged?
 Maximum Force             .000741      .000450     NO 
 RMS     Force             .000188      .000300     YES
 Maximum Displacement      .001820      .001800     NO 
 RMS     Displacement      .000550      .001200     YES
 Predicted change in Energy=-1.816649D-06
 GradGradGradGradGradGradGradGradGradGradGradGradGradGradGradGradGradGrad

                          Input orientation:                          
 ---------------------------------------------------------------------
 Center     Atomic     Atomic              Coordinates (Angstroms)
 Number     Number      Type              X           Y           Z
 ---------------------------------------------------------------------
    1          1             0       -1.905724     .000000   -1.187149
    2          6             0        -.946498     .000000    -.678246
    3          1             0         .678588     .000000   -2.190650
    4          6             0         .359773     .000000   -1.153001
    5          1             0        2.253339     .000000     .089459
    6          6             0        1.168600     .000000     .014793
    7          7             0         .435929     .000000    1.141998
    8          1             0       -1.606925     .000000    1.366444
    9          7             0        -.852376     .000000     .688903
 ---------------------------------------------------------------------
                    Distance matrix (angstroms):
                    1          2          3          4          5
     1  H     .000000
     2  C    1.085862    .000000
     3  H    2.772307   2.219970    .000000
     4  C    2.265754   1.389868   1.085522    .000000
     5  H    4.350579   3.290642   2.771054   2.264796    .000000
     6  C    3.300929   2.225745   2.259223   1.420543   1.087306
[...]
   1   1      .70    .30    .00     -.58   -.25    .00      .01    .00    .00
   2   6     -.06   -.03    .00      .05    .03    .00      .00    .00    .00
   3   1     -.30    .44    .00     -.41    .61    .00      .00    .00    .00
   4   6      .03   -.04    .00      .04   -.06    .00      .00    .00    .00
   5   1      .25    .26    .00      .16    .17    .00      .00    .00    .00
   6   6     -.02   -.02    .00     -.02   -.02    .00      .00    .00    .00
   7   7      .00    .00    .00      .00    .00    .00      .00    .00    .00
   8   1      .00   -.01    .00      .00    .01    .00     -.06   1.00    .00
   9   7      .00    .00    .00      .00    .00    .00      .01   -.07    .00

 -------------------
 - Thermochemistry -
 -------------------
 Temperature   298.150 Kelvin.  Pressure   1.00000 Atm.
 Atom  1 has atomic number  1 and mass   1.00783
 Atom  2 has atomic number  6 and mass  12.00000
 Atom  3 has atomic number  1 and mass   1.00783
 Atom  4 has atomic number  6 and mass  12.00000
 Atom  5 has atomic number  1 and mass   1.00783
 Atom  6 has atomic number  6 and mass  12.00000
 Atom  7 has atomic number  7 and mass  14.00307
 Atom  8 has atomic number  1 and mass   1.00783
 Atom  9 has atomic number  7 and mass  14.00307
 Molecular mass:    68.03745 amu.
 Principal axes and moments of inertia in atomic units:
                           1         2         3
     EIGENVALUES --   190.02881 195.08320 385.11202
           X             .94063    .33944    .00000
           Y            -.33944    .94063    .00000
           Z             .00000    .00000   1.00000
 THIS MOLECULE IS AN ASYMMETRIC TOP.
 ROTATIONAL SYMMETRY NUMBER  1.
 ROTATIONAL TEMPERATURES (KELVIN)       .45579      .44398      .22490
 ROTATIONAL CONSTANTS (GHZ)            9.49720     9.25114     4.68628
 Zero-point vibrational energy     180025.5 (Joules/Mol)
                                   43.02713 (Kcal/Mol)
 WARNING-- EXPLICIT CONSIDERATION OF   2 DEGREES OF FREEDOM AS
           VIBRATIONS MAY CAUSE SIGNIFICANT ERROR
 VIBRATIONAL TEMPERATURES:    672.45   888.31   961.72  1017.72  1129.31
          (KELVIN)           1204.86  1293.39  1312.53  1438.20  1475.79
                             1589.98  1623.70  1769.43  1913.32  1981.90
                             2058.05  2177.86  4535.74  4554.32  4578.17
                             5127.17
 
 Zero-point correction=                            .068568 (Hartree/Particle)
 Thermal correction to Energy=                     .072454
 Thermal correction to Enthalpy=                   .073399
 Thermal correction to Gibbs Free Energy=          .042218
 Sum of electronic and zero-point Energies=           -226.107381
 Sum of electronic and thermal Energies=              -226.103494
 Sum of electronic and thermal Enthalpies=            -226.102550
 Sum of electronic and thermal Free Energies=         -226.133731
 
                     E (Thermal)             CV                S
                      KCAL/MOL        CAL/MOL-KELVIN    CAL/MOL-KELVIN
 TOTAL                   45.466             14.099             65.625
 ELECTRONIC                .000               .000               .000
 TRANSLATIONAL             .889              2.981             38.570
 ROTATIONAL                .889              2.981             24.172
 VIBRATIONAL             43.688              8.137              2.883
 VIBRATION  1              .825              1.322               .745
 VIBRATION  2              .977               .995               .421
                       Q            LOG10(Q)             LN(Q)
 TOTAL BOT        .381209D-19        -19.418837        -44.713525
 TOTAL V=0        .131850D+13         12.120080         27.907516
 VIB (BOT)        .404034D-31        -31.393582        -72.286395
 VIB (BOT)  1     .361695D+00          -.441658         -1.016954
 VIB (BOT)  2     .237510D+00          -.624317         -1.437544
 VIB (V=0)        .139745D+01           .145335           .334647
 VIB (V=0)  1     .111711D+01           .048095           .110744
 VIB (V=0)  2     .105354D+01           .022653           .052160
 ELECTRONIC       .100000D+01           .000000           .000000
 TRANSLATIONAL    .220588D+08          7.343582         16.909224
 ROTATIONAL       .427723D+05          4.631163         10.663646
 ***** Axes restored to original set *****
 -------------------------------------------------------------------
 Center     Atomic                   Forces (Hartrees/Bohr)
 Number     Number              X              Y              Z
 -------------------------------------------------------------------
    1          1           -.000007938     .000000000    -.000066580
    2          6           -.000149302     .000000000     .000498982
    3          1           -.000000897     .000000000    -.000030996
    4          6            .000194469     .000000000    -.000136797
    5          1            .000060050     .000000000    -.000001849
    6          6           -.000065471     .000000000     .000087823
    7          7           -.000118330     .000000000    -.000086677
    8          1           -.000035963     .000000000     .000030807
    9          7            .000123382     .000000000    -.000294713
 -------------------------------------------------------------------
 Cartesian Forces:  Max      .000498982 RMS      .000132596

 GradGradGradGradGradGradGradGradGradGradGradGradGradGradGradGradGradGrad
 Berny optimization.
 Internal  Forces:  Max      .000289506 RMS      .000066906
 Search for a local minimum.
 Step number   1 out of a maximum of  48
 All quantities printed in internal units (Hartrees-Bohrs-Radians)
 Second derivative matrix not updated -- analytic derivatives used.
     Eigenvalues ---     .00576    .01009    .01417    .02512    .05540
     Eigenvalues ---     .05869    .08970    .09881    .10555    .11457
     Eigenvalues ---     .20492    .24575    .31026    .34153    .35261
     Eigenvalues ---     .35436    .36648    .39599    .44545    .45486
     Eigenvalues ---     .521071000.000001000.000001000.000001000.00000
     Eigenvalues --- 1000.000001000.000001000.000001000.000001000.00000
     Eigenvalues --- 1000.000001000.000001000.000001000.000001000.00000
     Eigenvalues --- 1000.000001000.000001000.00000
 Angle between quadratic step and forces=  29.86 degrees.
 Linear search not attempted -- first point.
 Iteration  1 RMS(Cart)=   .00017923 RMS(Int)=   .00000005
 Iteration  2 RMS(Cart)=   .00000006 RMS(Int)=   .00000001
 Variable       Old X    -DE/DX   Delta X   Delta X   Delta X     New X
                                 (Linear)    (Quad)   (Total)
    R1        2.05198    .00004    .00000    .00012    .00012   2.05210
    R2        2.62647    .00020    .00000    .00061    .00061   2.62708
    R3        2.58965   -.00029    .00000   -.00089   -.00089   2.58876
    R4        2.05134    .00003    .00000    .00007    .00007   2.05141
    R5        2.68444    .00000    .00000    .00003    .00003   2.68447
    R6        2.05471    .00006    .00000    .00017    .00017   2.05488
    R7        2.54054   -.00003    .00000   -.00003   -.00003   2.54051
    R8        2.58072   -.00010    .00000   -.00027   -.00027   2.58045
    R9        1.91638    .00005    .00000    .00012    .00012   1.91649
    A1        2.30522   -.00007    .00000   -.00076   -.00076   2.30446
    A2        2.12731    .00003    .00000    .00060    .00060   2.12791
    A3        1.85066    .00003    .00000    .00016    .00016   1.85082
    A4        2.21749    .00003    .00000   -.00008   -.00008   2.21741
    A5        1.82795   -.00009    .00000   -.00035   -.00035   1.82760
    A6        2.23775    .00006    .00000    .00043    .00043   2.23818
    A7        2.24527    .00001    .00000   -.00004   -.00004   2.24523
    A8        1.95948   -.00004    .00000   -.00004   -.00004   1.95944
    A9        2.07844    .00003    .00000    .00008    .00008   2.07851
   A10        1.80898    .00006    .00000    .00008    .00008   1.80905
   A11        1.97772    .00004    .00000    .00015    .00015   1.97787
   A12        2.23374   -.00002    .00000   -.00004   -.00004   2.23370
   A13        2.07173   -.00002    .00000   -.00012   -.00012   2.07161
    D1         .00000    .00000    .00000    .00000    .00000    .00000
    D2        3.14159    .00000    .00000    .00000    .00000   3.14159
    D3        3.14159    .00000    .00000    .00000    .00000   3.14159
    D4         .00000    .00000    .00000    .00000    .00000    .00000
    D5        3.14159    .00000    .00000    .00000    .00000   3.14159
    D6         .00000    .00000    .00000    .00000    .00000    .00000
    D7         .00000    .00000    .00000    .00000    .00000    .00000
    D8        3.14159    .00000    .00000    .00000    .00000   3.14159
    D9        3.14159    .00000    .00000    .00000    .00000   3.14159
   D10         .00000    .00000    .00000    .00000    .00000    .00000
   D11         .00000    .00000    .00000    .00000    .00000    .00000
   D12        3.14159    .00000    .00000    .00000    .00000   3.14159
   D13         .00000    .00000    .00000    .00000    .00000    .00000
   D14        3.14159    .00000    .00000    .00000    .00000   3.14159
   D15         .00000    .00000    .00000    .00000    .00000    .00000
   D16        3.14159    .00000    .00000    .00000    .00000   3.14159
         Item               Value     Threshold  Converged?
 Maximum Force             .000290      .000450     YES
 RMS     Force             .000067      .000300     YES
 Maximum Displacement      .000728      .001800     YES
 RMS     Displacement      .000179      .001200     YES
 Predicted change in Energy=-2.897183D-07
 Optimization completed.
    -- Stationary point found.
                         ----------------------------
                         !   Optimized Parameters   !
                         ! (Angstroms and Degrees)  !
 ------------------------                            -------------------------
 ! Name  Definition              Value          Derivative Info.             !
 -----------------------------------------------------------------------------
 ! R1    R(1,2)                  1.0859         -DE/DX =    0.               !
 ! R2    R(2,4)                  1.3899         -DE/DX =    0.0002           !
 ! R3    R(2,9)                  1.3704         -DE/DX =   -0.0003           !
 ! R4    R(3,4)                  1.0855         -DE/DX =    0.               !
 ! R5    R(4,6)                  1.4205         -DE/DX =    0.               !
 ! R6    R(5,6)                  1.0873         -DE/DX =    0.0001           !
 ! R7    R(6,7)                  1.3444         -DE/DX =    0.               !
 ! R8    R(7,9)                  1.3657         -DE/DX =   -0.0001           !
 ! R9    R(8,9)                  1.0141         -DE/DX =    0.               !
 ! A1    A(1,2,4)              132.0792         -DE/DX =   -0.0001           !
 ! A2    A(1,2,9)              121.8858         -DE/DX =    0.               !
 ! A3    A(4,2,9)              106.035          -DE/DX =    0.               !
 ! A4    A(2,4,3)              127.0528         -DE/DX =    0.               !
 ! A5    A(2,4,6)              104.7336         -DE/DX =   -0.0001           !
 ! A6    A(3,4,6)              128.2136         -DE/DX =    0.0001           !
 ! A7    A(4,6,5)              128.6446         -DE/DX =    0.               !
 ! A8    A(4,6,7)              112.2697         -DE/DX =    0.               !
 ! A9    A(5,6,7)              119.0857         -DE/DX =    0.               !
 ! A10   A(6,7,9)              103.6467         -DE/DX =    0.0001           !
 ! A11   A(2,9,7)              113.315          -DE/DX =    0.               !
 ! A12   A(2,9,8)              127.9836         -DE/DX =    0.               !
 ! A13   A(7,9,8)              118.7013         -DE/DX =    0.               !
 ! D1    D(1,2,4,3)              0.             -DE/DX =    0.               !
 ! D2    D(1,2,4,6)            180.             -DE/DX =    0.               !
 ! D3    D(9,2,4,3)            180.             -DE/DX =    0.               !
 ! D4    D(9,2,4,6)              0.             -DE/DX =    0.               !
 ! D5    D(1,2,9,7)            180.             -DE/DX =    0.               !
 ! D6    D(1,2,9,8)              0.             -DE/DX =    0.               !
 ! D7    D(4,2,9,7)              0.             -DE/DX =    0.               !
 ! D8    D(4,2,9,8)            180.             -DE/DX =    0.               !
 ! D9    D(2,4,6,5)            180.             -DE/DX =    0.               !
 ! D10   D(2,4,6,7)              0.             -DE/DX =    0.               !
 ! D11   D(3,4,6,5)              0.             -DE/DX =    0.               !
 ! D12   D(3,4,6,7)            180.             -DE/DX =    0.               !
 ! D13   D(4,6,7,9)              0.             -DE/DX =    0.               !
 ! D14   D(5,6,7,9)            180.             -DE/DX =    0.               !
 ! D15   D(6,7,9,2)              0.             -DE/DX =    0.               !
 ! D16   D(6,7,9,8)            180.             -DE/DX =    0.               !
 -----------------------------------------------------------------------------
 GradGradGradGradGradGradGradGradGradGradGradGradGradGradGradGradGradGrad

 1\1\ NATIONAL INSTITUTE OF STANDARDS AND TECHNOLOGY-GRAND43\Freq\RBLYP
 \6-311G(d)\C3H4N2\ROOT\12-May-2000\0\\#N GEOM=ALLCHECK GUESS=TCHECK RB
 LYP/6-311G(D) FREQ\\1H pyrazole C3H4N2 casno=288131\\0,1\H,-1.90559633
 24,0.,-1.1870287157\C,-0.9463697707,0.,-0.6781264198\H,0.6787156252,0.
 ,-2.1905301751\C,0.3599004792,0.,-1.1528813051\H,2.2534669373,0.,0.089
 5789781\C,1.1687278142,0.,0.0149123305\N,0.436056678,0.,1.1421180526\H
 ,-1.6067975389,0.,1.3665640773\N,-0.8522480819,0.,0.6890231191\\Versio
 n=IBM-RS6000-G98RevA.7\State=1-A'\HF=-226.1759488\RMSD=4.111e-09\RMSF=
 1.326e-04\Dipole=-0.7953934,0.,-0.3883835\DipoleDeriv=-0.0368336,-0.00
 00776,-0.0648978,-0.0000517,0.1826481,-0.0000372,-0.0534565,-0.0000444
 ,0.0604463,0.1324568,0.0001331,-0.1124482,0.0000706,-0.0961268,-0.0000
 678,-0.2634015,0.0001102,0.2163639,0.0893686,-0.0000239,0.0371903,-0.0
 000353,0.169438,0.0001167,0.0466723,0.0000429,-0.0661663,-0.2096099,-0
 .0000151,0.0062897,0.0000478,-0.2174291,-0.000047,-0.0512482,-0.000062
 ,0.0078444,-0.0770713,0.0001042,-0.0058027,0.0000081,0.1449165,0.00001
 68,-0.0296127,0.0000282,0.0788964,0.2199238,-0.0001844,0.1099031,-0.00
 00009,-0.0821357,-0.0001093,0.1798019,0.000098,0.1748175,0.0145864,0.0
 000531,-0.201792,-0.000076,-0.2136273,0.0001482,-0.0956287,-0.0001084,
 -0.5596791,0.1710358,-0.0000538,-0.0190254,-0.000076,0.3228889,-0.0000
 047,-0.0082479,0.0000028,0.1885042,-0.3038541,0.0000642,0.2505844,0.00
 01135,-0.2105719,-0.0000158,0.27512,-0.0000674,-0.1010241\Polar=52.692
 5033,0.0074764,21.750631,-0.0414823,0.0047817,48.72782\PG=CS [SG(C3H4N
 2)]\NImag=0\\0.28535467,-0.00000006,0.01754845,0.12693586,0.00000005,0
 .11567970,-0.27991631,0.00000100,-0.10912666,0.79419264,0.00000239,-0.
 02001971,0.00000134,-0.00000123,0.10220956,-0.11743754,0.00000104,-0.1
 1293528,0.09373874,-0.00000193,0.58136584,0.00015304,-0.00000005,-0.00
 075608,0.00144821,-0.00000013,0.02481529,0.07218877,-0.00000406,-0.002
 27541,-0.00000257,0.00000264,-0.00271312,0.00000122,-0.00000050,0.0194
 4283,0.00048730,0.00000037,-0.00023401,-0.00262798,0.00000098,0.000096
 39,-0.08753163,0.00000007,0.32606491,-0.00672623,-0.00000028,0.0085131
 0,-0.31075791,-0.00000060,0.06585876,-0.07856087,0.00000013,0.08138349
 ,0.56788083,0.00000196,-0.00032767,0.00000116,-0.00000180,-0.05573263,
 -0.00000099,0.00000034,-0.02185011,-0.00000040,0.00000018,0.10289517,-
 0.01436233,0.00000057,0.01219993,0.08979261,0.00000020,-0.13071035,0.0
 7880890,-0.00000353,-0.31268500,-0.11385156,0.00000170,0.77069842,-0.0
 0023063,-0.00000039,0.00026345,-0.00068061,-0.00000152,-0.00122105,-0.
 00016566,0.00000528,-0.00051709,-0.00501120,-0.00000275,0.00343814,0.3
 4896827,0.00000007,0.00082654,0.00000027,-0.00000037,0.00417941,0.0000
 0045,0.00000005,-0.00165318,0.00000018,0.00000167,0.00003961,0.0000024
 1,-0.00000361,0.02183096,-0.00102070,0.,0.00101336,-0.00261923,-0.0000
 0033,-0.00566963,0.00083569,0.00000054,0.00008754,-0.02072522,-0.00000
 030,0.00647218,0.01959586,-0.00000029,0.05287136,-0.00420805,-0.000001
 61,0.00431452,-0.05508991,0.00000402,-0.00125934,0.01269671,-0.0000060
 4,0.01148882,-0.16537126,0.00000430,-0.09353760,-0.32826303,-0.0000015
 0,-0.03044897,0.81622487,0.00000185,0.00445433,0.00000090,-0.00000019,
 0.01070005,-0.00000129,-0.00000007,-0.00357893,0.00000048,-0.00000223,
 -0.05874033,-0.00000163,0.00000218,-0.02603478,0.00000010,0.00000444,0
 .12441792,0.00080762,0.00000161,-0.00237572,-0.06523396,-0.00000460,0.
 03047940,-0.01433921,0.00000459,-0.00915099,-0.06268361,-0.00000338,-0
 .20939841,-0.02362674,0.00000335,-0.05687048,0.00134655,-0.00000691,0.
 54404526,0.00028250,-0.00000043,0.00035559,-0.05157791,-0.00000042,-0.
 04964043,-0.00206109,0.00000145,-0.00100230,0.02410996,-0.00000072,0.0
 3462361,-0.01384899,0.00000025,0.02675239,-0.15883252,-0.00000080,0.12
 124510,0.42582824,-0.00000117,0.00610416,-0.00000040,-0.00000139,0.015
 18966,0.00000196,0.00000092,0.00635612,-0.00000308,0.00000091,0.018513
 68,0.00000221,-0.00000073,-0.00756270,0.00000008,-0.00000360,-0.066352
 16,0.00000749,-0.00000046,0.09628965,0.00198930,-0.00000275,-0.0052077
 9,-0.01881582,0.00000412,-0.06047908,-0.00548928,-0.00000114,-0.004020
 83,-0.02966136,0.00000208,-0.07429827,-0.00006527,-0.00000626,0.005576
 22,0.08441001,0.00000862,-0.26742394,-0.04241163,-0.00000774,0.5062350
 1,-0.00024158,0.00000015,0.00041739,0.00975902,0.00000010,-0.00379615,
 0.00063934,-0.00000118,-0.00011669,0.00141086,0.00000073,-0.00299133,-
 0.00042878,0.00000010,0.00151485,-0.00762772,0.00000017,-0.00500863,-0
 .02042715,0.00000069,0.02339610,0.27710238,-0.00000013,-0.00126942,0.0
 0000001,0.00000030,-0.00844097,0.00000094,0.00000011,0.00228319,-0.000
 00051,-0.00000062,0.00269497,-0.00000009,0.00000104,0.00221764,0.00000
 023,-0.00000147,0.00391325,0.00000158,0.,-0.01224035,-0.00000126,-0.00
 000012,0.01059071,-0.00073130,-0.00000054,-0.00005536,0.02417798,0.000
 00003,-0.00516755,0.00126118,0.00000129,0.00017341,-0.00209610,-0.0000
 0050,-0.00671379,-0.00046670,-0.00000041,0.00094355,-0.00546133,0.0000
 0006,0.00040067,-0.01024063,-0.00000090,0.01553325,-0.19317405,-0.0000
 0031,0.23782750,0.00553262,0.00000168,-0.03091714,-0.10737726,-0.00000
 262,-0.01105829,-0.00633845,0.00000228,-0.00156390,-0.02697417,-0.0000
 0224,0.01807950,-0.00033935,0.00000335,0.00611532,-0.10952913,-0.00000
 536,0.04749286,-0.20347305,0.00000483,-0.01335204,-0.26018636,0.000000
 89,0.18673095,0.70868512,-0.00000085,-0.00504127,-0.00000076,0.0000010
 3,-0.04537225,-0.00000141,-0.00000067,0.00398862,0.00000190,0.00000085
 ,0.01250731,-0.00000181,0.00000049,0.00615649,-0.00000004,0.00000144,0
 .01122066,-0.00000374,0.00000116,-0.05629806,0.00000433,-0.00000062,0.
 00025098,0.00000127,-0.00000283,0.07258752,0.00333180,-0.00000036,-0.0
 0808481,-0.00928568,0.00000018,-0.29697977,0.00239510,-0.00000047,-0.0
 0033136,0.07326251,0.00000063,-0.05556475,0.00259937,0.00000030,-0.004
 42410,0.02914733,-0.00000034,-0.02970581,-0.07968167,0.00000039,-0.115
 91454,0.17975848,-0.00000059,-0.24294164,-0.20152723,0.00000026,0.7539
 4673\\0.00000794,0.,0.00006658,0.00014930,0.,-0.00049898,0.00000090,0.
 ,0.00003100,-0.00019447,0.,0.00013680,-0.00006005,0.,0.00000185,0.0000
 6547,0.,-0.00008782,0.00011833,0.,0.00008668,0.00003596,0.,-0.00003081
 ,-0.00012338,0.,0.00029471\\\@


 WE STILL HAVE JUDGEMENT HERE,
 THAT WE TEACH BUT BLOODY INSTRUCTIONS,
 WHICH, BEING TAUGHT,
 RETURN TO PLAGUE THE INVENTOR.
           MACBETH ACT I, SCENE VII
 Job cpu time:  0 days  0 hours  0 minutes 10.4 seconds.
 File lengths (MBytes):  RWF=   20 Int=    0 D2E=    0 Chk=    3 Scr=    1
 Normal termination of Gaussian 98.
