 Entering Gaussian System, Link 0=g98
 Initial command:
 /usr/local/apps/g98/g98/l1.exe /wrk/Gau-14928.inp -scrdir=/wrk/
 Entering Link 1 = /usr/local/apps/g98/g98/l1.exe PID=     18790.
  
 Copyright (c) 1988,1990,1992,1993,1995,1998 Gaussian, Inc.
                  All Rights Reserved.
  
 This is part of the Gaussian(R) 98 program.  It is based on
 the Gaussian 94(TM) system (copyright 1995 Gaussian, Inc.),
 the Gaussian 92(TM) system (copyright 1992 Gaussian, Inc.),
 the Gaussian 90(TM) system (copyright 1990 Gaussian, Inc.),
 the Gaussian 88(TM) system (copyright 1988 Gaussian, Inc.),
 the Gaussian 86(TM) system (copyright 1986 Carnegie Mellon
 University), and the Gaussian 82(TM) system (copyright 1983
 Carnegie Mellon University). Gaussian is a federally registered
 trademark of Gaussian, Inc.
  
 This software contains proprietary and confidential information,
 including trade secrets, belonging to Gaussian, Inc.
  
 This software is provided under written license and may be
 used, copied, transmitted, or stored only in accord with that
 written license.
  
 The following legend is applicable only to US Government
 contracts under DFARS:
  
                    RESTRICTED RIGHTS LEGEND
  
 Use, duplication or disclosure by the US Government is subject
 to restrictions as set forth in subparagraph (c)(1)(ii) of the
 Rights in Technical Data and Computer Software clause at DFARS
 252.227-7013.
  
 Gaussian, Inc.
 Carnegie Office Park, Building 6, Pittsburgh, PA 15106 USA
  
 The following legend is applicable only to US Government
 contracts under FAR:
  
                    RESTRICTED RIGHTS LEGEND
  
 Use, reproduction and disclosure by the US Government is subject
 to restrictions as set forth in subparagraph (c) of the
 Commercial Computer Software - Restricted Rights clause at FAR
 52.227-19.
  
 Gaussian, Inc.
 Carnegie Office Park, Building 6, Pittsburgh, PA 15106 USA
  
  
 ---------------------------------------------------------------
 Warning -- This program may not be used in any manner that
 competes with the business of Gaussian, Inc. or will provide
 assistance to any competitor of Gaussian, Inc.  The licensee
 of this program is prohibited from giving any competitor of
 Gaussian, Inc. access to this program.  By using this program,
 the user acknowledges that Gaussian, Inc. is engaged in the
 business of creating and licensing software in the field of
 computational chemistry and represents and warrants to the
 licensee that it is not a competitor of Gaussian, Inc. and that
 it will not use this program in any manner prohibited above.
 ---------------------------------------------------------------
  

 Cite this work as:
 Gaussian 98, Revision A.7,
 M. J. Frisch, G. W. Trucks, H. B. Schlegel, G. E. Scuseria, 
 M. A. Robb, J. R. Cheeseman, V. G. Zakrzewski, J. A. Montgomery, Jr., 
 R. E. Stratmann, J. C. Burant, S. Dapprich, J. M. Millam, 
 A. D. Daniels, K. N. Kudin, M. C. Strain, O. Farkas, J. Tomasi, 
 V. Barone, M. Cossi, R. Cammi, B. Mennucci, C. Pomelli, C. Adamo, 
 S. Clifford, J. Ochterski, G. A. Petersson, P. Y. Ayala, Q. Cui, 
 K. Morokuma, D. K. Malick, A. D. Rabuck, K. Raghavachari, 
 J. B. Foresman, J. Cioslowski, J. V. Ortiz, A. G. Baboul, 
 B. B. Stefanov, G. Liu, A. Liashenko, P. Piskorz, I. Komaromi, 
 R. Gomperts, R. L. Martin, D. J. Fox, T. Keith, M. A. Al-Laham, 
 C. Y. Peng, A. Nanayakkara, C. Gonzalez, M. Challacombe, 
 P. M. W. Gill, B. Johnson, W. Chen, M. W. Wong, J. L. Andres, 
 C. Gonzalez, M. Head-Gordon, E. S. Replogle, and J. A. Pople, 
 Gaussian, Inc., Pittsburgh PA, 1998.

 **********************************************
 Gaussian 98:  IBM-RS6000-G98RevA.7 11-Apr-1999
                  16-May-2000 
 **********************************************
 %mem=24000000
 --------------------
 #BLYP/6-31G opt freq
 --------------------
 1/14=-1,18=20,26=3,38=1/1,3;
 2/9=110,17=6,18=5/2;
 3/5=1,6=6,11=2,25=1,30=1/1,2,3;
 4//1;
 5/5=2,38=4,42=402/2;
 6/7=2,8=2,9=2,10=2,28=1/1;
 7//1,2,3,16;
 1/14=-1,18=20/3(1);
 99//99;
 2/9=110/2;
 3/5=1,6=6,11=2,25=1,30=1/1,2,3;
 4/5=5,16=2/1;
 5/5=2,38=4,42=402/2;
 7//1,2,3,16;
 1/14=-1,18=20/3(-5);
 2/9=110/2;
 6/7=2,8=2,9=2,10=2,19=2,28=1/1;
 99/9=1/99;
 -------------------------------
 1H pyrazole C3H4N2 casno=288131
 -------------------------------
 Symbolic Z-matrix:
 Charge =  0 Multiplicity = 1
 H                    -1.9125    0.       -0.75938 
 C                    -1.08438   0.       -0.21875 
 H                     0.43438   0.       -1.63125 
 C                     0.15      0.       -0.68438 
 H                     1.9125    0.        0.37188 
 C                     0.92188   0.        0.375 
 N                     0.18125   0.        1.41875 
 H                    -1.74063   0.        1.63125 
 N                    -1.00313   0.        1.05313 

 GradGradGradGradGradGradGradGradGradGradGradGradGradGradGradGradGradGrad
 Berny optimization.
 Initialization pass.
                         ----------------------------
                         !    Initial Parameters    !
                         ! (Angstroms and Degrees)  !
 ------------------------                            -------------------------
 ! Name  Definition              Value          Derivative Info.             !
 -----------------------------------------------------------------------------
 ! R1    R(1,2)                  0.989          estimate D2E/DX2             !
 ! R2    R(2,4)                  1.3193         estimate D2E/DX2             !
 ! R3    R(2,9)                  1.2745         estimate D2E/DX2             !
 ! R4    R(3,4)                  0.9887         estimate D2E/DX2             !
 ! R5    R(4,6)                  1.3108         estimate D2E/DX2             !
 ! R6    R(5,6)                  0.9906         estimate D2E/DX2             !
 ! R7    R(6,7)                  1.2798         estimate D2E/DX2             !
 ! R8    R(7,9)                  1.2395         estimate D2E/DX2             !
 ! R9    R(8,9)                  0.9371         estimate D2E/DX2             !
 ! A1    A(1,2,4)              126.195          estimate D2E/DX2             !
 ! A2    A(1,2,9)              126.7929         estimate D2E/DX2             !
 ! A3    A(4,2,9)              107.012          estimate D2E/DX2             !
 ! A4    A(2,4,3)              127.3838         estimate D2E/DX2             !
 ! A5    A(2,4,6)              105.4104         estimate D2E/DX2             !
 ! A6    A(3,4,6)              127.2058         estimate D2E/DX2             !
 ! A7    A(4,6,5)              125.8968         estimate D2E/DX2             !
 ! A8    A(4,6,7)              108.5636         estimate D2E/DX2             !
 ! A9    A(5,6,7)              125.5395         estimate D2E/DX2             !
 ! A10   A(6,7,9)              108.203          estimate D2E/DX2             !
 ! A11   A(2,9,7)              110.811          estimate D2E/DX2             !
 ! A12   A(2,9,8)              124.4376         estimate D2E/DX2             !
 ! A13   A(7,9,8)              124.7513         estimate D2E/DX2             !
 ! D1    D(1,2,4,3)              0.             estimate D2E/DX2             !
 ! D2    D(1,2,4,6)            180.             estimate D2E/DX2             !
 ! D3    D(9,2,4,3)            180.             estimate D2E/DX2             !
 ! D4    D(9,2,4,6)              0.             estimate D2E/DX2             !
 ! D5    D(1,2,9,7)            180.             estimate D2E/DX2             !
 ! D6    D(1,2,9,8)              0.             estimate D2E/DX2             !
 ! D7    D(4,2,9,7)              0.             estimate D2E/DX2             !
 ! D8    D(4,2,9,8)            180.             estimate D2E/DX2             !
 ! D9    D(2,4,6,5)            180.             estimate D2E/DX2             !
 ! D10   D(2,4,6,7)              0.             estimate D2E/DX2             !
 ! D11   D(3,4,6,5)              0.             estimate D2E/DX2             !
 ! D12   D(3,4,6,7)            180.             estimate D2E/DX2             !
 ! D13   D(4,6,7,9)              0.             estimate D2E/DX2             !
 ! D14   D(5,6,7,9)            180.             estimate D2E/DX2             !
 ! D15   D(6,7,9,2)              0.             estimate D2E/DX2             !
 ! D16   D(6,7,9,8)            180.             estimate D2E/DX2             !
 -----------------------------------------------------------------------------
 Trust Radius=3.00D-01 FncErr=1.00D-07 GrdErr=1.00D-06
 Number of steps in this run=  48 maximum allowed number of steps= 100.
 GradGradGradGradGradGradGradGradGradGradGradGradGradGradGradGradGradGrad

                          Input orientation:                          
 ---------------------------------------------------------------------
 Center     Atomic     Atomic              Coordinates (Angstroms)
 Number     Number      Type              X           Y           Z
 ---------------------------------------------------------------------
    1          1             0       -1.912500     .000000    -.759375
    2          6             0       -1.084375     .000000    -.218750
    3          1             0         .434375     .000000   -1.631250
    4          6             0         .150000     .000000    -.684375
    5          1             0        1.912500     .000000     .371875
    6          6             0         .921875     .000000     .375000
    7          7             0         .181250     .000000    1.418750
    8          1             0       -1.740625     .000000    1.631250
    9          7             0       -1.003125     .000000    1.053125
 ---------------------------------------------------------------------
                    Distance matrix (angstroms):
                    1          2          3          4          5
     1  H     .000000
     2  C     .988972    .000000
     3  H    2.503595   2.074068    .000000
     4  C    2.063863   1.319276    .988656    .000000
     5  H    3.988778   3.054521   2.489450   2.054768    .000000
     6  C    3.052947   2.092266   2.064630   1.310750    .990630
     7  N    3.021261   2.069592   3.060486   2.103357   2.023159
     8  H    2.396796   1.962948   3.921037   2.989412   3.864110
     9  N    2.027836   1.274468   3.045041   2.085331   2.994156
                    6          7          8          9
     6  C     .000000
     7  N    1.279820    .000000
     8  H    2.943989   1.933587    .000000
     9  N    2.040950   1.239526    .937088    .000000
 Stoichiometry    C3H4N2
 Framework group  CS[SG(C3H4N2)]
 Deg. of freedom   15
 Full point group                 CS      NOp   2
 Largest Abelian subgroup         CS      NOp   2
 Largest concise Abelian subgroup C1      NOp   1
                         Standard orientation:                         
 ---------------------------------------------------------------------
 Center     Atomic     Atomic              Coordinates (Angstroms)
 Number     Number      Type              X           Y           Z
 ---------------------------------------------------------------------
    1          1             0        1.974407     .585689     .000000
    2          6             0        1.028833     .295936     .000000
    3          1             0        1.140941   -1.775099     .000000
    4          6             0         .595873    -.950271     .000000
    5          1             0       -1.344123   -1.627388     .000000
    6          6             0        -.712074    -.864589     .000000
    7          7             0       -1.039336     .372682     .000000
    8          1             0         .028336    1.984773     .000000
    9          7             0         .000000    1.048113     .000000
 ---------------------------------------------------------------------
 Rotational constants (GHZ):     11.1878032     10.4520048      5.4036973
 Isotopes: H-1,C-12,H-1,C-12,H-1,C-12,N-14,H-1,N-14
 Standard basis: 6-31G (6D, 7F)
 There are    43 symmetry adapted basis functions of A'  symmetry.
 There are    10 symmetry adapted basis functions of A"  symmetry.
 Crude estimate of integral set expansion from redundant integrals=1.000.
 Integral buffers will be    262144 words long.
 Raffenetti 2 integral format.
 Two-electron integral symmetry is turned on.
    53 basis functions      126 primitive gaussians
    18 alpha electrons       18 beta electrons
       nuclear repulsion energy       173.7391879471 Hartrees.
 One-electron integrals computed using PRISM.
 NBasis=    53 RedAO= T  NBF=    43    10
 NBsUse=    53 1.00D-04 NBFU=    43    10
 Projected INDO Guess.
 Initial guess orbital symmetries:
       Occupied  (A') (A') (A') (A') (A') (A') (A') (A') (A') (A')
                 (A') (A") (A') (A') (A') (A") (A') (A")
       Virtual   (A") (A') (A') (A") (A') (A') (A') (A') (A') (A')
                 (A') (A') (A') (A') (A') (A') (A') (A') (A') (A')
                 (A') (A') (A') (A') (A') (A') (A') (A') (A') (A')
                 (A") (A") (A") (A") (A")
 Requested convergence on RMS density matrix=1.00D-08 within  64 cycles.
 Requested convergence on MAX density matrix=1.00D-06.
 Keep R1 and R2 integrals in memory in canonical form, NReq=     2463126.
 Integral accuracy reduced to 1.0D-05 until final iterations.
 Initial convergence to 1.0D-05 achieved.  Increase integral accuracy.
 SCF Done:  E(RB-LYP) =  -225.959449651     A.U. after   16 cycles
             Convg  =     .7000D-08             -V/T =  1.9962
             S**2   =    .0000

 **********************************************************************

            Population analysis using the SCF density.

 **********************************************************************

 Orbital Symmetries:
       Occupied  (A') (A') (A') (A') (A') (A') (A') (A') (A') (A')
                 (A') (A') (A") (A') (A') (A") (A") (A')
       Virtual   (A") (A') (A") (A') (A') (A') (A') (A') (A') (A')
                 (A') (A") (A') (A") (A') (A') (A") (A') (A") (A')
                 (A') (A") (A') (A') (A') (A') (A') (A') (A') (A')
                 (A') (A') (A') (A') (A')
  The electronic state is 1-A'.
 Alpha  occ. eigenvalues --  -14.08940 -14.01297  -9.92025  -9.89970  -9.87606
 Alpha  occ. eigenvalues --   -1.03446   -.76958   -.72756   -.58239   -.55670
 Alpha  occ. eigenvalues --    -.50137   -.42376   -.42071   -.38382   -.34899
 Alpha  occ. eigenvalues --    -.23064   -.20620   -.19806
 Alpha virt. eigenvalues --     .02752    .07092    .07832    .13674    .15659
 Alpha virt. eigenvalues --     .18237    .23617    .25064    .29724    .38067
 Alpha virt. eigenvalues --     .46367    .50045    .55170    .56068    .58284
 Alpha virt. eigenvalues --     .61287    .61460    .67439    .69169    .70246
 Alpha virt. eigenvalues --     .71193    .78090    .82250    .84663    .86739
 Alpha virt. eigenvalues --     .88448    .95610    .96319    .98850   1.10170
 Alpha virt. eigenvalues --    1.22244   1.29070   1.38240   1.58454   1.65749
          Condensed to atoms (all electrons):
              1          2          3          4          5          6
  1  H     .632491    .330837   -.001647   -.026757   -.000465    .005169
  2  C     .330837   5.231849   -.074178    .540371    .006465    .008145
  3  H    -.001647   -.074178    .688132    .336207   -.003697   -.048225
  4  C    -.026757    .540371    .336207   4.845859   -.067798    .552098
  5  H    -.000465    .006465   -.003697   -.067798    .645161    .370774
  6  C     .005169    .008145   -.048225    .552098    .370774   4.815902
  7  N     .011229   -.238806    .016985   -.028418   -.057682    .495743
  8  H    -.000810   -.078083   -.000009    .010551   -.000116    .007833
  9  N    -.056834    .109291    .014682    .006655    .013842   -.232852
              7          8          9
  1  H     .011229   -.000810   -.056834
  2  C    -.238806   -.078083    .109291
  3  H     .016985   -.000009    .014682
  4  C    -.028418    .010551    .006655
  5  H    -.057682   -.000116    .013842
  6  C     .495743    .007833   -.232852
  7  N    6.744233   -.049360    .267564
  8  H    -.049360    .449451    .357759
  9  N     .267564    .357759   6.954001
 Total atomic charges:
              1
  1  H     .106789
  2  C     .164109
  3  H     .071750
  4  C    -.168768
  5  H     .093517
  6  C     .025414
  7  N    -.161488
  8  H     .302784
  9  N    -.434107
 Sum of Mulliken charges=    .00000
 Atomic charges with hydrogens summed into heavy atoms:
              1
  1  H     .000000
  2  C     .270898
  3  H     .000000
  4  C    -.097018
  5  H     .000000
  6  C     .118932
  7  N    -.161488
  8  H     .000000
  9  N    -.131323
 Sum of Mulliken charges=    .00000
 Electronic spatial extent (au):  <R**2>=   258.9218
 Charge=      .0000 electrons
 Dipole moment (Debye):
    X=     2.1706    Y=     1.0098    Z=      .0000  Tot=     2.3940
 Quadrupole moment (Debye-Ang):
   XX=   -30.4367   YY=   -22.3434   ZZ=   -30.0297
   XY=     2.4401   XZ=      .0000   YZ=      .0000
 Octapole moment (Debye-Ang**2):
  XXX=     8.1068  YYY=    11.2789  ZZZ=      .0000  XYY=      .5866
  XXY=    -2.2592  XXZ=      .0000  XZZ=     -.7124  YZZ=     1.8430
  YYZ=      .0000  XYZ=      .0000
 Hexadecapole moment (Debye-Ang**3):
 XXXX=  -152.8818 YYYY=  -123.5227 ZZZZ=   -28.2521 XXXY=     6.2074
 XXXZ=      .0000 YYYX=     -.1946 YYYZ=      .0000 ZZZX=      .0000
 ZZZY=      .0000 XXYY=   -48.0215 XXZZ=   -31.7654 YYZZ=   -31.8667
 XXYZ=      .0000 YYXZ=      .0000 ZZXY=     -.3993
 N-N= 1.737391879471D+02 E-N=-8.749115885298D+02  KE= 2.268245520726D+02
 Symmetry A'   KE= 2.183466545031D+02
 Symmetry A"   KE= 8.477897569458D+00
 ***** Axes restored to original set *****
 -------------------------------------------------------------------
 Center     Atomic                   Forces (Hartrees/Bohr)
 Number     Number              X              Y              Z
 -------------------------------------------------------------------
    1          1           -.078422024     .000000000    -.041361789
    2          6           -.038222370     .000000000    -.076960504
    3          1            .022979753     .000000000    -.085147065
    4          6           -.007494752     .000000000    -.059253646
    5          1            .085861104     .000000000     .010689937
    6          6            .038502606     .000000000     .010274798
    7          7            .108899394     .000000000     .171891230
    8          1           -.061565117     .000000000     .062245259
    9          7           -.070538596     .000000000     .007621780
 -------------------------------------------------------------------
 Cartesian Forces:  Max      .171891230 RMS      .057660744

 GradGradGradGradGradGradGradGradGradGradGradGradGradGradGradGradGradGrad
 Berny optimization.
 Internal  Forces:  Max      .162374298 RMS      .056818587
 Search for a local minimum.
 Step number   1 out of a maximum of  48
 All quantities printed in internal units (Hartrees-Bohrs-Radians)
 Second derivative matrix not updated -- first step.
     Eigenvalues ---     .03204    .03245    .03263    .03273    .03342
     Eigenvalues ---     .03375    .16000    .16000    .16000    .16000
     Eigenvalues ---     .22000    .22938    .49374    .49681    .49740
     Eigenvalues ---     .56490    .56686    .60708    .68179    .73042
     Eigenvalues ---     .827791000.000001000.000001000.000001000.00000
     Eigenvalues --- 1000.000001000.000001000.000001000.000001000.00000
     Eigenvalues --- 1000.000001000.000001000.000001000.000001000.00000
     Eigenvalues --- 1000.000001000.000001000.00000
 RFO step:  Lambda=-1.52521475D-01.
 Linear search not attempted -- first point.
 Maximum step size (    .300) exceeded in Quadratic search.
    -- Step size scaled by    .673
 Iteration  1 RMS(Cart)=   .06389854 RMS(Int)=   .00057275
 Iteration  2 RMS(Cart)=   .00068877 RMS(Int)=   .00001895
 Iteration  3 RMS(Cart)=   .00000032 RMS(Int)=   .00001895
 Variable       Old X    -DE/DX   Delta X   Delta X   Delta X     New X
                                 (Linear)    (Quad)   (Total)
    R1        1.86889    .08828    .00000    .09152    .09152   1.96041
    R2        2.49307    .10217    .00000    .08613    .08610   2.57917
    R3        2.40839    .14155    .00000    .10794    .10793   2.51633
    R4        1.86829    .08816    .00000    .09132    .09132   1.95961
    R5        2.47696    .14872    .00000    .12190    .12189   2.59885
    R6        1.87202    .08583    .00000    .08941    .08941   1.96142
    R7        2.41851    .10497    .00000    .08029    .08031   2.49882
    R8        2.34237    .16237    .00000    .10992    .10995   2.45231
    R9        1.77084    .08685    .00000    .07697    .07697   1.84782
    A1        2.20252    .01270    .00000    .02659    .02661   2.22913
    A2        2.21295   -.00270    .00000   -.00658   -.00656   2.20640
    A3        1.86771   -.01000    .00000   -.02001   -.02006   1.84766
    A4        2.22327   -.00602    .00000   -.00476   -.00474   2.21853
    A5        1.83976    .00740    .00000   -.00049   -.00053   1.83923
    A6        2.22016   -.00138    .00000    .00525    .00527   2.22543
    A7        2.19731    .00152    .00000    .01022    .01021   2.20753
    A8        1.89479    .01748    .00000    .02374    .02375   1.91855
    A9        2.19108   -.01899    .00000   -.03396   -.03397   2.15711
   A10        1.88850   -.02763    .00000   -.03657   -.03650   1.85200
   A11        1.93402    .01275    .00000    .03332    .03333   1.96735
   A12        2.17185    .00337    .00000    .00434    .00433   2.17618
   A13        2.17732   -.01612    .00000   -.03766   -.03767   2.13965
    D1         .00000    .00000    .00000    .00000    .00000    .00000
    D2        3.14159    .00000    .00000    .00000    .00000   3.14159
    D3        3.14159    .00000    .00000    .00000    .00000   3.14159
    D4         .00000    .00000    .00000    .00000    .00000    .00000
    D5        3.14159    .00000    .00000    .00000    .00000   3.14159
    D6         .00000    .00000    .00000    .00000    .00000    .00000
    D7         .00000    .00000    .00000    .00000    .00000    .00000
    D8        3.14159    .00000    .00000    .00000    .00000   3.14159
    D9        3.14159    .00000    .00000    .00000    .00000   3.14159
   D10         .00000    .00000    .00000    .00000    .00000    .00000
   D11         .00000    .00000    .00000    .00000    .00000    .00000
   D12        3.14159    .00000    .00000    .00000    .00000   3.14159
   D13         .00000    .00000    .00000    .00000    .00000    .00000
   D14        3.14159    .00000    .00000    .00000    .00000   3.14159
   D15         .00000    .00000    .00000    .00000    .00000    .00000
   D16        3.14159    .00000    .00000    .00000    .00000   3.14159
         Item               Value     Threshold  Converged?
 Maximum Force             .162374      .000450     NO 
 RMS     Force             .056819      .000300     NO 
 Maximum Displacement      .169809      .001800     NO 
 RMS     Displacement      .063847      .001200     NO 
 Predicted change in Energy=-2.769934D-02
 GradGradGradGradGradGradGradGradGradGradGradGradGradGradGradGradGradGrad

                          Input orientation:                          
 ---------------------------------------------------------------------
 Center     Atomic     Atomic              Coordinates (Angstroms)
 Number     Number      Type              X           Y           Z
 ---------------------------------------------------------------------
    1          1             0       -1.804182     .000000   -1.183573
    2          6             0        -.924474     .000000    -.633734
    3          1             0         .656196     .000000   -2.099178
    4          6             0         .355809     .000000   -1.106659
    5          1             0        2.195255     .000000     .025817
    6          6             0        1.157422     .000000     .010811
    7          7             0         .409941     .000000    1.101591
    8          1             0       -1.580933     .000000    1.310552
    9          7             0        -.822064     .000000     .693905
 ---------------------------------------------------------------------
                    Distance matrix (angstroms):
                    1          2          3          4          5
     1  H     .000000
     2  C    1.037405    .000000
     3  H    2.625223   2.155468    .000000
     4  C    2.161360   1.364838   1.036980    .000000
     5  H    4.178291   3.188685   2.623796   2.160107    .000000
     6  C    3.193376   2.179387   2.168705   1.375253   1.037941
     7  N    3.181872   2.189067   3.210228   2.208913   2.084379
     8  H    2.504096   2.052118   4.078113   3.097398   3.988751
     9  N    2.118839   1.331583   3.160153   2.151607   3.090397
                    6          7          8          9
     6  C     .000000
     7  N    1.322320    .000000
     8  H    3.031157   2.001810    .000000
     9  N    2.094035   1.297707    .977822    .000000
 Stoichiometry    C3H4N2
 Framework group  CS[SG(C3H4N2)]
 Deg. of freedom   15
 Full point group                 CS      NOp   2
 Largest Abelian subgroup         CS      NOp   2
 Largest concise Abelian subgroup C1      NOp   1
                         Standard orientation:                         
 ---------------------------------------------------------------------
 Center     Atomic     Atomic              Coordinates (Angstroms)
 Number     Number      Type              X           Y           Z
 ---------------------------------------------------------------------
    1          1             0        2.071241     .627252     .000000
    2          6             0        1.085803     .303029     .000000
    3          1             0        1.200563   -1.849382     .000000
    4          6             0         .630032    -.983460     .000000
    5          1             0       -1.417258   -1.672421     .000000
    6          6             0        -.741654    -.884461     .000000
    7          7             0       -1.101618     .387921     .000000
    8          1             0         .011688    2.051590     .000000
    9          7             0         .000000    1.073838     .000000
 ---------------------------------------------------------------------
 Rotational constants (GHZ):     10.0579435      9.8605823      4.9791426
 Isotopes: H-1,C-12,H-1,C-12,H-1,C-12,N-14,H-1,N-14
 Standard basis: 6-31G (6D, 7F)
 There are    43 symmetry adapted basis functions of A'  symmetry.
 There are    10 symmetry adapted basis functions of A"  symmetry.
 Crude estimate of integral set expansion from redundant integrals=1.000.
 Integral buffers will be    262144 words long.
 Raffenetti 2 integral format.
 Two-electron integral symmetry is turned on.
    53 basis functions      126 primitive gaussians
    18 alpha electrons       18 beta electrons
       nuclear repulsion energy       166.7132334059 Hartrees.
 One-electron integrals computed using PRISM.
 NBasis=    53 RedAO= T  NBF=    43    10
 NBsUse=    53 1.00D-04 NBFU=    43    10
 Initial guess read from the read-write file:
 Initial guess orbital symmetries:
       Occupied  (A') (A') (A') (A') (A') (A') (A') (A') (A') (A')
                 (A') (A') (A") (A') (A') (A") (A") (A')
       Virtual   (A") (A') (A") (A') (A') (A') (A') (A') (A') (A')
                 (A') (A") (A') (A") (A') (A') (A") (A') (A") (A')
                 (A') (A") (A') (A') (A') (A') (A') (A') (A') (A')
                 (A') (A') (A') (A') (A')
 Requested convergence on RMS density matrix=1.00D-08 within  64 cycles.
 Requested convergence on MAX density matrix=1.00D-06.
 Keep R1 and R2 integrals in memory in canonical form, NReq=     2463126.
 Integral accuracy reduced to 1.0D-05 until final iterations.
 Initial convergence to 1.0D-05 achieved.  Increase integral accuracy.
 SCF Done:  E(RB-LYP) =  -226.031163206     A.U. after   15 cycles
             Convg  =     .2598D-08             -V/T =  2.0015
             S**2   =    .0000
 ***** Axes restored to original set *****
 -------------------------------------------------------------------
 Center     Atomic                   Forces (Hartrees/Bohr)
 Number     Number              X              Y              Z
 -------------------------------------------------------------------
    1          1           -.035511442     .000000000    -.014143534
    2          6           -.006015260     .000000000    -.034619406
    3          1            .010226465     .000000000    -.036746622
    4          6           -.002653021     .000000000    -.018126879
    5          1            .036869400     .000000000     .007575046
    6          6            .011636893     .000000000    -.006392524
    7          7            .056435824     .000000000     .078595055
    8          1           -.022911264     .000000000     .028464365
    9          7           -.048077596     .000000000    -.004605502
 -------------------------------------------------------------------
 Cartesian Forces:  Max      .078595055 RMS      .026603619

 GradGradGradGradGradGradGradGradGradGradGradGradGradGradGradGradGradGrad
 Berny optimization.
 Internal  Forces:  Max      .078445586 RMS      .024390530
 Search for a local minimum.
 Step number   2 out of a maximum of  48
 All quantities printed in internal units (Hartrees-Bohrs-Radians)
 Update second derivatives using information from points  1  2
 Trust test= 2.59D+00 RLast= 3.00D-01 DXMaxT set to 4.24D-01
     Eigenvalues ---     .03204    .03246    .03261    .03273    .03342
     Eigenvalues ---     .03375    .15930    .16000    .16000    .16011
     Eigenvalues ---     .22035    .23290    .49460    .49711    .50702
     Eigenvalues ---     .57244    .58443    .61655    .68340    .74130
     Eigenvalues ---     .806661000.000001000.000001000.000001000.00000
     Eigenvalues --- 1000.000001000.000001000.000001000.000001000.00000
     Eigenvalues --- 1000.000001000.000001000.000001000.000001000.00000
     Eigenvalues --- 1000.000001000.000001000.00000
 RFO step:  Lambda=-3.53663169D-03.
 Quartic linear search produced a step of  1.03132.
 Iteration  1 RMS(Cart)=   .07182125 RMS(Int)=   .00178333
 Iteration  2 RMS(Cart)=   .00222743 RMS(Int)=   .00014922
 Iteration  3 RMS(Cart)=   .00000444 RMS(Int)=   .00014917
 Iteration  4 RMS(Cart)=   .00000000 RMS(Int)=   .00014917
 Variable       Old X    -DE/DX   Delta X   Delta X   Delta X     New X
                                 (Linear)    (Quad)   (Total)
    R1        1.96041    .03761    .09439    .00684    .10123   2.06164
    R2        2.57917    .04128    .08880   -.00893    .07961   2.65878
    R3        2.51633    .05704    .11131   -.01038    .10086   2.61719
    R4        1.95961    .03813    .09418    .00912    .10330   2.06291
    R5        2.59885    .05719    .12571   -.02189    .10376   2.70262
    R6        1.96142    .03698    .09221    .00852    .10073   2.06215
    R7        2.49882    .04594    .08283    .00218    .08522   2.58404
    R8        2.45231    .07845    .11339    .01797    .13156   2.58387
    R9        1.84782    .03573    .07939   -.00274    .07664   1.92446
    A1        2.22913    .00737    .02745    .04772    .07534   2.30448
    A2        2.20640   -.00602   -.00676   -.06054   -.06712   2.13927
    A3        1.84766   -.00135   -.02068    .01283   -.00822   1.83944
    A4        2.21853   -.00306   -.00489    .00104   -.00367   2.21486
    A5        1.83923    .00444   -.00055   -.00547   -.00636   1.83286
    A6        2.22543   -.00138    .00544    .00442    .01003   2.23547
    A7        2.20753    .00266    .01053    .04064    .05112   2.25865
    A8        1.91855    .00849    .02450    .01290    .03749   1.95604
    A9        2.15711   -.01115   -.03503   -.05354   -.08862   2.06849
   A10        1.85200   -.01307   -.03764   -.01091   -.04802   1.80398
   A11        1.96735    .00149    .03438   -.00934    .02510   1.99245
   A12        2.17618    .00632    .00447    .05564    .06008   2.23626
   A13        2.13965   -.00781   -.03885   -.04630   -.08518   2.05447
    D1         .00000    .00000    .00000    .00000    .00000    .00000
    D2        3.14159    .00000    .00000    .00000    .00000   3.14159
    D3        3.14159    .00000    .00000    .00000    .00000   3.14159
    D4         .00000    .00000    .00000    .00000    .00000    .00000
    D5        3.14159    .00000    .00000    .00000    .00000   3.14159
    D6         .00000    .00000    .00000    .00000    .00000    .00000
    D7         .00000    .00000    .00000    .00000    .00000    .00000
    D8        3.14159    .00000    .00000    .00000    .00000   3.14159
    D9        3.14159    .00000    .00000    .00000    .00000   3.14159
   D10         .00000    .00000    .00000    .00000    .00000    .00000
   D11         .00000    .00000    .00000    .00000    .00000    .00000
   D12        3.14159    .00000    .00000    .00000    .00000   3.14159
   D13         .00000    .00000    .00000    .00000    .00000    .00000
   D14        3.14159    .00000    .00000    .00000    .00000   3.14159
   D15         .00000    .00000    .00000    .00000    .00000    .00000
   D16        3.14159    .00000    .00000    .00000    .00000   3.14159
         Item               Value     Threshold  Converged?
 Maximum Force             .078446      .000450     NO 
 RMS     Force             .024391      .000300     NO 
 Maximum Displacement      .211291      .001800     NO 
 RMS     Displacement      .071735      .001200     NO 
 Predicted change in Energy=-3.308481D-02
 GradGradGradGradGradGradGradGradGradGradGradGradGradGradGradGradGradGrad

                          Input orientation:                          
 ---------------------------------------------------------------------
 Center     Atomic     Atomic              Coordinates (Angstroms)
 Number     Number      Type              X           Y           Z
 ---------------------------------------------------------------------
    1          1             0       -1.919160     .000000   -1.204534
    2          6             0        -.957371     .000000    -.689573
    3          1             0         .687496     .000000   -2.209474
    4          6             0         .366433     .000000   -1.166112
    5          1             0        2.270647     .000000     .095558
    6          6             0        1.182914     .000000     .008079
    7          7             0         .435885     .000000    1.153407
    8          1             0       -1.601399     .000000    1.379742
    9          7             0        -.850980     .000000     .691290
 ---------------------------------------------------------------------
                    Distance matrix (angstroms):
                    1          2          3          4          5
     1  H     .000000
     2  C    1.090973    .000000
     3  H    2.793664   2.239573    .000000
     4  C    2.285916   1.406964   1.091644    .000000
     5  H    4.386881   3.322128   2.796345   2.284260    .000000
     6  C    3.330660   2.251120   2.272220   1.430163   1.091245
     7  N    3.332585   2.310354   3.372281   2.320559   2.117876
     8  H    2.603739   2.167219   4.256938   3.217723   4.079445
     9  N    2.176042   1.384955   3.283495   2.220818   3.177963
                    6          7          8          9
     6  C     .000000
     7  N    1.367417    .000000
     8  H    3.103846   2.049818    .000000
     9  N    2.145577   1.367323   1.018379    .000000
 Stoichiometry    C3H4N2
 Framework group  CS[SG(C3H4N2)]
 Deg. of freedom   15
 Full point group                 CS      NOp   2
 Largest Abelian subgroup         CS      NOp   2
 Largest concise Abelian subgroup C1      NOp   1
                         Standard orientation:                         
 ---------------------------------------------------------------------
 Center     Atomic     Atomic              Coordinates (Angstroms)
 Number     Number      Type              X           Y           Z
 ---------------------------------------------------------------------
    1          1             0        2.144684     .732050     .000000
    2          6             0        1.138199     .311086     .000000
    3          1             0        1.278881   -1.924064     .000000
    4          6             0         .672260   -1.016487     .000000
    5          1             0       -1.508240   -1.697122     .000000
    6          6             0        -.753832    -.908652     .000000
    7          7             0       -1.170679     .393680     .000000
    8          1             0        -.060338    2.116729     .000000
    9          7             0         .000000    1.100138     .000000
 ---------------------------------------------------------------------
 Rotational constants (GHZ):      9.3559367      9.0635268      4.6037054
 Isotopes: H-1,C-12,H-1,C-12,H-1,C-12,N-14,H-1,N-14
 Standard basis: 6-31G (6D, 7F)
 There are    43 symmetry adapted basis functions of A'  symmetry.
 There are    10 symmetry adapted basis functions of A"  symmetry.
 Crude estimate of integral set expansion from redundant integrals=1.000.
 Integral buffers will be    262144 words long.
 Raffenetti 2 integral format.
 Two-electron integral symmetry is turned on.
    53 basis functions      126 primitive gaussians
    18 alpha electrons       18 beta electrons
       nuclear repulsion energy       160.2145681792 Hartrees.
 One-electron integrals computed using PRISM.
 NBasis=    53 RedAO= T  NBF=    43    10
 NBsUse=    53 1.00D-04 NBFU=    43    10
 Initial guess read from the read-write file:
 Initial guess orbital symmetries:
       Occupied  (A') (A') (A') (A') (A') (A') (A') (A') (A') (A')
                 (A') (A') (A") (A') (A') (A") (A') (A")
       Virtual   (A") (A") (A') (A') (A') (A') (A') (A') (A') (A')
                 (A') (A") (A') (A") (A') (A') (A") (A') (A') (A')
                 (A") (A") (A') (A') (A') (A') (A') (A') (A') (A')
                 (A') (A') (A') (A') (A')
 Requested convergence on RMS density matrix=1.00D-08 within  64 cycles.
 Requested convergence on MAX density matrix=1.00D-06.
 Keep R1 and R2 integrals in memory in canonical form, NReq=     2463126.
 Integral accuracy reduced to 1.0D-05 until final iterations.
 Initial convergence to 1.0D-05 achieved.  Increase integral accuracy.
 SCF Done:  E(RB-LYP) =  -226.053197050     A.U. after   15 cycles
             Convg  =     .8915D-08             -V/T =  2.0058
             S**2   =    .0000
 ***** Axes restored to original set *****
 -------------------------------------------------------------------
 Center     Atomic                   Forces (Hartrees/Bohr)
 Number     Number              X              Y              Z
 -------------------------------------------------------------------
    1          1            .003737972     .000000000     .002101546
    2          6            .004049023     .000000000    -.002590295
    3          1           -.001009561     .000000000     .004529938
    4          6           -.003549048     .000000000     .001142914
    5          1           -.003850254     .000000000    -.001879458
    6          6            .006956366     .000000000    -.000377208
    7          7            .016692062     .000000000     .000282413
    8          1            .001231619     .000000000    -.003784966
    9          7           -.024258179     .000000000     .000575115
 -------------------------------------------------------------------
 Cartesian Forces:  Max      .024258179 RMS      .006167905

 GradGradGradGradGradGradGradGradGradGradGradGradGradGradGradGradGradGrad
 Berny optimization.
 Internal  Forces:  Max      .017739078 RMS      .003732172
 Search for a local minimum.
 Step number   3 out of a maximum of  48
 All quantities printed in internal units (Hartrees-Bohrs-Radians)
 Update second derivatives using information from points  2  3
 Trust test= 6.66D-01 RLast= 3.53D-01 DXMaxT set to 4.24D-01
     Eigenvalues ---     .03203    .03247    .03251    .03273    .03342
     Eigenvalues ---     .03372    .15508    .16000    .16003    .16025
     Eigenvalues ---     .22060    .23306    .45822    .49496    .49712
     Eigenvalues ---     .57622    .58794    .59053    .64020    .68769
     Eigenvalues ---     .808801000.000001000.000001000.000001000.00000
     Eigenvalues --- 1000.000001000.000001000.000001000.000001000.00000
     Eigenvalues --- 1000.000001000.000001000.000001000.000001000.00000
     Eigenvalues --- 1000.000001000.000001000.00000
 RFO step:  Lambda=-9.51399717D-04.
 Quartic linear search produced a step of  -.02229.
 Iteration  1 RMS(Cart)=   .01042184 RMS(Int)=   .00005471
 Iteration  2 RMS(Cart)=   .00005839 RMS(Int)=   .00001615
 Iteration  3 RMS(Cart)=   .00000000 RMS(Int)=   .00001615
 Variable       Old X    -DE/DX   Delta X   Delta X   Delta X     New X
                                 (Linear)    (Quad)   (Total)
    R1        2.06164   -.00429   -.00226   -.00478   -.00704   2.05461
    R2        2.65878   -.00359   -.00177   -.00445   -.00621   2.65257
    R3        2.61719   -.00200   -.00225    .00219   -.00003   2.61715
    R4        2.06291   -.00463   -.00230   -.00540   -.00770   2.05520
    R5        2.70262   -.00204   -.00231   -.00073   -.00307   2.69955
    R6        2.06215   -.00399   -.00224   -.00429   -.00654   2.05562
    R7        2.58404   -.00020   -.00190    .00343    .00150   2.58555
    R8        2.58387    .01774   -.00293    .02628    .02335   2.60722
    R9        1.92446   -.00347   -.00171   -.00265   -.00436   1.92010
    A1        2.30448   -.00133   -.00168   -.00242   -.00412   2.30036
    A2        2.13927   -.00151    .00150   -.00612   -.00465   2.13463
    A3        1.83944    .00284    .00018    .00854    .00876   1.84820
    A4        2.21486   -.00200    .00008   -.00276   -.00268   2.21218
    A5        1.83286    .00476    .00014    .00971    .00985   1.84271
    A6        2.23547   -.00276   -.00022   -.00695   -.00717   2.22830
    A7        2.25865   -.00064   -.00114   -.00284   -.00396   2.25469
    A8        1.95604   -.00195   -.00084   -.01114   -.01201   1.94403
    A9        2.06849    .00259    .00197    .01398    .01598   2.08447
   A10        1.80398    .00072    .00107    .01212    .01316   1.81714
   A11        1.99245   -.00637   -.00056   -.01923   -.01976   1.97270
   A12        2.23626    .00131   -.00134   -.00041   -.00176   2.23450
   A13        2.05447    .00507    .00190    .01963    .02152   2.07599
    D1         .00000    .00000    .00000    .00000    .00000    .00000
    D2        3.14159    .00000    .00000    .00000    .00000   3.14159
    D3        3.14159    .00000    .00000    .00000    .00000   3.14159
    D4         .00000    .00000    .00000    .00000    .00000    .00000
    D5        3.14159    .00000    .00000    .00000    .00000   3.14159
    D6         .00000    .00000    .00000    .00000    .00000    .00000
    D7         .00000    .00000    .00000    .00000    .00000    .00000
    D8        3.14159    .00000    .00000    .00000    .00000   3.14159
    D9        3.14159    .00000    .00000    .00000    .00000   3.14159
   D10         .00000    .00000    .00000    .00000    .00000    .00000
   D11         .00000    .00000    .00000    .00000    .00000    .00000
   D12        3.14159    .00000    .00000    .00000    .00000   3.14159
   D13         .00000    .00000    .00000    .00000    .00000    .00000
   D14        3.14159    .00000    .00000    .00000    .00000   3.14159
   D15         .00000    .00000    .00000    .00000    .00000    .00000
   D16        3.14159    .00000    .00000    .00000    .00000   3.14159
         Item               Value     Threshold  Converged?
 Maximum Force             .017739      .000450     NO 
 RMS     Force             .003732      .000300     NO 
 Maximum Displacement      .033116      .001800     NO 
 RMS     Displacement      .010416      .001200     NO 
 Predicted change in Energy=-4.866796D-04
 GradGradGradGradGradGradGradGradGradGradGradGradGradGradGradGradGradGrad

                          Input orientation:                          
 ---------------------------------------------------------------------
 Center     Atomic     Atomic              Coordinates (Angstroms)
 Number     Number      Type              X           Y           Z
 ---------------------------------------------------------------------
    1          1             0       -1.913020     .000000   -1.200704
    2          6             0        -.957236     .000000    -.682447
    3          1             0         .682315     .000000   -2.196289
    4          6             0         .364027     .000000   -1.156339
    5          1             0        2.275039     .000000     .082874
    6          6             0        1.189738     .000000     .009392
    7          7             0         .438463     .000000    1.152891
    8          1             0       -1.621250     .000000    1.377485
    9          7             0        -.864555     .000000     .699386
 ---------------------------------------------------------------------
                    Distance matrix (angstroms):
                    1          2          3          4          5
     1  H     .000000
     2  C    1.087250    .000000
     3  H    2.779740   2.231557    .000000
     4  C    2.277479   1.403677   1.087567    .000000
     5  H    4.380343   3.321644   2.780531   2.277634    .000000
     6  C    3.330381   2.255690   2.263295   1.428540   1.087785
     7  N    3.326993   2.305741   3.358046   2.310430   2.125547
     8  H    2.594646   2.164309   4.251855   3.218943   4.105738
     9  N    2.170166   1.384938   3.282947   2.225563   3.199553
                    6          7          8          9
     6  C     .000000
     7  N    1.368213    .000000
     8  H    3.126233   2.071922    .000000
     9  N    2.167075   1.379682   1.016074    .000000
 Stoichiometry    C3H4N2
 Framework group  CS[SG(C3H4N2)]
 Deg. of freedom   15
 Full point group                 CS      NOp   2
 Largest Abelian subgroup         CS      NOp   2
 Largest concise Abelian subgroup C1      NOp   1
                         Standard orientation:                         
 ---------------------------------------------------------------------
 Center     Atomic     Atomic              Coordinates (Angstroms)
 Number     Number      Type              X           Y           Z
 ---------------------------------------------------------------------
    1          1             0        2.137164     .734495     .000000
    2          6             0        1.133676     .316016     .000000
    3          1             0        1.282441   -1.910576     .000000
    4          6             0         .672898   -1.009877     .000000
    5          1             0       -1.491491   -1.719129     .000000
    6          6             0        -.752849    -.920577     .000000
    7          7             0       -1.171117     .382135     .000000
    8          1             0        -.052643    2.126232     .000000
    9          7             0         .000000    1.111523     .000000
 ---------------------------------------------------------------------
 Rotational constants (GHZ):      9.2491089      9.1261977      4.5936211
 Isotopes: H-1,C-12,H-1,C-12,H-1,C-12,N-14,H-1,N-14
 Standard basis: 6-31G (6D, 7F)
 There are    43 symmetry adapted basis functions of A'  symmetry.
 There are    10 symmetry adapted basis functions of A"  symmetry.
 Crude estimate of integral set expansion from redundant integrals=1.000.
 Integral buffers will be    262144 words long.
 Raffenetti 2 integral format.
 Two-electron integral symmetry is turned on.
    53 basis functions      126 primitive gaussians
    18 alpha electrons       18 beta electrons
       nuclear repulsion energy       160.0350314674 Hartrees.
 One-electron integrals computed using PRISM.
 NBasis=    53 RedAO= T  NBF=    43    10
 NBsUse=    53 1.00D-04 NBFU=    43    10
 Initial guess read from the read-write file:
 Initial guess orbital symmetries:
       Occupied  (A') (A') (A') (A') (A') (A') (A') (A') (A') (A')
                 (A') (A') (A') (A") (A') (A') (A") (A")
       Virtual   (A") (A") (A') (A') (A') (A') (A') (A') (A') (A')
                 (A') (A") (A') (A') (A") (A') (A") (A') (A') (A')
                 (A") (A") (A') (A') (A') (A') (A') (A') (A') (A')
                 (A') (A') (A') (A') (A')
 Requested convergence on RMS density matrix=1.00D-08 within  64 cycles.
 Requested convergence on MAX density matrix=1.00D-06.
 Keep R1 and R2 integrals in memory in canonical form, NReq=     2463126.
 Integral accuracy reduced to 1.0D-05 until final iterations.
 Initial convergence to 1.0D-05 achieved.  Increase integral accuracy.
 SCF Done:  E(RB-LYP) =  -226.053745313     A.U. after   13 cycles
             Convg  =     .1694D-08             -V/T =  2.0058
             S**2   =    .0000
 ***** Axes restored to original set *****
 -------------------------------------------------------------------
 Center     Atomic                   Forces (Hartrees/Bohr)
 Number     Number              X              Y              Z
 -------------------------------------------------------------------
    1          1            .001492148     .000000000     .000484048
    2          6            .002678000     .000000000    -.001452186
    3          1           -.000536452     .000000000     .001529340
    4          6           -.002626067     .000000000    -.000443747
    5          1           -.001966792     .000000000    -.000131304
    6          6           -.003742748     .000000000     .000776163
    7          7            .012043546     .000000000     .005407734
    8          1            .001848064     .000000000    -.001007889
    9          7           -.009189699     .000000000    -.005162159
 -------------------------------------------------------------------
 Cartesian Forces:  Max      .012043546 RMS      .003494850

 GradGradGradGradGradGradGradGradGradGradGradGradGradGradGradGradGradGrad
 Berny optimization.
 Internal  Forces:  Max      .008867990 RMS      .002075812
 Search for a local minimum.
 Step number   4 out of a maximum of  48
 All quantities printed in internal units (Hartrees-Bohrs-Radians)
 Update second derivatives using information from points  2  3  4
 Trust test= 1.13D+00 RLast= 4.98D-02 DXMaxT set to 4.24D-01
     Eigenvalues ---     .03203    .03247    .03251    .03273    .03342
     Eigenvalues ---     .03372    .15287    .15939    .16002    .16119
     Eigenvalues ---     .21838    .34835    .37060    .45940    .49555
     Eigenvalues ---     .49716    .57901    .60039    .61587    .71232
     Eigenvalues ---     .732761000.000001000.000001000.000001000.00000
     Eigenvalues --- 1000.000001000.000001000.000001000.000001000.00000
     Eigenvalues --- 1000.000001000.000001000.000001000.000001000.00000
     Eigenvalues --- 1000.000001000.000001000.00000
 RFO step:  Lambda=-4.11305746D-04.
 Quartic linear search produced a step of   .16430.
 Iteration  1 RMS(Cart)=   .00615385 RMS(Int)=   .00002632
 Iteration  2 RMS(Cart)=   .00003293 RMS(Int)=   .00000751
 Iteration  3 RMS(Cart)=   .00000000 RMS(Int)=   .00000751
 Variable       Old X    -DE/DX   Delta X   Delta X   Delta X     New X
                                 (Linear)    (Quad)   (Total)
    R1        2.05461   -.00154   -.00116   -.00414   -.00530   2.04931
    R2        2.65257   -.00476   -.00102   -.01059   -.01162   2.64094
    R3        2.61715   -.00088   -.00001    .00059    .00057   2.61772
    R4        2.05520   -.00162   -.00127   -.00448   -.00575   2.04946
    R5        2.69955   -.00007   -.00050   -.00068   -.00118   2.69837
    R6        2.05562   -.00197   -.00107   -.00506   -.00614   2.04948
    R7        2.58555   -.00235    .00025   -.00201   -.00175   2.58380
    R8        2.60722    .00887    .00384    .02101    .02485   2.63207
    R9        1.92010   -.00205   -.00072   -.00407   -.00479   1.91532
    A1        2.30036   -.00036   -.00068   -.00167   -.00234   2.29802
    A2        2.13463    .00023   -.00076    .00079    .00004   2.13466
    A3        1.84820    .00013    .00144    .00088    .00230   1.85050
    A4        2.21218   -.00045   -.00044    .00020   -.00024   2.21194
    A5        1.84271    .00076    .00162   -.00040    .00122   1.84393
    A6        2.22830   -.00031   -.00118    .00020   -.00098   2.22732
    A7        2.25469   -.00166   -.00065   -.00770   -.00836   2.24633
    A8        1.94403    .00331   -.00197    .01158    .00962   1.95365
    A9        2.08447   -.00165    .00262   -.00388   -.00127   2.08321
   A10        1.81714   -.00493    .00216   -.01532   -.01314   1.80401
   A11        1.97270    .00073   -.00325    .00326    .00000   1.97270
   A12        2.23450    .00010   -.00029   -.00055   -.00084   2.23366
   A13        2.07599   -.00083    .00354   -.00271    .00083   2.07682
    D1         .00000    .00000    .00000    .00000    .00000    .00000
    D2        3.14159    .00000    .00000    .00000    .00000   3.14159
    D3        3.14159    .00000    .00000    .00000    .00000   3.14159
    D4         .00000    .00000    .00000    .00000    .00000    .00000
    D5        3.14159    .00000    .00000    .00000    .00000   3.14159
    D6         .00000    .00000    .00000    .00000    .00000    .00000
    D7         .00000    .00000    .00000    .00000    .00000    .00000
    D8        3.14159    .00000    .00000    .00000    .00000   3.14159
    D9        3.14159    .00000    .00000    .00000    .00000   3.14159
   D10         .00000    .00000    .00000    .00000    .00000    .00000
   D11         .00000    .00000    .00000    .00000    .00000    .00000
   D12        3.14159    .00000    .00000    .00000    .00000   3.14159
   D13         .00000    .00000    .00000    .00000    .00000    .00000
   D14        3.14159    .00000    .00000    .00000    .00000   3.14159
   D15         .00000    .00000    .00000    .00000    .00000    .00000
   D16        3.14159    .00000    .00000    .00000    .00000   3.14159
         Item               Value     Threshold  Converged?
 Maximum Force             .008868      .000450     NO 
 RMS     Force             .002076      .000300     NO 
 Maximum Displacement      .017368      .001800     NO 
 RMS     Displacement      .006150      .001200     NO 
 Predicted change in Energy=-2.166778D-04
 GradGradGradGradGradGradGradGradGradGradGradGradGradGradGradGradGradGrad

                          Input orientation:                          
 ---------------------------------------------------------------------
 Center     Atomic     Atomic              Coordinates (Angstroms)
 Number     Number      Type              X           Y           Z
 ---------------------------------------------------------------------
    1          1             0       -1.906884     .000000   -1.204816
    2          6             0        -.955220     .000000    -.684858
    3          1             0         .678694     .000000   -2.192396
    4          6             0         .360657     .000000   -1.155549
    5          1             0        2.269089     .000000     .073202
    6          6             0        1.186430     .000000     .009375
    7          7             0         .447109     .000000    1.159538
    8          1             0       -1.624380     .000000    1.370955
    9          7             0        -.866878     .000000     .697563
 ---------------------------------------------------------------------
                    Distance matrix (angstroms):
                    1          2          3          4          5
     1  H     .000000
     2  C    1.084446    .000000
     3  H    2.767767   2.223139    .000000
     4  C    2.268077   1.397528   1.084527    .000000
     5  H    4.367160   3.312223   2.768084   2.269789    .000000
     6  C    3.323079   2.251360   2.259556   1.427918   1.084539
     7  N    3.336384   2.316964   3.359925   2.316701   2.121258
     8  H    2.591217   2.161976   4.242832   3.213035   4.104054
     9  N    2.168101   1.385240   3.277294   2.222806   3.197517
                    6          7          8          9
     6  C     .000000
     7  N    1.367286    .000000
     8  H    3.123227   2.082249    .000000
     9  N    2.165565   1.392832   1.013541    .000000
 Stoichiometry    C3H4N2
 Framework group  CS[SG(C3H4N2)]
 Deg. of freedom   15
 Full point group                 CS      NOp   2
 Largest Abelian subgroup         CS      NOp   2
 Largest concise Abelian subgroup C1      NOp   1
                         Standard orientation:                         
 ---------------------------------------------------------------------
 Center     Atomic     Atomic              Coordinates (Angstroms)
 Number     Number      Type              X           Y           Z
 ---------------------------------------------------------------------
    1          1             0        2.134737     .733380     .000000
    2          6             0        1.133710     .316285     .000000
    3          1             0        1.287510   -1.901528     .000000
    4          6             0         .677633   -1.004728     .000000
    5          1             0       -1.474924   -1.724755     .000000
    6          6             0        -.747774    -.920095     .000000
    7          7             0       -1.182477     .376247     .000000
    8          1             0        -.051394    2.124507     .000000
    9          7             0         .000000    1.112270     .000000
 ---------------------------------------------------------------------
 Rotational constants (GHZ):      9.2817987      9.0756459      4.5887824
 Isotopes: H-1,C-12,H-1,C-12,H-1,C-12,N-14,H-1,N-14
 Standard basis: 6-31G (6D, 7F)
 There are    43 symmetry adapted basis functions of A'  symmetry.
 There are    10 symmetry adapted basis functions of A"  symmetry.
 Crude estimate of integral set expansion from redundant integrals=1.000.
 Integral buffers will be    262144 words long.
 Raffenetti 2 integral format.
 Two-electron integral symmetry is turned on.
    53 basis functions      126 primitive gaussians
    18 alpha electrons       18 beta electrons
       nuclear repulsion energy       159.9525976139 Hartrees.
 One-electron integrals computed using PRISM.
 NBasis=    53 RedAO= T  NBF=    43    10
 NBsUse=    53 1.00D-04 NBFU=    43    10
 Initial guess read from the read-write file:
 Initial guess orbital symmetries:
       Occupied  (A') (A') (A') (A') (A') (A') (A') (A') (A') (A')
                 (A') (A') (A') (A") (A') (A') (A") (A")
       Virtual   (A") (A") (A') (A') (A') (A') (A') (A') (A') (A')
                 (A') (A") (A') (A') (A") (A') (A") (A') (A') (A')
                 (A") (A") (A') (A') (A') (A') (A') (A') (A') (A')
                 (A') (A') (A') (A') (A')
 Requested convergence on RMS density matrix=1.00D-08 within  64 cycles.
 Requested convergence on MAX density matrix=1.00D-06.
 Keep R1 and R2 integrals in memory in canonical form, NReq=     2463126.
 SCF Done:  E(RB-LYP) =  -226.053997705     A.U. after   11 cycles
             Convg  =     .1549D-08             -V/T =  2.0057
             S**2   =    .0000
 ***** Axes restored to original set *****
 -------------------------------------------------------------------
 Center     Atomic                   Forces (Hartrees/Bohr)
 Number     Number              X              Y              Z
 -------------------------------------------------------------------
    1          1           -.000395746     .000000000    -.000220088
    2          6            .001066129     .000000000     .002465168
    3          1            .000302247     .000000000    -.000400840
    4          6            .000294086     .000000000    -.000202207
    5          1            .000496269     .000000000     .000269479
    6          6           -.002529553     .000000000     .000867191
    7          7            .004018245     .000000000     .000224766
    8          1            .000510639     .000000000     .000705728
    9          7           -.003762316     .000000000    -.003709197
 -------------------------------------------------------------------
 Cartesian Forces:  Max      .004018245 RMS      .001492406

 GradGradGradGradGradGradGradGradGradGradGradGradGradGradGradGradGradGrad
 Berny optimization.
 Internal  Forces:  Max      .002736411 RMS      .000681243
 Search for a local minimum.
 Step number   5 out of a maximum of  48
 All quantities printed in internal units (Hartrees-Bohrs-Radians)
 Update second derivatives using information from points  2  3  4  5
 Trust test= 1.16D+00 RLast= 3.51D-02 DXMaxT set to 4.24D-01
     Eigenvalues ---     .03203    .03247    .03251    .03273    .03341
     Eigenvalues ---     .03372    .15504    .15662    .16010    .16559
     Eigenvalues ---     .20068    .31381    .36270    .46779    .49551
     Eigenvalues ---     .49715    .58021    .60111    .61958    .71268
     Eigenvalues ---     .735781000.000001000.000001000.000001000.00000
     Eigenvalues --- 1000.000001000.000001000.000001000.000001000.00000
     Eigenvalues --- 1000.000001000.000001000.000001000.000001000.00000
     Eigenvalues --- 1000.000001000.000001000.00000
 RFO step:  Lambda=-3.86323791D-05.
 Quartic linear search produced a step of   .21259.
 Iteration  1 RMS(Cart)=   .00158566 RMS(Int)=   .00000414
 Iteration  2 RMS(Cart)=   .00000412 RMS(Int)=   .00000206
 Iteration  3 RMS(Cart)=   .00000000 RMS(Int)=   .00000206
 Variable       Old X    -DE/DX   Delta X   Delta X   Delta X     New X
                                 (Linear)    (Quad)   (Total)
    R1        2.04931    .00045   -.00113    .00150    .00037   2.04968
    R2        2.64094    .00029   -.00247    .00141   -.00106   2.63988
    R3        2.61772   -.00178    .00012   -.00221   -.00210   2.61563
    R4        2.04946    .00047   -.00122    .00153    .00031   2.04976
    R5        2.69837   -.00019   -.00025   -.00019   -.00044   2.69794
    R6        2.04948    .00051   -.00130    .00178    .00048   2.04996
    R7        2.58380   -.00172   -.00037   -.00203   -.00239   2.58140
    R8        2.63207    .00274    .00528    .00475    .01003   2.64210
    R9        1.91532    .00009   -.00102    .00065   -.00037   1.91495
    A1        2.29802   -.00018   -.00050   -.00074   -.00123   2.29679
    A2        2.13466   -.00018    .00001   -.00188   -.00186   2.13280
    A3        1.85050    .00036    .00049    .00262    .00310   1.85360
    A4        2.21194    .00032   -.00005    .00239    .00234   2.21428
    A5        1.84393   -.00030    .00026   -.00184   -.00158   1.84235
    A6        2.22732   -.00002   -.00021   -.00055   -.00076   2.22656
    A7        2.24633   -.00014   -.00178    .00079   -.00099   2.24534
    A8        1.95365    .00076    .00205    .00145    .00350   1.95715
    A9        2.08321   -.00062   -.00027   -.00224   -.00251   2.08069
   A10        1.80401   -.00056   -.00279    .00030   -.00248   1.80152
   A11        1.97270   -.00027    .00000   -.00254   -.00254   1.97016
   A12        2.23366    .00097   -.00018    .00683    .00666   2.24032
   A13        2.07682   -.00070    .00018   -.00430   -.00412   2.07271
    D1         .00000    .00000    .00000    .00000    .00000    .00000
    D2        3.14159    .00000    .00000    .00000    .00000   3.14159
    D3        3.14159    .00000    .00000    .00000    .00000   3.14159
    D4         .00000    .00000    .00000    .00000    .00000    .00000
    D5        3.14159    .00000    .00000    .00000    .00000   3.14159
    D6         .00000    .00000    .00000    .00000    .00000    .00000
    D7         .00000    .00000    .00000    .00000    .00000    .00000
    D8        3.14159    .00000    .00000    .00000    .00000   3.14159
    D9        3.14159    .00000    .00000    .00000    .00000   3.14159
   D10         .00000    .00000    .00000    .00000    .00000    .00000
   D11         .00000    .00000    .00000    .00000    .00000    .00000
   D12        3.14159    .00000    .00000    .00000    .00000   3.14159
   D13         .00000    .00000    .00000    .00000    .00000    .00000
   D14        3.14159    .00000    .00000    .00000    .00000   3.14159
   D15         .00000    .00000    .00000    .00000    .00000    .00000
   D16        3.14159    .00000    .00000    .00000    .00000   3.14159
         Item               Value     Threshold  Converged?
 Maximum Force             .002736      .000450     NO 
 RMS     Force             .000681      .000300     NO 
 Maximum Displacement      .005162      .001800     NO 
 RMS     Displacement      .001584      .001200     NO 
 Predicted change in Energy=-2.741666D-05
 GradGradGradGradGradGradGradGradGradGradGradGradGradGradGradGradGradGrad

                          Input orientation:                          
 ---------------------------------------------------------------------
 Center     Atomic     Atomic              Coordinates (Angstroms)
 Number     Number      Type              X           Y           Z
 ---------------------------------------------------------------------
    1          1             0       -1.906982     .000000   -1.207033
    2          6             0        -.955412     .000000    -.686492
    3          1             0         .679354     .000000   -2.194430
    4          6             0         .359596     .000000   -1.157943
    5          1             0        2.267158     .000000     .071195
    6          6             0        1.184237     .000000     .007500
    7          7             0         .448646     .000000    1.158548
    8          1             0       -1.624892     .000000    1.371525
    9          7             0        -.870424     .000000     .695027
 ---------------------------------------------------------------------
                    Distance matrix (angstroms):
                    1          2          3          4          5
     1  H     .000000
     2  C    1.084642    .000000
     3  H    2.768409   2.224036    .000000
     4  C    2.267110   1.396965   1.084689    .000000
     5  H    4.365469   3.310445   2.766618   2.269267    .000000
     6  C    3.321254   2.249383   2.259071   1.427687   1.084793
     7  N    3.338407   2.318524   3.360906   2.318202   2.118802
     8  H    2.593942   2.164171   4.245654   3.215027   4.103524
     9  N    2.166168   1.384131   3.278838   2.224062   3.198999
                    6          7          8          9
     6  C     .000000
     7  N    1.366019    .000000
     8  H    3.122782   2.084447    .000000
     9  N    2.166640   1.398141   1.013346    .000000
 Stoichiometry    C3H4N2
 Framework group  CS[SG(C3H4N2)]
 Deg. of freedom   15
 Full point group                 CS      NOp   2
 Largest Abelian subgroup         CS      NOp   2
 Largest concise Abelian subgroup C1      NOp   1
                         Standard orientation:                         
 ---------------------------------------------------------------------
 Center     Atomic     Atomic              Coordinates (Angstroms)
 Number     Number      Type              X           Y           Z
 ---------------------------------------------------------------------
    1          1             0        2.133058     .736510     .000000
    2          6             0        1.132436     .317934     .000000
    3          1             0        1.290267   -1.900495     .000000
    4          6             0         .680028   -1.003747     .000000
    5          1             0       -1.470905   -1.726978     .000000
    6          6             0        -.745238    -.920638     .000000
    7          7             0       -1.185445     .372507     .000000
    8          1             0        -.057655    2.125507     .000000
    9          7             0         .000000    1.113802     .000000
 ---------------------------------------------------------------------
 Rotational constants (GHZ):      9.2775425      9.0685934      4.5859390
 Isotopes: H-1,C-12,H-1,C-12,H-1,C-12,N-14,H-1,N-14
 Standard basis: 6-31G (6D, 7F)
 There are    43 symmetry adapted basis functions of A'  symmetry.
 There are    10 symmetry adapted basis functions of A"  symmetry.
 Crude estimate of integral set expansion from redundant integrals=1.000.
 Integral buffers will be    262144 words long.
 Raffenetti 2 integral format.
 Two-electron integral symmetry is turned on.
    53 basis functions      126 primitive gaussians
    18 alpha electrons       18 beta electrons
       nuclear repulsion energy       159.8997366567 Hartrees.
 One-electron integrals computed using PRISM.
 NBasis=    53 RedAO= T  NBF=    43    10
 NBsUse=    53 1.00D-04 NBFU=    43    10
 Initial guess read from the read-write file:
 Initial guess orbital symmetries:
       Occupied  (A') (A') (A') (A') (A') (A') (A') (A') (A') (A')
                 (A') (A') (A') (A") (A') (A') (A") (A")
       Virtual   (A") (A") (A') (A') (A') (A') (A') (A') (A') (A')
                 (A') (A') (A") (A') (A") (A') (A") (A') (A') (A')
                 (A") (A") (A') (A') (A') (A') (A') (A') (A') (A')
                 (A') (A') (A') (A') (A')
 Requested convergence on RMS density matrix=1.00D-08 within  64 cycles.
 Requested convergence on MAX density matrix=1.00D-06.
 Keep R1 and R2 integrals in memory in canonical form, NReq=     2463126.
 SCF Done:  E(RB-LYP) =  -226.054032094     A.U. after    9 cycles
             Convg  =     .9305D-08             -V/T =  2.0057
             S**2   =    .0000
 ***** Axes restored to original set *****
 -------------------------------------------------------------------
 Center     Atomic                   Forces (Hartrees/Bohr)
 Number     Number              X              Y              Z
 -------------------------------------------------------------------
    1          1           -.000305531     .000000000    -.000265059
    2          6           -.000260508     .000000000     .001943138
    3          1            .000105533     .000000000    -.000293853
    4          6            .000530427     .000000000     .000009810
    5          1            .000436387     .000000000     .000136905
    6          6           -.001168778     .000000000     .000741814
    7          7            .001170100     .000000000    -.000377894
    8          1            .000110577     .000000000     .000370353
    9          7           -.000618206     .000000000    -.002265214
 -------------------------------------------------------------------
 Cartesian Forces:  Max      .002265214 RMS      .000711972

 GradGradGradGradGradGradGradGradGradGradGradGradGradGradGradGradGradGrad
 Berny optimization.
 Internal  Forces:  Max      .001426287 RMS      .000356271
 Search for a local minimum.
 Step number   6 out of a maximum of  48
 All quantities printed in internal units (Hartrees-Bohrs-Radians)
 Update second derivatives using information from points  2  3  4  5  6

 Trust test= 1.25D+00 RLast= 1.51D-02 DXMaxT set to 4.24D-01
     Eigenvalues ---     .03203    .03247    .03251    .03273    .03341
     Eigenvalues ---     .03372    .13736    .15553    .16001    .16101
     Eigenvalues ---     .21202    .29150    .36295    .46520    .49562
     Eigenvalues ---     .49752    .57938    .59848    .61517    .66579
     Eigenvalues ---     .719951000.000001000.000001000.000001000.00000
     Eigenvalues --- 1000.000001000.000001000.000001000.000001000.00000
     Eigenvalues --- 1000.000001000.000001000.000001000.000001000.00000
     Eigenvalues --- 1000.000001000.000001000.00000
 RFO step:  Lambda=-6.92090877D-06.
 Quartic linear search produced a step of   .39782.
 Iteration  1 RMS(Cart)=   .00087616 RMS(Int)=   .00000152
 Iteration  2 RMS(Cart)=   .00000148 RMS(Int)=   .00000023
 Iteration  3 RMS(Cart)=   .00000000 RMS(Int)=   .00000023
 Variable       Old X    -DE/DX   Delta X   Delta X   Delta X     New X
                                 (Linear)    (Quad)   (Total)
    R1        2.04968    .00040    .00015    .00070    .00085   2.05053
    R2        2.63988    .00062   -.00042    .00122    .00080   2.64068
    R3        2.61563   -.00143   -.00083   -.00190   -.00273   2.61290
    R4        2.04976    .00031    .00012    .00046    .00058   2.05035
    R5        2.69794   -.00001   -.00017    .00012   -.00005   2.69788
    R6        2.04996    .00044    .00019    .00080    .00100   2.05096
    R7        2.58140   -.00107   -.00095   -.00123   -.00218   2.57922
    R8        2.64210    .00063    .00399   -.00014    .00385   2.64596
    R9        1.91495    .00016   -.00015    .00026    .00012   1.91506
    A1        2.29679   -.00003   -.00049   -.00018   -.00067   2.29611
    A2        2.13280    .00014   -.00074    .00119    .00045   2.13325
    A3        1.85360   -.00012    .00123   -.00101    .00022   1.85382
    A4        2.21428    .00008    .00093   -.00037    .00056   2.21484
    A5        1.84235   -.00014   -.00063    .00030   -.00033   1.84202
    A6        2.22656    .00006   -.00030    .00007   -.00024   2.22632
    A7        2.24534    .00007   -.00039    .00060    .00021   2.24554
    A8        1.95715    .00008    .00139   -.00040    .00100   1.95815
    A9        2.08069   -.00015   -.00100   -.00020   -.00120   2.07949
   A10        1.80152   -.00004   -.00099    .00004   -.00095   1.80057
   A11        1.97016    .00022   -.00101    .00107    .00006   1.97021
   A12        2.24032    .00023    .00265    .00064    .00329   2.24361
   A13        2.07271   -.00045   -.00164   -.00171   -.00334   2.06936
    D1         .00000    .00000    .00000    .00000    .00000    .00000
    D2        3.14159    .00000    .00000    .00000    .00000   3.14159
    D3        3.14159    .00000    .00000    .00000    .00000   3.14159
    D4         .00000    .00000    .00000    .00000    .00000    .00000
    D5        3.14159    .00000    .00000    .00000    .00000   3.14159
    D6         .00000    .00000    .00000    .00000    .00000    .00000
    D7         .00000    .00000    .00000    .00000    .00000    .00000
    D8        3.14159    .00000    .00000    .00000    .00000   3.14159
    D9        3.14159    .00000    .00000    .00000    .00000   3.14159
   D10         .00000    .00000    .00000    .00000    .00000    .00000
   D11         .00000    .00000    .00000    .00000    .00000    .00000
   D12        3.14159    .00000    .00000    .00000    .00000   3.14159
   D13         .00000    .00000    .00000    .00000    .00000    .00000
   D14        3.14159    .00000    .00000    .00000    .00000   3.14159
   D15         .00000    .00000    .00000    .00000    .00000    .00000
   D16        3.14159    .00000    .00000    .00000    .00000   3.14159
         Item               Value     Threshold  Converged?
 Maximum Force             .001426      .000450     NO 
 RMS     Force             .000356      .000300     NO 
 Maximum Displacement      .002365      .001800     NO 
 RMS     Displacement      .000876      .001200     YES
 Predicted change in Energy=-6.576522D-06
 GradGradGradGradGradGradGradGradGradGradGradGradGradGradGradGradGradGrad

                          Input orientation:                          
 ---------------------------------------------------------------------
 Center     Atomic     Atomic              Coordinates (Angstroms)
 Number     Number      Type              X           Y           Z
 ---------------------------------------------------------------------
    1          1             0       -1.907359     .000000   -1.207540
    2          6             0        -.955731     .000000    -.686170
    3          1             0         .680063     .000000   -2.194414
    4          6             0         .359663     .000000   -1.157804
    5          1             0        2.267356     .000000     .072129
    6          6             0        1.183942     .000000     .007860
    7          7             0         .449780     .000000    1.158450
    8          1             0       -1.623514     .000000    1.372795
    9          7             0        -.871098     .000000     .693924
 ---------------------------------------------------------------------
                    Distance matrix (angstroms):
                    1          2          3          4          5
     1  H     .000000
     2  C    1.085091    .000000
     3  H    2.769238   2.224999    .000000
     4  C    2.267567   1.397389   1.084997    .000000
     5  H    4.366441   3.311089   2.767078   2.269808    .000000
     6  C    3.321647   2.249417   2.259182   1.427658   1.085319
     7  N    3.339762   2.319069   3.360763   2.318006   2.117469
     8  H    2.595899   2.164549   4.246345   3.215108   4.102512
     9  N    2.165502   1.382686   3.278505   2.223435   3.199457
                    6          7          8          9
     6  C     .000000
     7  N    1.364863    .000000
     8  H    3.121675   2.084344    .000000
     9  N    2.166534   1.400179   1.013408    .000000
 Stoichiometry    C3H4N2
 Framework group  CS[SG(C3H4N2)]
 Deg. of freedom   15
 Full point group                 CS      NOp   2
 Largest Abelian subgroup         CS      NOp   2
 Largest concise Abelian subgroup C1      NOp   1
                         Standard orientation:                         
 ---------------------------------------------------------------------
 Center     Atomic     Atomic              Coordinates (Angstroms)
 Number     Number      Type              X           Y           Z
 ---------------------------------------------------------------------
    1          1             0        2.132837     .739002     .000000
    2          6             0        1.132012     .319751     .000000
    3          1             0        1.291983   -1.899490     .000000
    4          6             0         .681020   -1.002861     .000000
    5          1             0       -1.469786   -1.728164     .000000
    6          6             0        -.744287    -.920965     .000000
    7          7             0       -1.186507     .370271     .000000
    8          1             0        -.061948    2.125224     .000000
    9          7             0         .000000    1.113711     .000000
 ---------------------------------------------------------------------
 Rotational constants (GHZ):      9.2789838      9.0671716      4.5859275
 Isotopes: H-1,C-12,H-1,C-12,H-1,C-12,N-14,H-1,N-14
 Standard basis: 6-31G (6D, 7F)
 There are    43 symmetry adapted basis functions of A'  symmetry.
 There are    10 symmetry adapted basis functions of A"  symmetry.
 Crude estimate of integral set expansion from redundant integrals=1.000.
 Integral buffers will be    262144 words long.
 Raffenetti 2 integral format.
 Two-electron integral symmetry is turned on.
    53 basis functions      126 primitive gaussians
    18 alpha electrons       18 beta electrons
       nuclear repulsion energy       159.8969716408 Hartrees.
 One-electron integrals computed using PRISM.
 NBasis=    53 RedAO= T  NBF=    43    10
 NBsUse=    53 1.00D-04 NBFU=    43    10
 Initial guess read from the read-write file:
 Initial guess orbital symmetries:
       Occupied  (A') (A') (A') (A') (A') (A') (A') (A') (A') (A')
                 (A') (A') (A') (A") (A') (A') (A") (A")
       Virtual   (A") (A") (A') (A') (A') (A') (A') (A') (A') (A')
                 (A') (A') (A") (A') (A") (A') (A") (A') (A') (A')
                 (A") (A") (A') (A') (A') (A') (A') (A') (A') (A')
                 (A') (A') (A') (A') (A')
 Requested convergence on RMS density matrix=1.00D-08 within  64 cycles.
 Requested convergence on MAX density matrix=1.00D-06.
 Keep R1 and R2 integrals in memory in canonical form, NReq=     2463126.
 SCF Done:  E(RB-LYP) =  -226.054039356     A.U. after    9 cycles
             Convg  =     .2136D-08             -V/T =  2.0057
[...]
 IR Inten    --     7.4319                 2.0143                52.2329
 Raman Activ --      .0000                  .0000                  .0000
 Depolar     --      .0000                  .0000                  .0000
 Atom AN      X      Y      Z        X      Y      Z        X      Y      Z
   1   1      .61    .26    .00     -.55   -.23    .00      .02    .00    .00
   2   6     -.05   -.02    .00      .05    .03    .00      .00    .00    .00
   3   1     -.08    .10    .00     -.38    .56    .00      .00    .00    .00
   4   6      .01   -.01    .00      .03   -.05    .00      .00    .00    .00
   5   1      .49    .54    .00      .29    .31    .00      .00    .00    .00
   6   6     -.04   -.05    .00     -.03   -.03    .00      .00    .00    .00
   7   7      .00    .00    .00      .00    .00    .00      .00    .00    .00
   8   1      .00   -.01    .00      .00    .02    .00     -.07    .99    .00
   9   7      .00    .00    .00      .00    .00    .00      .01   -.07    .00

 -------------------
 - Thermochemistry -
 -------------------
 Temperature   298.150 Kelvin.  Pressure   1.00000 Atm.
 Atom  1 has atomic number  1 and mass   1.00783
 Atom  2 has atomic number  6 and mass  12.00000
 Atom  3 has atomic number  1 and mass   1.00783
 Atom  4 has atomic number  6 and mass  12.00000
 Atom  5 has atomic number  1 and mass   1.00783
 Atom  6 has atomic number  6 and mass  12.00000
 Atom  7 has atomic number  7 and mass  14.00307
 Atom  8 has atomic number  1 and mass   1.00783
 Atom  9 has atomic number  7 and mass  14.00307
 Molecular mass:    68.03745 amu.
 Principal axes and moments of inertia in atomic units:
                           1         2         3
     EIGENVALUES --   194.50078 198.97887 393.47964
           X             .98492    .17303    .00000
           Y            -.17303    .98492    .00000
           Z             .00000    .00000   1.00000
 THIS MOLECULE IS AN ASYMMETRIC TOP.
 ROTATIONAL SYMMETRY NUMBER  1.
 ROTATIONAL TEMPERATURES (KELVIN)       .44531      .43529      .22012
 ROTATIONAL CONSTANTS (GHZ)            9.27884     9.07001     4.58662
 Zero-point vibrational energy     182318.0 (Joules/Mol)
                                   43.57504 (Kcal/Mol)
 WARNING-- EXPLICIT CONSIDERATION OF   1 DEGREES OF FREEDOM AS
           VIBRATIONS MAY CAUSE SIGNIFICANT ERROR
 VIBRATIONAL TEMPERATURES:    817.22   900.72   951.81  1063.78  1186.37
          (KELVIN)           1258.63  1305.31  1312.19  1380.24  1505.56
                             1600.70  1617.11  1757.03  1917.34  1983.57
                             2042.76  2172.59  4615.03  4629.61  4653.90
                             5183.87
 
 Zero-point correction=                            .069441 (Hartree/Particle)
 Thermal correction to Energy=                     .073226
 Thermal correction to Enthalpy=                   .074170
 Thermal correction to Gibbs Free Energy=          .043114
 Sum of electronic and zero-point Energies=           -225.984599
 Sum of electronic and thermal Energies=              -225.980815
 Sum of electronic and thermal Enthalpies=            -225.979870
 Sum of electronic and thermal Free Energies=         -226.010927
 
                     E (Thermal)             CV                S
                      KCAL/MOL        CAL/MOL-KELVIN    CAL/MOL-KELVIN
 TOTAL                   45.950             13.712             65.363
 ELECTRONIC                .000               .000               .000
 TRANSLATIONAL             .889              2.981             38.570
 ROTATIONAL                .889              2.981             24.236
 VIBRATIONAL             44.172              7.751              2.557
 VIBRATION  1              .924              1.100               .508
                       Q            LOG10(Q)             LN(Q)
 TOTAL BOT        .147643D-19        -19.830788        -45.662078
 TOTAL V=0        .128751D+13         12.109750         27.883730
 VIB (BOT)        .151515D-31        -31.819546        -73.267211
 VIB (BOT)  1     .271496D+00          -.566236         -1.303807
 VIB (V=0)        .132127D+01           .120993           .278597
 VIB (V=0)  1     .106896D+01           .028960           .066682
 ELECTRONIC       .100000D+01           .000000           .000000
 TRANSLATIONAL    .220588D+08          7.343582         16.909224
 ROTATIONAL       .441748D+05          4.645175         10.695910
 ***** Axes restored to original set *****
 -------------------------------------------------------------------
 Center     Atomic                   Forces (Hartrees/Bohr)
 Number     Number              X              Y              Z
 -------------------------------------------------------------------
    1          1            .000015093     .000000000    -.000035685
    2          6           -.000165003     .000000000     .000245368
    3          1           -.000031051     .000000000     .000002219
    4          6            .000127991     .000000000    -.000069975
    5          1            .000004734     .000000000    -.000014949
    6          6            .000092120     .000000000     .000014592
    7          7           -.000115391     .000000000     .000008706
    8          1           -.000041702     .000000000    -.000021461
    9          7            .000113208     .000000000    -.000128815
 -------------------------------------------------------------------
 Cartesian Forces:  Max      .000245368 RMS      .000078203

 GradGradGradGradGradGradGradGradGradGradGradGradGradGradGradGradGradGrad
 Berny optimization.
 Internal  Forces:  Max      .000157980 RMS      .000041116
 Search for a local minimum.
 Step number   1 out of a maximum of  48
 All quantities printed in internal units (Hartrees-Bohrs-Radians)
 Second derivative matrix not updated -- analytic derivatives used.
     Eigenvalues ---     .00821    .01166    .01589    .02675    .05686
     Eigenvalues ---     .05978    .09378    .10306    .10759    .11602
     Eigenvalues ---     .19683    .24654    .29739    .33917    .36319
     Eigenvalues ---     .36506    .36832    .40011    .44968    .46386
     Eigenvalues ---     .515751000.000001000.000001000.000001000.00000
     Eigenvalues --- 1000.000001000.000001000.000001000.000001000.00000
     Eigenvalues --- 1000.000001000.000001000.000001000.000001000.00000
     Eigenvalues --- 1000.000001000.000001000.00000
 Angle between quadratic step and forces=  31.99 degrees.
 Linear search not attempted -- first point.
 Iteration  1 RMS(Cart)=   .00018436 RMS(Int)=   .00000004
 Iteration  2 RMS(Cart)=   .00000004 RMS(Int)=   .00000001
 Variable       Old X    -DE/DX   Delta X   Delta X   Delta X     New X
                                 (Linear)    (Quad)   (Total)
    R1        2.05079    .00000    .00000    .00001    .00001   2.05080
    R2        2.64151    .00012    .00000    .00037    .00037   2.64188
    R3        2.61168   -.00016    .00000   -.00049   -.00049   2.61119
    R4        2.05059   -.00001    .00000   -.00003   -.00003   2.05056
    R5        2.69785    .00002    .00000    .00004    .00004   2.69789
    R6        2.05130    .00000    .00000    .00000    .00000   2.05130
    R7        2.57871    .00006    .00000    .00022    .00022   2.57893
    R8        2.64568   -.00004    .00000   -.00023   -.00023   2.64544
    R9        1.91521    .00002    .00000    .00005    .00005   1.91526
    A1        2.29529   -.00004    .00000   -.00044   -.00044   2.29485
    A2        2.13376    .00003    .00000    .00045    .00045   2.13421
    A3        1.85414    .00000    .00000   -.00001   -.00001   1.85413
    A4        2.21492   -.00003    .00000   -.00034   -.00034   2.21458
    A5        1.84135   -.00001    .00000   -.00007   -.00007   1.84129
    A6        2.22691    .00004    .00000    .00041    .00041   2.22732
    A7        2.24541    .00001    .00000   -.00002   -.00002   2.24539
    A8        1.95834   -.00006    .00000   -.00016   -.00016   1.95819
    A9        2.07943    .00005    .00000    .00018    .00018   2.07961
   A10        1.80069    .00003    .00000    .00004    .00004   1.80073
   A11        1.97026    .00004    .00000    .00019    .00019   1.97045
   A12        2.24417   -.00006    .00000   -.00040   -.00040   2.24377
   A13        2.06876    .00002    .00000    .00021    .00021   2.06897
    D1         .00000    .00000    .00000    .00000    .00000    .00000
    D2        3.14159    .00000    .00000    .00000    .00000   3.14159
    D3        3.14159    .00000    .00000    .00000    .00000   3.14159
    D4         .00000    .00000    .00000    .00000    .00000    .00000
    D5        3.14159    .00000    .00000    .00000    .00000   3.14159
    D6         .00000    .00000    .00000    .00000    .00000    .00000
    D7         .00000    .00000    .00000    .00000    .00000    .00000
    D8        3.14159    .00000    .00000    .00000    .00000   3.14159
    D9        3.14159    .00000    .00000    .00000    .00000   3.14159
   D10         .00000    .00000    .00000    .00000    .00000    .00000
   D11         .00000    .00000    .00000    .00000    .00000    .00000
   D12        3.14159    .00000    .00000    .00000    .00000   3.14159
   D13         .00000    .00000    .00000    .00000    .00000    .00000
   D14        3.14159    .00000    .00000    .00000    .00000   3.14159
   D15         .00000    .00000    .00000    .00000    .00000    .00000
   D16        3.14159    .00000    .00000    .00000    .00000   3.14159
         Item               Value     Threshold  Converged?
 Maximum Force             .000158      .000450     YES
 RMS     Force             .000041      .000300     YES
 Maximum Displacement      .000679      .001800     YES
 RMS     Displacement      .000184      .001200     YES
 Predicted change in Energy=-1.301385D-07
 Optimization completed.
    -- Stationary point found.
                         ----------------------------
                         !   Optimized Parameters   !
                         ! (Angstroms and Degrees)  !
 ------------------------                            -------------------------
 ! Name  Definition              Value          Derivative Info.             !
 -----------------------------------------------------------------------------
 ! R1    R(1,2)                  1.0852         -DE/DX =    0.               !
 ! R2    R(2,4)                  1.3978         -DE/DX =    0.0001           !
 ! R3    R(2,9)                  1.382          -DE/DX =   -0.0002           !
 ! R4    R(3,4)                  1.0851         -DE/DX =    0.               !
 ! R5    R(4,6)                  1.4276         -DE/DX =    0.               !
 ! R6    R(5,6)                  1.0855         -DE/DX =    0.               !
 ! R7    R(6,7)                  1.3646         -DE/DX =    0.0001           !
 ! R8    R(7,9)                  1.4            -DE/DX =    0.               !
 ! R9    R(8,9)                  1.0135         -DE/DX =    0.               !
 ! A1    A(1,2,4)              131.5103         -DE/DX =    0.               !
 ! A2    A(1,2,9)              122.2555         -DE/DX =    0.               !
 ! A3    A(4,2,9)              106.2342         -DE/DX =    0.               !
 ! A4    A(2,4,3)              126.9058         -DE/DX =    0.               !
 ! A5    A(2,4,6)              105.5017         -DE/DX =    0.               !
 ! A6    A(3,4,6)              127.5926         -DE/DX =    0.               !
 ! A7    A(4,6,5)              128.6527         -DE/DX =    0.               !
 ! A8    A(4,6,7)              112.2048         -DE/DX =   -0.0001           !
 ! A9    A(5,6,7)              119.1424         -DE/DX =    0.               !
 ! A10   A(6,7,9)              103.1717         -DE/DX =    0.               !
 ! A11   A(2,9,7)              112.8875         -DE/DX =    0.               !
 ! A12   A(2,9,8)              128.5813         -DE/DX =   -0.0001           !
 ! A13   A(7,9,8)              118.5312         -DE/DX =    0.               !
 ! D1    D(1,2,4,3)              0.             -DE/DX =    0.               !
 ! D2    D(1,2,4,6)            180.             -DE/DX =    0.               !
 ! D3    D(9,2,4,3)            180.             -DE/DX =    0.               !
 ! D4    D(9,2,4,6)              0.             -DE/DX =    0.               !
 ! D5    D(1,2,9,7)            180.             -DE/DX =    0.               !
 ! D6    D(1,2,9,8)              0.             -DE/DX =    0.               !
 ! D7    D(4,2,9,7)              0.             -DE/DX =    0.               !
 ! D8    D(4,2,9,8)            180.             -DE/DX =    0.               !
 ! D9    D(2,4,6,5)            180.             -DE/DX =    0.               !
 ! D10   D(2,4,6,7)              0.             -DE/DX =    0.               !
 ! D11   D(3,4,6,5)              0.             -DE/DX =    0.               !
 ! D12   D(3,4,6,7)            180.             -DE/DX =    0.               !
 ! D13   D(4,6,7,9)              0.             -DE/DX =    0.               !
 ! D14   D(5,6,7,9)            180.             -DE/DX =    0.               !
 ! D15   D(6,7,9,2)              0.             -DE/DX =    0.               !
 ! D16   D(6,7,9,8)            180.             -DE/DX =    0.               !
 -----------------------------------------------------------------------------
 GradGradGradGradGradGradGradGradGradGradGradGradGradGradGradGradGradGrad

 1\1\GINC-SNAKE\Freq\RBLYP\6-31G\C3H4N2\RUS\16-May-2000\0\\#N GEOM=ALLC
 HECK GUESS=TCHECK RBLYP/6-31G FREQ\\1H pyrazole C3H4N2 casno=288131\\0
 ,1\H,-1.9070803984,0.,-1.2074122097\C,-0.9555818211,0.,-0.6855149763\H
 ,0.680232727,0.,-2.1945637693\C,0.3600618816,0.,-1.1577484774\H,2.2675
 336222,0.,0.0726633479\C,1.1839483712,0.,0.0081701116\N,0.4497772395,0
 .,1.1584349841\H,-1.6230311272,0.,1.3732967835\N,-0.8709522987,0.,0.69
 39330017\\Version=IBM-RS6000-G98RevA.7\State=1-A'\HF=-226.0540403\RMSD
 =3.727e-09\RMSF=7.820e-05\Dipole=-0.8030197,0.,-0.4924702\DipoleDeriv=
 -0.0215004,0.0001926,-0.0568925,0.0000023,0.1818944,-0.0000038,-0.0497
 275,0.0000905,0.0591865,0.1314647,-0.0001365,-0.10158,0.0000874,-0.068
 3533,-0.0001531,-0.2841303,-0.0001262,0.1994794,0.0863479,-0.0000128,0
 .0326044,0.000016,0.1548665,0.0000392,0.0401703,0.0000944,-0.0562916,-
 0.2337325,-0.0002262,-0.0032369,-0.0000346,-0.1743488,0.0000575,-0.051
 7985,-0.0002617,0.0142676,-0.0571504,0.0004622,-0.0143435,-0.0000443,0
 .1445138,-0.0000143,-0.0163217,0.0000159,0.0810392,0.2063624,-0.000313
 3,0.1078801,0.0002729,-0.0848349,-0.0002902,0.1800245,0.0001675,0.1076
 388,0.0576776,-0.0000888,-0.172228,-0.0003113,-0.2082002,0.0003598,-0.
 041332,-0.0000102,-0.4503317,0.1837632,-0.0002538,-0.0118741,0.0000094
 ,0.3622165,-0.000006,-0.0150709,0.0002236,0.1984369,-0.353232,0.000376
 6,0.2196704,0.000002,-0.3077536,0.0000108,0.2381856,-0.0001938,-0.1534
 248\Polar=50.3599731,0.0045101,15.3041614,-0.190664,-0.0019889,46.1870
 659\PG=CS [SG(C3H4N2)]\NImag=0\\0.29044480,-0.00000047,0.01908638,0.13
 310465,-0.00000032,0.12321516,-0.28643885,0.00000020,-0.11805880,0.809
 32044,-0.00000443,-0.02343650,-0.00000195,0.00000204,0.11160981,-0.125
 61189,0.00000109,-0.11928955,0.10232150,0.00000559,0.58552985,0.000244
 27,-0.00000006,-0.00082274,0.00095387,0.00000132,0.02667095,0.07606656
 ,-0.00000081,-0.00251042,-0.00000058,0.00000010,-0.00157907,0.00000081
 ,-0.00000034,0.02155737,0.00061269,0.00000024,-0.00007652,-0.00486616,
 -0.00000525,-0.00003176,-0.09012495,0.00000080,0.33549572,-0.00651317,
 0.00000033,0.01081412,-0.31514201,0.00000683,0.06705387,-0.08097474,0.
 00000050,0.08513401,0.57964809,0.00000005,0.00055977,0.00000076,0.0000
 0405,-0.06015426,-0.00000704,-0.00000017,-0.02615248,0.00000218,-0.000
 00707,0.11400214,-0.01567974,-0.00000034,0.01208255,0.08866780,0.00000
 969,-0.13096943,0.08214212,-0.00000147,-0.32373116,-0.11554634,-0.0000
 0339,0.78777249,-0.00031970,0.00000057,0.00021189,0.00014439,-0.000015
 72,-0.00051012,-0.00008956,0.00000150,-0.00061872,-0.00438142,0.000007
 71,0.00500613,0.36272579,0.00000100,0.00073380,0.00000015,-0.00000296,
 0.00443604,0.00000404,0.00000064,-0.00176235,-0.00000221,0.00000119,0.
 00054775,0.00000047,-0.00000098,0.02308935,-0.00096417,0.,0.00098251,-
 0.00271984,0.00000004,-0.00559580,0.00088055,-0.00000020,0.00018143,-0
 .02242052,-0.00000004,0.00622973,0.01731659,0.00000020,0.05451387,-0.0
 0334575,-0.00000001,0.00474468,-0.05922122,0.00001545,-0.00461546,0.01
 180696,-0.00000195,0.01269717,-0.16637987,-0.00000658,-0.09274732,-0.3
 4551888,0.00000364,-0.02770571,0.82990591,-0.00000983,0.00508301,-0.00
 000364,0.00001348,0.01059343,-0.00000117,-0.00000048,-0.00241177,0.000
 00094,0.00000786,-0.06272271,0.00001353,-0.00001960,-0.02863291,-0.000
 00014,0.00001201,0.12968353,0.00062881,-0.00000005,-0.00256871,-0.0619
 3006,-0.00001055,0.02834242,-0.01694012,0.00000251,-0.00952567,-0.0648
 1909,0.00000181,-0.21046393,-0.02013436,-0.00000082,-0.05682127,0.0092
 1181,-0.00001725,0.52953765,0.00067655,-0.00000105,0.00076899,-0.05202
 317,0.00000031,-0.04856662,-0.00220953,-0.00000090,-0.00075255,0.01879
 934,0.00000148,0.03011885,-0.01269744,-0.00000311,0.02804776,-0.150366
 50,0.00000839,0.12075252,0.38241686,0.00001511,0.00551358,0.00000559,-
 0.00002227,0.01627674,0.00000057,0.00000010,0.00608175,-0.00000097,-0.
 00000601,0.01912206,-0.00001696,0.00002143,-0.00679449,0.00000016,-0.0
 0001496,-0.06572817,0.00002312,-0.00000854,0.09331849,0.00285790,-0.00
 000050,-0.00425222,-0.02135932,0.00000440,-0.06418382,-0.00536040,-0.0
 0000209,-0.00258332,-0.02842421,0.00000407,-0.07731433,-0.00312564,-0.
 00000062,0.00440557,0.07224355,0.00000742,-0.24522503,-0.05051221,-0.0
 0001151,0.47530017,-0.00014360,0.00000009,0.00054508,0.00914563,0.0000
 0859,-0.00775695,0.00062068,-0.00000012,-0.00005556,0.00156379,-0.0000
 0548,-0.00340807,-0.00040505,0.00000185,0.00143846,-0.00691990,0.00000
 689,-0.00525875,-0.01782392,-0.00000756,0.02487425,0.28167471,-0.00000
 005,-0.00124363,-0.00000009,-0.00000129,-0.00636260,0.00000079,0.00000
 015,0.00197212,-0.00000085,0.00000134,0.00322012,0.00000045,-0.0000015
 6,0.00189869,-0.00000001,0.00000191,0.00400917,-0.00000052,-0.00000078
 ,-0.00985944,0.00000039,0.00000112,0.01335211,-0.00075200,-0.00000019,
 -0.00007738,0.02601233,-0.00000757,-0.00488967,0.00126335,-0.00000002,
 0.00007206,-0.00224726,0.00000455,-0.00648724,-0.00045677,-0.00000171,
 0.00100510,-0.00665449,-0.00000595,0.00023966,-0.01288340,0.00000725,0
 .01331061,-0.19767629,-0.00000093,0.24364460,0.00539543,0.00000040,-0.
 03130788,-0.10673904,-0.00001439,-0.00898529,-0.00641852,0.00000201,-0
 .00202594,-0.02662001,0.00000601,0.02144657,0.00054187,-0.00000127,0.0
 0612689,-0.10996074,-0.00001872,0.03848924,-0.16677219,0.00002270,0.00
 880610,-0.26771234,-0.00000085,0.19339452,0.67828552,-0.00000057,-0.00
 378598,0.00000007,0.00000662,-0.05138357,-0.00000466,-0.00000117,0.004
 80485,0.00000514,-0.00000496,0.01157762,-0.00000200,0.00000664,0.00648
 412,-0.00000003,-0.00000948,0.01012643,0.00000175,0.00000416,-0.057930
 52,-0.00000157,-0.00000539,-0.00698654,0.00000457,0.00000413,0.0870935
 9,0.00580376,0.00000006,-0.01001584,-0.00806746,0.00000560,-0.28891228
 ,0.00229125,0.00000025,0.00019921,0.07045541,-0.00000290,-0.05711866,0
 .00231100,0.00000048,-0.00490115,0.03282579,0.00000627,-0.03351510,-0.
 06697336,-0.00000726,-0.09945761,0.18729781,0.00000077,-0.24681772,-0.
 22594419,-0.00000328,0.74053915\\-0.00001509,0.,0.00003568,0.00016500,
 0.,-0.00024537,0.00003105,0.,-0.00000222,-0.00012799,0.,0.00006997,-0.
 00000473,0.,0.00001495,-0.00009212,0.,-0.00001459,0.00011539,0.,-0.000
 00871,0.00004170,0.,0.00002146,-0.00011321,0.,0.00012881\\\@


 Ideas are like rabbits. You get a couple and learn
 how to handle them, and pretty soon you have a dozen.
                                    -- John Steinbeck
 Job cpu time:  0 days  0 hours  3 minutes 56.1 seconds.
 File lengths (MBytes):  RWF=   10 Int=    0 D2E=    0 Chk=    3 Scr=    1
 Normal termination of Gaussian 98.
