 Entering Gaussian System, Link 0=g98
 Initial command:
 /usr/local/apps/g98/g98/l1.exe /wrk/Gau-7914.inp -scrdir=/wrk/
 Entering Link 1 = /usr/local/apps/g98/g98/l1.exe PID=     17284.
  
 Copyright (c) 1988,1990,1992,1993,1995,1998 Gaussian, Inc.
                  All Rights Reserved.
  
 This is part of the Gaussian(R) 98 program.  It is based on
 the Gaussian 94(TM) system (copyright 1995 Gaussian, Inc.),
 the Gaussian 92(TM) system (copyright 1992 Gaussian, Inc.),
 the Gaussian 90(TM) system (copyright 1990 Gaussian, Inc.),
 the Gaussian 88(TM) system (copyright 1988 Gaussian, Inc.),
 the Gaussian 86(TM) system (copyright 1986 Carnegie Mellon
 University), and the Gaussian 82(TM) system (copyright 1983
 Carnegie Mellon University). Gaussian is a federally registered
 trademark of Gaussian, Inc.
  
 This software contains proprietary and confidential information,
 including trade secrets, belonging to Gaussian, Inc.
  
 This software is provided under written license and may be
 used, copied, transmitted, or stored only in accord with that
 written license.
  
 The following legend is applicable only to US Government
 contracts under DFARS:
  
                    RESTRICTED RIGHTS LEGEND
  
 Use, duplication or disclosure by the US Government is subject
 to restrictions as set forth in subparagraph (c)(1)(ii) of the
 Rights in Technical Data and Computer Software clause at DFARS
 252.227-7013.
  
 Gaussian, Inc.
 Carnegie Office Park, Building 6, Pittsburgh, PA 15106 USA
  
 The following legend is applicable only to US Government
 contracts under FAR:
  
                    RESTRICTED RIGHTS LEGEND
  
 Use, reproduction and disclosure by the US Government is subject
 to restrictions as set forth in subparagraph (c) of the
 Commercial Computer Software - Restricted Rights clause at FAR
 52.227-19.
  
 Gaussian, Inc.
 Carnegie Office Park, Building 6, Pittsburgh, PA 15106 USA
  
  
 ---------------------------------------------------------------
 Warning -- This program may not be used in any manner that
 competes with the business of Gaussian, Inc. or will provide
 assistance to any competitor of Gaussian, Inc.  The licensee
 of this program is prohibited from giving any competitor of
 Gaussian, Inc. access to this program.  By using this program,
 the user acknowledges that Gaussian, Inc. is engaged in the
 business of creating and licensing software in the field of
 computational chemistry and represents and warrants to the
 licensee that it is not a competitor of Gaussian, Inc. and that
 it will not use this program in any manner prohibited above.
 ---------------------------------------------------------------
  

 Cite this work as:
 Gaussian 98, Revision A.7,
 M. J. Frisch, G. W. Trucks, H. B. Schlegel, G. E. Scuseria, 
 M. A. Robb, J. R. Cheeseman, V. G. Zakrzewski, J. A. Montgomery, Jr., 
 R. E. Stratmann, J. C. Burant, S. Dapprich, J. M. Millam, 
 A. D. Daniels, K. N. Kudin, M. C. Strain, O. Farkas, J. Tomasi, 
 V. Barone, M. Cossi, R. Cammi, B. Mennucci, C. Pomelli, C. Adamo, 
 S. Clifford, J. Ochterski, G. A. Petersson, P. Y. Ayala, Q. Cui, 
 K. Morokuma, D. K. Malick, A. D. Rabuck, K. Raghavachari, 
 J. B. Foresman, J. Cioslowski, J. V. Ortiz, A. G. Baboul, 
 B. B. Stefanov, G. Liu, A. Liashenko, P. Piskorz, I. Komaromi, 
 R. Gomperts, R. L. Martin, D. J. Fox, T. Keith, M. A. Al-Laham, 
 C. Y. Peng, A. Nanayakkara, C. Gonzalez, M. Challacombe, 
 P. M. W. Gill, B. Johnson, W. Chen, M. W. Wong, J. L. Andres, 
 C. Gonzalez, M. Head-Gordon, E. S. Replogle, and J. A. Pople, 
 Gaussian, Inc., Pittsburgh PA, 1998.

 **********************************************
 Gaussian 98:  IBM-RS6000-G98RevA.7 11-Apr-1999
                  29-Jan-2001 
 **********************************************
 %mem=24000000
 ----------------------
 #BLYP/cc-pVDZ opt freq
 ----------------------
 1/14=-1,18=20,26=3,38=1/1,3;
 2/9=110,17=6,18=5/2;
 3/5=16,11=2,25=1,30=1/1,2,3;
 4//1;
 5/5=2,38=4,42=402/2;
 6/7=2,8=2,9=2,10=2,28=1/1;
 7//1,2,3,16;
 1/14=-1,18=20/3(1);
 99//99;
 2/9=110/2;
 3/5=16,11=2,25=1,30=1/1,2,3;
 4/5=5,16=2/1;
 5/5=2,38=4,42=402/2;
 7//1,2,3,16;
 1/14=-1,18=20/3(-5);
 2/9=110/2;
 6/7=2,8=2,9=2,10=2,19=2,28=1/1;
 99/9=1/99;
 -------------------------------
 1H pyrazole C3H4N2 casno=288131
 -------------------------------
 Symbolic Z-matrix:
 Charge =  0 Multiplicity = 1
 H                    -1.9125    0.       -0.75938 
 C                    -1.08438   0.       -0.21875 
 H                     0.43438   0.       -1.63125 
 C                     0.15      0.       -0.68438 
 H                     1.9125    0.        0.37188 
 C                     0.92188   0.        0.375 
 N                     0.18125   0.        1.41875 
 H                    -1.74063   0.        1.63125 
 N                    -1.00313   0.        1.05313 

 GradGradGradGradGradGradGradGradGradGradGradGradGradGradGradGradGradGrad
 Berny optimization.
 Initialization pass.
                         ----------------------------
                         !    Initial Parameters    !
                         ! (Angstroms and Degrees)  !
 ------------------------                            -------------------------
 ! Name  Definition              Value          Derivative Info.             !
 -----------------------------------------------------------------------------
 ! R1    R(1,2)                  0.989          estimate D2E/DX2             !
 ! R2    R(2,4)                  1.3193         estimate D2E/DX2             !
 ! R3    R(2,9)                  1.2745         estimate D2E/DX2             !
 ! R4    R(3,4)                  0.9887         estimate D2E/DX2             !
 ! R5    R(4,6)                  1.3108         estimate D2E/DX2             !
 ! R6    R(5,6)                  0.9906         estimate D2E/DX2             !
 ! R7    R(6,7)                  1.2798         estimate D2E/DX2             !
 ! R8    R(7,9)                  1.2395         estimate D2E/DX2             !
 ! R9    R(8,9)                  0.9371         estimate D2E/DX2             !
 ! A1    A(1,2,4)              126.195          estimate D2E/DX2             !
 ! A2    A(1,2,9)              126.7929         estimate D2E/DX2             !
 ! A3    A(4,2,9)              107.012          estimate D2E/DX2             !
 ! A4    A(2,4,3)              127.3838         estimate D2E/DX2             !
 ! A5    A(2,4,6)              105.4104         estimate D2E/DX2             !
 ! A6    A(3,4,6)              127.2058         estimate D2E/DX2             !
 ! A7    A(4,6,5)              125.8968         estimate D2E/DX2             !
 ! A8    A(4,6,7)              108.5636         estimate D2E/DX2             !
 ! A9    A(5,6,7)              125.5395         estimate D2E/DX2             !
 ! A10   A(6,7,9)              108.203          estimate D2E/DX2             !
 ! A11   A(2,9,7)              110.811          estimate D2E/DX2             !
 ! A12   A(2,9,8)              124.4376         estimate D2E/DX2             !
 ! A13   A(7,9,8)              124.7513         estimate D2E/DX2             !
 ! D1    D(1,2,4,3)              0.             estimate D2E/DX2             !
 ! D2    D(1,2,4,6)            180.             estimate D2E/DX2             !
 ! D3    D(9,2,4,3)            180.             estimate D2E/DX2             !
 ! D4    D(9,2,4,6)              0.             estimate D2E/DX2             !
 ! D5    D(1,2,9,7)            180.             estimate D2E/DX2             !
 ! D6    D(1,2,9,8)              0.             estimate D2E/DX2             !
 ! D7    D(4,2,9,7)              0.             estimate D2E/DX2             !
 ! D8    D(4,2,9,8)            180.             estimate D2E/DX2             !
 ! D9    D(2,4,6,5)            180.             estimate D2E/DX2             !
 ! D10   D(2,4,6,7)              0.             estimate D2E/DX2             !
 ! D11   D(3,4,6,5)              0.             estimate D2E/DX2             !
 ! D12   D(3,4,6,7)            180.             estimate D2E/DX2             !
 ! D13   D(4,6,7,9)              0.             estimate D2E/DX2             !
 ! D14   D(5,6,7,9)            180.             estimate D2E/DX2             !
 ! D15   D(6,7,9,2)              0.             estimate D2E/DX2             !
 ! D16   D(6,7,9,8)            180.             estimate D2E/DX2             !
 -----------------------------------------------------------------------------
 Trust Radius=3.00D-01 FncErr=1.00D-07 GrdErr=1.00D-06
 Number of steps in this run=  48 maximum allowed number of steps= 100.
 GradGradGradGradGradGradGradGradGradGradGradGradGradGradGradGradGradGrad

                          Input orientation:                          
 ---------------------------------------------------------------------
 Center     Atomic     Atomic              Coordinates (Angstroms)
 Number     Number      Type              X           Y           Z
 ---------------------------------------------------------------------
    1          1             0       -1.912500     .000000    -.759375
    2          6             0       -1.084375     .000000    -.218750
    3          1             0         .434375     .000000   -1.631250
    4          6             0         .150000     .000000    -.684375
    5          1             0        1.912500     .000000     .371875
    6          6             0         .921875     .000000     .375000
    7          7             0         .181250     .000000    1.418750
    8          1             0       -1.740625     .000000    1.631250
    9          7             0       -1.003125     .000000    1.053125
 ---------------------------------------------------------------------
                    Distance matrix (angstroms):
                    1          2          3          4          5
     1  H     .000000
     2  C     .988972    .000000
     3  H    2.503595   2.074068    .000000
     4  C    2.063863   1.319276    .988656    .000000
     5  H    3.988778   3.054521   2.489450   2.054768    .000000
     6  C    3.052947   2.092266   2.064630   1.310750    .990630
     7  N    3.021261   2.069592   3.060486   2.103357   2.023159
     8  H    2.396796   1.962948   3.921037   2.989412   3.864110
     9  N    2.027836   1.274468   3.045041   2.085331   2.994156
                    6          7          8          9
     6  C     .000000
     7  N    1.279820    .000000
     8  H    2.943989   1.933587    .000000
     9  N    2.040950   1.239526    .937088    .000000
 Stoichiometry    C3H4N2
 Framework group  CS[SG(C3H4N2)]
 Deg. of freedom   15
 Full point group                 CS      NOp   2
 Largest Abelian subgroup         CS      NOp   2
 Largest concise Abelian subgroup C1      NOp   1
                         Standard orientation:                         
 ---------------------------------------------------------------------
 Center     Atomic     Atomic              Coordinates (Angstroms)
 Number     Number      Type              X           Y           Z
 ---------------------------------------------------------------------
    1          1             0        1.974407     .585689     .000000
    2          6             0        1.028833     .295936     .000000
    3          1             0        1.140941   -1.775099     .000000
    4          6             0         .595873    -.950271     .000000
    5          1             0       -1.344123   -1.627388     .000000
    6          6             0        -.712074    -.864589     .000000
    7          7             0       -1.039336     .372682     .000000
    8          1             0         .028336    1.984773     .000000
    9          7             0         .000000    1.048113     .000000
 ---------------------------------------------------------------------
 Rotational constants (GHZ):     11.1878032     10.4520048      5.4036973
 Isotopes: H-1,C-12,H-1,C-12,H-1,C-12,N-14,H-1,N-14
 Standard basis: CC-pVDZ (5D, 7F)
 There are    66 symmetry adapted basis functions of A'  symmetry.
 There are    24 symmetry adapted basis functions of A"  symmetry.
 Crude estimate of integral set expansion from redundant integrals=1.000.
 Integral buffers will be    262144 words long.
 Raffenetti 2 integral format.
 Two-electron integral symmetry is turned on.
    90 basis functions      203 primitive gaussians
    18 alpha electrons       18 beta electrons
       nuclear repulsion energy       173.7391879471 Hartrees.
 One-electron integrals computed using PRISM.
 NBasis=    90 RedAO= T  NBF=    66    24
 NBsUse=    90 1.00D-04 NBFU=    66    24
 Projected INDO Guess.
 Initial guess orbital symmetries:
       Occupied  (A') (A') (A') (A') (A') (A') (A') (A') (A') (A')
                 (A') (A") (A') (A') (A') (A") (A') (A")
       Virtual   (A") (A') (A') (A") (A') (A') (A') (A') (A') (A')
                 (A') (A') (A') (A') (A') (A') (A') (A') (A') (A')
                 (A') (A') (A') (A') (A') (A') (A') (A') (A') (A')
                 (A') (A') (A') (A') (A') (A') (A') (A') (A') (A')
                 (A') (A') (A') (A') (A') (A') (A') (A') (A') (A')
                 (A') (A') (A') (A") (A") (A") (A") (A") (A") (A")
                 (A") (A") (A") (A") (A") (A") (A") (A") (A") (A")
                 (A") (A")
 Requested convergence on RMS density matrix=1.00D-08 within  64 cycles.
 Requested convergence on MAX density matrix=1.00D-06.
 Keep R1 and R2 integrals in memory in canonical form, NReq=    21270441.
 Integral accuracy reduced to 1.0D-05 until final iterations.
 Initial convergence to 1.0D-05 achieved.  Increase integral accuracy.
 SCF Done:  E(RB-LYP) =  -226.047303598     A.U. after   16 cycles
             Convg  =     .4990D-08             -V/T =  1.9978
             S**2   =    .0000

 **********************************************************************

            Population analysis using the SCF density.

 **********************************************************************

 Orbital Symmetries:
       Occupied  (A') (A') (A') (A') (A') (A') (A') (A') (A') (A')
                 (A') (A') (A") (A') (A') (A") (A') (A")
       Virtual   (A") (A') (A") (A') (A') (A') (A') (A') (A') (A')
                 (A') (A") (A') (A") (A') (A') (A') (A") (A') (A')
                 (A') (A") (A') (A') (A') (A") (A') (A") (A') (A')
                 (A') (A") (A') (A') (A") (A") (A') (A") (A') (A')
                 (A') (A") (A') (A') (A') (A") (A') (A") (A') (A")
                 (A") (A') (A') (A") (A') (A') (A') (A') (A') (A")
                 (A') (A") (A') (A") (A') (A') (A') (A') (A') (A')
                 (A') (A')
  The electronic state is 1-A'.
 Alpha  occ. eigenvalues --  -14.08537 -14.00375  -9.91851  -9.90017  -9.87590
 Alpha  occ. eigenvalues --   -1.01058   -.75755   -.71707   -.57494   -.54865
 Alpha  occ. eigenvalues --    -.49753   -.41567   -.41435   -.37878   -.34232
 Alpha  occ. eigenvalues --    -.22700   -.21013   -.20453
 Alpha virt. eigenvalues --     .02524    .04460    .07162    .09176    .10645
 Alpha virt. eigenvalues --     .13407    .22501    .23330    .26778    .31357
 Alpha virt. eigenvalues --     .41498    .42951    .43251    .48355    .48741
 Alpha virt. eigenvalues --     .49891    .53013    .54688    .58651    .62327
 Alpha virt. eigenvalues --     .68216    .70412    .70530    .72626    .76829
 Alpha virt. eigenvalues --     .80019    .80131    .85228    .85573    .93642
 Alpha virt. eigenvalues --     .98633   1.00857   1.06121   1.08359   1.08919
 Alpha virt. eigenvalues --    1.13157   1.24025   1.29455   1.32975   1.43027
 Alpha virt. eigenvalues --    1.48121   1.52102   1.53165   1.57270   1.62861
 Alpha virt. eigenvalues --    1.63235   1.67392   1.76157   1.77180   1.83016
 Alpha virt. eigenvalues --    1.88526   1.89930   1.91771   1.94225   1.97695
 Alpha virt. eigenvalues --    1.98947   2.13199   2.15801   2.32680   2.35323
 Alpha virt. eigenvalues --    2.38815   2.47243   2.52885   2.58053   2.67810
 Alpha virt. eigenvalues --    2.73879   2.81757   2.86773   2.94588   3.00097
 Alpha virt. eigenvalues --    3.40862   3.63498
          Condensed to atoms (all electrons):
              1          2          3          4          5          6
  1  H     .824310    .343925   -.007419   -.026967   -.001232    .000532
  2  C     .343925   4.913538   -.083377    .483178    .014202    .012612
  3  H    -.007419   -.083377    .896865    .386965   -.013857   -.062794
  4  C    -.026967    .483178    .386965   4.630082   -.054418    .579946
  5  H    -.001232    .014202   -.013857   -.054418    .819929    .373554
  6  C     .000532    .012612   -.062794    .579946    .373554   4.508642
  7  N     .013335   -.204246    .018312    .001662   -.033140    .583617
  8  H    -.009079   -.053160   -.000402    .013944   -.000626    .007332
  9  N    -.036030    .439506    .008744   -.013902    .006742   -.156530
              7          8          9
  1  H     .013335   -.009079   -.036030
  2  C    -.204246   -.053160    .439506
  3  H     .018312   -.000402    .008744
  4  C     .001662    .013944   -.013902
  5  H    -.033140   -.000626    .006742
  6  C     .583617    .007332   -.156530
  7  N    6.380959   -.043769    .427465
  8  H    -.043769    .648840    .407343
  9  N     .427465    .407343   5.732906
 Total atomic charges:
              1
  1  H    -.101374
  2  C     .133824
  3  H    -.143037
  4  C    -.000490
  5  H    -.111153
  6  C     .153091
  7  N    -.144195
  8  H     .029577
  9  N     .183757
 Sum of Mulliken charges=    .00000
 Atomic charges with hydrogens summed into heavy atoms:
              1
  1  H     .000000
  2  C     .032450
  3  H     .000000
  4  C    -.143527
  5  H     .000000
  6  C     .041938
  7  N    -.144195
  8  H     .000000
  9  N     .213334
 Sum of Mulliken charges=    .00000
 Electronic spatial extent (au):  <R**2>=   258.6521
 Charge=      .0000 electrons
 Dipole moment (Debye):
    X=     1.7607    Y=     1.1802    Z=      .0000  Tot=     2.1197
 Quadrupole moment (Debye-Ang):
   XX=   -30.0060   YY=   -22.5082   ZZ=   -29.9328
   XY=     2.1292   XZ=      .0000   YZ=      .0000
 Octapole moment (Debye-Ang**2):
  XXX=     5.9746  YYY=    11.9832  ZZZ=      .0000  XYY=      .0569
  XXY=    -1.4617  XXZ=      .0000  XZZ=     -.9954  YZZ=     2.2831
  YYZ=      .0000  XYZ=      .0000
 Hexadecapole moment (Debye-Ang**3):
 XXXX=  -154.7266 YYYY=  -127.9146 ZZZZ=   -29.0766 XXXY=     4.8662
 XXXZ=      .0000 YYYX=     -.2152 YYYZ=      .0000 ZZZX=      .0000
 ZZZY=      .0000 XXYY=   -49.2481 XXZZ=   -32.1420 YYZZ=   -32.0518
 XXYZ=      .0000 YYXZ=      .0000 ZZXY=     -.5022
 N-N= 1.737391879471D+02 E-N=-8.750073784161D+02  KE= 2.265346575082D+02
 Symmetry A'   KE= 2.181228781508D+02
 Symmetry A"   KE= 8.411779357416D+00
 ***** Axes restored to original set *****
 -------------------------------------------------------------------
 Center     Atomic                   Forces (Hartrees/Bohr)
 Number     Number              X              Y              Z
 -------------------------------------------------------------------
    1          1           -.085996645     .000000000    -.045630164
    2          6           -.024453663     .000000000    -.059028111
    3          1            .025000730     .000000000    -.093549721
    4          6           -.008498013     .000000000    -.048239639
    5          1            .094839720     .000000000     .010625812
    6          6            .013462500     .000000000     .016484307
    7          7            .092764388     .000000000     .156411669
    8          1           -.066533625     .000000000     .064741831
    9          7           -.040585392     .000000000    -.001815983
 -------------------------------------------------------------------
 Cartesian Forces:  Max      .156411669 RMS      .053829186

 GradGradGradGradGradGradGradGradGradGradGradGradGradGradGradGradGradGrad
 Berny optimization.
 Internal  Forces:  Max      .140745906 RMS      .054242140
 Search for a local minimum.
 Step number   1 out of a maximum of  48
 All quantities printed in internal units (Hartrees-Bohrs-Radians)
 Second derivative matrix not updated -- first step.
     Eigenvalues ---     .03204    .03245    .03263    .03273    .03342
     Eigenvalues ---     .03375    .16000    .16000    .16000    .16000
     Eigenvalues ---     .22000    .22938    .49374    .49681    .49740
     Eigenvalues ---     .56490    .56686    .60708    .68179    .73042
     Eigenvalues ---     .827791000.000001000.000001000.000001000.00000
     Eigenvalues --- 1000.000001000.000001000.000001000.000001000.00000
     Eigenvalues --- 1000.000001000.000001000.000001000.000001000.00000
     Eigenvalues --- 1000.000001000.000001000.00000
 RFO step:  Lambda=-1.44973150D-01.
 Linear search not attempted -- first point.
 Maximum step size (    .300) exceeded in Quadratic search.
    -- Step size scaled by    .675
 Iteration  1 RMS(Cart)=   .06375303 RMS(Int)=   .00061078
 Iteration  2 RMS(Cart)=   .00075062 RMS(Int)=   .00001269
 Iteration  3 RMS(Cart)=   .00000041 RMS(Int)=   .00001269
 Variable       Old X    -DE/DX   Delta X   Delta X   Delta X     New X
                                 (Linear)    (Quad)   (Total)
    R1        1.86889    .09695    .00000    .10193    .10193   1.97082
    R2        2.49307    .09527    .00000    .08213    .08215   2.57522
    R3        2.40839    .12890    .00000    .09906    .09905   2.50744
    R4        1.86829    .09679    .00000    .10166    .10166   1.96995
    R5        2.47696    .14075    .00000    .11764    .11765   2.59461
    R6        1.87202    .09481    .00000    .10015    .10015   1.97217
    R7        2.41851    .09286    .00000    .07153    .07152   2.49003
    R8        2.34237    .13823    .00000    .09394    .09391   2.43628
    R9        1.77084    .09230    .00000    .08281    .08281   1.85365
    A1        2.20252    .01316    .00000    .02775    .02775   2.23027
    A2        2.21295   -.00329    .00000   -.00866   -.00867   2.20429
    A3        1.86771   -.00987    .00000   -.01910   -.01908   1.84863
    A4        2.22327   -.00326    .00000   -.00209   -.00211   2.22116
    A5        1.83976    .00097    .00000   -.00810   -.00806   1.83169
    A6        2.22016    .00229    .00000    .01019    .01017   2.23033
    A7        2.19731    .00074    .00000    .00825    .00825   2.20556
    A8        1.89479    .01897    .00000    .02871    .02873   1.92352
    A9        2.19108   -.01970    .00000   -.03697   -.03697   2.15410
   A10        1.88850   -.02639    .00000   -.03914   -.03918   1.84932
   A11        1.93402    .01633    .00000    .03762    .03760   1.97161
   A12        2.17185    .00061    .00000    .00061    .00062   2.17246
   A13        2.17732   -.01694    .00000   -.03822   -.03821   2.13911
    D1         .00000    .00000    .00000    .00000    .00000    .00000
    D2        3.14159    .00000    .00000    .00000    .00000   3.14159
    D3        3.14159    .00000    .00000    .00000    .00000   3.14159
    D4         .00000    .00000    .00000    .00000    .00000    .00000
    D5        3.14159    .00000    .00000    .00000    .00000   3.14159
    D6         .00000    .00000    .00000    .00000    .00000    .00000
    D7         .00000    .00000    .00000    .00000    .00000    .00000
    D8        3.14159    .00000    .00000    .00000    .00000   3.14159
    D9        3.14159    .00000    .00000    .00000    .00000   3.14159
   D10         .00000    .00000    .00000    .00000    .00000    .00000
   D11         .00000    .00000    .00000    .00000    .00000    .00000
   D12        3.14159    .00000    .00000    .00000    .00000   3.14159
   D13         .00000    .00000    .00000    .00000    .00000    .00000
   D14        3.14159    .00000    .00000    .00000    .00000   3.14159
   D15         .00000    .00000    .00000    .00000    .00000    .00000
   D16        3.14159    .00000    .00000    .00000    .00000   3.14159
         Item               Value     Threshold  Converged?
 Maximum Force             .140746      .000450     NO 
 RMS     Force             .054242      .000300     NO 
 Maximum Displacement      .176174      .001800     NO 
 RMS     Displacement      .063704      .001200     NO 
 Predicted change in Energy=-2.647462D-02
 GradGradGradGradGradGradGradGradGradGradGradGradGradGradGradGradGradGrad

                          Input orientation:                          
 ---------------------------------------------------------------------
 Center     Atomic     Atomic              Coordinates (Angstroms)
 Number     Number      Type              X           Y           Z
 ---------------------------------------------------------------------
    1          1             0       -1.807550     .000000   -1.180171
    2          6             0        -.920920     .000000    -.631035
    3          1             0         .657654     .000000   -2.104865
    4          6             0         .356001     .000000   -1.107010
    5          1             0        2.194667     .000000     .030102
    6          6             0        1.151192     .000000     .012289
    7          7             0         .406771     .000000    1.099525
    8          1             0       -1.578592     .000000    1.308984
    9          7             0        -.816253     .000000     .691712
 ---------------------------------------------------------------------
                    Distance matrix (angstroms):
                    1          2          3          4          5
     1  H     .000000
     2  C    1.042911    .000000
     3  H    2.632924   2.159646    .000000
     4  C    2.164788   1.362747   1.042453    .000000
     5  H    4.181208   3.184962   2.630682   2.161877    .000000
     6  C    3.190002   2.169681   2.173917   1.373010   1.043627
     7  N    3.178086   2.181193   3.214196   2.207118   2.083324
     8  H    2.499663   2.048465   4.081073   3.095105   3.984096
     9  N    2.118164   1.326882   3.161209   2.146993   3.082753
                    6          7          8          9
     6  C     .000000
     7  N    1.317667    .000000
     8  H    3.022108   1.996381    .000000
     9  N    2.081455   1.289223    .980910    .000000
 Stoichiometry    C3H4N2
 Framework group  CS[SG(C3H4N2)]
 Deg. of freedom   15
 Full point group                 CS      NOp   2
 Largest Abelian subgroup         CS      NOp   2
 Largest concise Abelian subgroup C1      NOp   1
                         Standard orientation:                         
 ---------------------------------------------------------------------
 Center     Atomic     Atomic              Coordinates (Angstroms)
 Number     Number      Type              X           Y           Z
 ---------------------------------------------------------------------
    1          1             0        2.071951     .628113     .000000
    2          6             0        1.081973     .300076     .000000
    3          1             0        1.200261   -1.856328     .000000
    4          6             0         .628158    -.984888     .000000
    5          1             0       -1.423544   -1.666231     .000000
    6          6             0        -.740613    -.877079     .000000
    7          7             0       -1.097307     .391390     .000000
    8          1             0         .015365    2.048948     .000000
    9          7             0         .000000    1.068158     .000000
 ---------------------------------------------------------------------
 Rotational constants (GHZ):     10.1192947      9.9060090      5.0057580
 Isotopes: H-1,C-12,H-1,C-12,H-1,C-12,N-14,H-1,N-14
 Standard basis: CC-pVDZ (5D, 7F)
 There are    66 symmetry adapted basis functions of A'  symmetry.
 There are    24 symmetry adapted basis functions of A"  symmetry.
 Crude estimate of integral set expansion from redundant integrals=1.000.
 Integral buffers will be    262144 words long.
 Raffenetti 2 integral format.
 Two-electron integral symmetry is turned on.
    90 basis functions      203 primitive gaussians
    18 alpha electrons       18 beta electrons
       nuclear repulsion energy       167.1239505216 Hartrees.
 One-electron integrals computed using PRISM.
 NBasis=    90 RedAO= T  NBF=    66    24
 NBsUse=    90 1.00D-04 NBFU=    66    24
 Initial guess read from the read-write file:
 Initial guess orbital symmetries:
       Occupied  (A') (A') (A') (A') (A') (A') (A') (A') (A') (A')
                 (A') (A') (A") (A') (A') (A") (A') (A")
       Virtual   (A") (A') (A") (A') (A') (A') (A') (A') (A') (A')
                 (A') (A") (A') (A") (A') (A') (A') (A") (A') (A')
                 (A') (A") (A') (A') (A') (A") (A') (A") (A') (A')
                 (A') (A") (A') (A') (A") (A") (A') (A") (A') (A')
                 (A') (A") (A') (A') (A') (A") (A') (A") (A') (A")
                 (A") (A') (A') (A") (A') (A') (A') (A') (A') (A")
                 (A') (A") (A') (A") (A') (A') (A') (A') (A') (A')
                 (A') (A')
 Requested convergence on RMS density matrix=1.00D-08 within  64 cycles.
 Requested convergence on MAX density matrix=1.00D-06.
 Keep R1 and R2 integrals in memory in canonical form, NReq=    21270441.
 Integral accuracy reduced to 1.0D-05 until final iterations.
 Initial convergence to 1.0D-05 achieved.  Increase integral accuracy.
 SCF Done:  E(RB-LYP) =  -226.115183616     A.U. after   14 cycles
             Convg  =     .2294D-08             -V/T =  2.0030
             S**2   =    .0000
 ***** Axes restored to original set *****
 -------------------------------------------------------------------
 Center     Atomic                   Forces (Hartrees/Bohr)
 Number     Number              X              Y              Z
 -------------------------------------------------------------------
    1          1           -.037620340     .000000000    -.014827427
    2          6           -.002848972     .000000000    -.028020199
    3          1            .010403827     .000000000    -.038623341
    4          6           -.001730528     .000000000    -.015404345
    5          1            .039645392     .000000000     .007573862
    6          6            .001433988     .000000000    -.001409960
    7          7            .047681687     .000000000     .068967967
    8          1           -.025127206     .000000000     .028936884
    9          7           -.031837849     .000000000    -.007193441
 -------------------------------------------------------------------
 Cartesian Forces:  Max      .068967967 RMS      .023933615

 GradGradGradGradGradGradGradGradGradGradGradGradGradGradGradGradGradGrad
 Berny optimization.
 Internal  Forces:  Max      .065451189 RMS      .022733604
 Search for a local minimum.
 Step number   2 out of a maximum of  48
 All quantities printed in internal units (Hartrees-Bohrs-Radians)
 Update second derivatives using information from points  1  2
 Trust test= 2.56D+00 RLast= 3.00D-01 DXMaxT set to 4.24D-01
     Eigenvalues ---     .03204    .03247    .03261    .03273    .03342
     Eigenvalues ---     .03375    .15925    .16000    .16000    .16011
     Eigenvalues ---     .22014    .23363    .49455    .49711    .51327
     Eigenvalues ---     .57143    .58360    .61619    .68463    .73653
     Eigenvalues ---     .810701000.000001000.000001000.000001000.00000
     Eigenvalues --- 1000.000001000.000001000.000001000.000001000.00000
     Eigenvalues --- 1000.000001000.000001000.000001000.000001000.00000
     Eigenvalues --- 1000.000001000.000001000.00000
 RFO step:  Lambda=-2.81811686D-03.
 Quartic linear search produced a step of   .97477.
 Iteration  1 RMS(Cart)=   .06862713 RMS(Int)=   .00175802
 Iteration  2 RMS(Cart)=   .00217984 RMS(Int)=   .00006051
 Iteration  3 RMS(Cart)=   .00000469 RMS(Int)=   .00006037
 Iteration  4 RMS(Cart)=   .00000000 RMS(Int)=   .00006037
 Variable       Old X    -DE/DX   Delta X   Delta X   Delta X     New X
                                 (Linear)    (Quad)   (Total)
    R1        1.97082    .03979    .09936    .00294    .10230   2.07311
    R2        2.57522    .03895    .08008   -.00424    .07575   2.65097
    R3        2.50744    .05148    .09655   -.00821    .08827   2.59571
    R4        1.96995    .03998    .09910    .00393    .10302   2.07297
    R5        2.59461    .05420    .11469   -.01704    .09767   2.69228
    R6        1.97217    .03977    .09762    .00647    .10410   2.07626
    R7        2.49003    .03881    .06972   -.00184    .06798   2.55801
    R8        2.43628    .06545    .09154    .01383    .10541   2.54169
    R9        1.85365    .03774    .08072   -.00201    .07871   1.93237
    A1        2.23027    .00815    .02705    .05125    .07839   2.30865
    A2        2.20429   -.00605   -.00845   -.05987   -.06823   2.13606
    A3        1.84863   -.00209   -.01860    .00862   -.01016   1.83847
    A4        2.22116   -.00194   -.00205   -.00134   -.00336   2.21780
    A5        1.83169    .00148   -.00786   -.00586   -.01380   1.81789
    A6        2.23033    .00046    .00991    .00721    .01716   2.24749
    A7        2.20556    .00238    .00804    .03817    .04616   2.25172
    A8        1.92352    .00883    .02800    .01265    .04076   1.96428
    A9        2.15410   -.01121   -.03604   -.05083   -.08692   2.06718
   A10        1.84932   -.01173   -.03819   -.00962   -.04762   1.80170
   A11        1.97161    .00351    .03665   -.00579    .03082   2.00243
   A12        2.17246    .00444    .00060    .04539    .04602   2.21848
   A13        2.13911   -.00795   -.03725   -.03961   -.07683   2.06227
    D1         .00000    .00000    .00000    .00000    .00000    .00000
    D2        3.14159    .00000    .00000    .00000    .00000   3.14159
    D3        3.14159    .00000    .00000    .00000    .00000   3.14159
    D4         .00000    .00000    .00000    .00000    .00000    .00000
    D5        3.14159    .00000    .00000    .00000    .00000   3.14159
    D6         .00000    .00000    .00000    .00000    .00000    .00000
    D7         .00000    .00000    .00000    .00000    .00000    .00000
    D8        3.14159    .00000    .00000    .00000    .00000   3.14159
    D9        3.14159    .00000    .00000    .00000    .00000   3.14159
   D10         .00000    .00000    .00000    .00000    .00000    .00000
   D11         .00000    .00000    .00000    .00000    .00000    .00000
   D12        3.14159    .00000    .00000    .00000    .00000   3.14159
   D13         .00000    .00000    .00000    .00000    .00000    .00000
   D14        3.14159    .00000    .00000    .00000    .00000   3.14159
   D15         .00000    .00000    .00000    .00000    .00000    .00000
   D16        3.14159    .00000    .00000    .00000    .00000   3.14159
         Item               Value     Threshold  Converged?
 Maximum Force             .065451      .000450     NO 
 RMS     Force             .022734      .000300     NO 
 Maximum Displacement      .210076      .001800     NO 
 RMS     Displacement      .068602      .001200     NO 
 Predicted change in Energy=-2.849540D-02
 GradGradGradGradGradGradGradGradGradGradGradGradGradGradGradGradGradGrad

                          Input orientation:                          
 ---------------------------------------------------------------------
 Center     Atomic     Atomic              Coordinates (Angstroms)
 Number     Number      Type              X           Y           Z
 ---------------------------------------------------------------------
    1          1             0       -1.921980     .000000   -1.191394
    2          6             0        -.949875     .000000    -.682947
    3          1             0         .687367     .000000   -2.214605
    4          6             0         .367409     .000000   -1.165333
    5          1             0        2.264597     .000000     .102889
    6          6             0        1.169649     .000000     .012023
    7          7             0         .428743     .000000    1.144897
    8          1             0       -1.596789     .000000    1.368584
    9          7             0        -.835510     .000000     .685875
 ---------------------------------------------------------------------
                    Distance matrix (angstroms):
                    1          2          3          4          5
     1  H     .000000
     2  C    1.097044    .000000
     3  H    2.802793   2.241995    .000000
     4  C    2.289537   1.402831   1.096971    .000000
     5  H    4.382077   3.309134   2.803290   2.282041    .000000
     6  C    3.317587   2.230553   2.278260   1.424695   1.098712
     7  N    3.314235   2.289454   3.369442   2.311044   2.110957
     8  H    2.580550   2.151110   4.249307   3.206058   4.063531
     9  N    2.168998   1.373590   3.275963   2.207710   3.154447
                    6          7          8          9
     6  C     .000000
     7  N    1.353642    .000000
     8  H    3.081142   2.037845    .000000
     9  N    2.115358   1.345005   1.022564    .000000
 Stoichiometry    C3H4N2
 Framework group  CS[SG(C3H4N2)]
 Deg. of freedom   15
 Full point group                 CS      NOp   2
 Largest Abelian subgroup         CS      NOp   2
 Largest concise Abelian subgroup C1      NOp   1
                         Standard orientation:                         
 ---------------------------------------------------------------------
 Center     Atomic     Atomic              Coordinates (Angstroms)
 Number     Number      Type              X           Y           Z
 ---------------------------------------------------------------------
    1          1             0        2.140021     .732357     .000000
    2          6             0        1.129831     .304546     .000000
    3          1             0        1.272770   -1.932888     .000000
    4          6             0         .665628   -1.019256     .000000
    5          1             0       -1.518991   -1.678914     .000000
    6          6             0        -.753280    -.890972     .000000
    7          7             0       -1.157596     .400878     .000000
    8          1             0        -.043699    2.107350     .000000
    9          7             0         .000000    1.085720     .000000
 ---------------------------------------------------------------------
 Rotational constants (GHZ):      9.5280751      9.1604909      4.6703340
 Isotopes: H-1,C-12,H-1,C-12,H-1,C-12,N-14,H-1,N-14
 Standard basis: CC-pVDZ (5D, 7F)
 There are    66 symmetry adapted basis functions of A'  symmetry.
 There are    24 symmetry adapted basis functions of A"  symmetry.
 Crude estimate of integral set expansion from redundant integrals=1.000.
 Integral buffers will be    262144 words long.
 Raffenetti 2 integral format.
 Two-electron integral symmetry is turned on.
    90 basis functions      203 primitive gaussians
    18 alpha electrons       18 beta electrons
       nuclear repulsion energy       161.3315975101 Hartrees.
 One-electron integrals computed using PRISM.
 NBasis=    90 RedAO= T  NBF=    66    24
 NBsUse=    90 1.00D-04 NBFU=    66    24
 Initial guess read from the read-write file:
 Initial guess orbital symmetries:
       Occupied  (A') (A') (A') (A') (A') (A') (A') (A') (A') (A')
                 (A') (A') (A") (A') (A') (A') (A") (A")
       Virtual   (A") (A') (A") (A') (A') (A') (A') (A') (A') (A')
                 (A') (A') (A") (A') (A') (A") (A') (A") (A') (A')
                 (A') (A') (A") (A') (A') (A') (A") (A') (A") (A')
                 (A') (A") (A') (A') (A") (A") (A') (A") (A') (A')
                 (A') (A") (A') (A') (A') (A") (A') (A") (A') (A")
                 (A") (A') (A') (A') (A') (A") (A') (A') (A') (A")
                 (A') (A') (A") (A") (A') (A') (A') (A') (A') (A')
                 (A') (A')
 Requested convergence on RMS density matrix=1.00D-08 within  64 cycles.
 Requested convergence on MAX density matrix=1.00D-06.
 Keep R1 and R2 integrals in memory in canonical form, NReq=    21270441.
 Integral accuracy reduced to 1.0D-05 until final iterations.
 Initial convergence to 1.0D-05 achieved.  Increase integral accuracy.
 SCF Done:  E(RB-LYP) =  -226.134588144     A.U. after   15 cycles
             Convg  =     .2020D-08             -V/T =  2.0070
             S**2   =    .0000
 ***** Axes restored to original set *****
 -------------------------------------------------------------------
 Center     Atomic                   Forces (Hartrees/Bohr)
 Number     Number              X              Y              Z
 -------------------------------------------------------------------
    1          1            .001928801     .000000000     .001705702
    2          6            .004245635     .000000000    -.002668727
    3          1           -.000454844     .000000000     .002754639
    4          6           -.003391350     .000000000     .001207622
    5          1           -.001962835     .000000000    -.001357765
    6          6            .006121181     .000000000     .001348692
    7          7            .011659622     .000000000    -.002596086
    8          1            .000548349     .000000000    -.002116632
    9          7           -.018694560     .000000000     .001722554
 -------------------------------------------------------------------
 Cartesian Forces:  Max      .018694560 RMS      .004703965

 GradGradGradGradGradGradGradGradGradGradGradGradGradGradGradGradGradGrad
 Berny optimization.
 Internal  Forces:  Max      .012694292 RMS      .002770268
 Search for a local minimum.
 Step number   3 out of a maximum of  48
 All quantities printed in internal units (Hartrees-Bohrs-Radians)
 Update second derivatives using information from points  2  3
 Trust test= 6.81D-01 RLast= 3.33D-01 DXMaxT set to 4.24D-01
     Eigenvalues ---     .03203    .03248    .03251    .03273    .03342
     Eigenvalues ---     .03372    .15381    .16000    .16002    .16025
     Eigenvalues ---     .22028    .23442    .45846    .49522    .49713
     Eigenvalues ---     .57438    .58134    .59438    .66425    .68671
     Eigenvalues ---     .809101000.000001000.000001000.000001000.00000
     Eigenvalues --- 1000.000001000.000001000.000001000.000001000.00000
     Eigenvalues --- 1000.000001000.000001000.000001000.000001000.00000
     Eigenvalues --- 1000.000001000.000001000.00000
 RFO step:  Lambda=-6.17099428D-04.
 Quartic linear search produced a step of  -.02212.
 Iteration  1 RMS(Cart)=   .00856668 RMS(Int)=   .00004003
 Iteration  2 RMS(Cart)=   .00004192 RMS(Int)=   .00001181
 Iteration  3 RMS(Cart)=   .00000000 RMS(Int)=   .00001181
 Variable       Old X    -DE/DX   Delta X   Delta X   Delta X     New X
                                 (Linear)    (Quad)   (Total)
    R1        2.07311   -.00250   -.00226   -.00166   -.00393   2.06919
    R2        2.65097   -.00206   -.00168   -.00205   -.00372   2.64725
    R3        2.59571   -.00099   -.00195    .00236    .00043   2.59614
    R4        2.07297   -.00277   -.00228   -.00218   -.00446   2.06852
    R5        2.69228   -.00071   -.00216    .00096   -.00122   2.69107
    R6        2.07626   -.00207   -.00230   -.00084   -.00315   2.07312
    R7        2.55801   -.00093   -.00150    .00131   -.00020   2.55781
    R8        2.54169    .01269   -.00233    .01871    .01639   2.55808
    R9        1.93237   -.00182   -.00174   -.00034   -.00208   1.93028
    A1        2.30865   -.00050   -.00173    .00117   -.00058   2.30808
    A2        2.13606   -.00178    .00151   -.00889   -.00739   2.12867
    A3        1.83847    .00228    .00022    .00772    .00797   1.84644
    A4        2.21780   -.00149    .00007   -.00217   -.00209   2.21572
    A5        1.81789    .00374    .00031    .00853    .00882   1.82671
    A6        2.24749   -.00225   -.00038   -.00636   -.00673   2.24076
    A7        2.25172    .00004   -.00102    .00004   -.00096   2.25076
    A8        1.96428   -.00255   -.00090   -.01288   -.01381   1.95046
    A9        2.06718    .00251    .00192    .01284    .01478   2.08196
   A10        1.80170    .00238    .00105    .01558    .01663   1.81834
   A11        2.00243   -.00584   -.00068   -.01895   -.01960   1.98283
   A12        2.21848    .00175   -.00102    .00339    .00235   2.22083
   A13        2.06227    .00409    .00170    .01556    .01725   2.07952
    D1         .00000    .00000    .00000    .00000    .00000    .00000
    D2        3.14159    .00000    .00000    .00000    .00000   3.14159
    D3        3.14159    .00000    .00000    .00000    .00000   3.14159
    D4         .00000    .00000    .00000    .00000    .00000    .00000
    D5        3.14159    .00000    .00000    .00000    .00000   3.14159
    D6         .00000    .00000    .00000    .00000    .00000    .00000
    D7         .00000    .00000    .00000    .00000    .00000    .00000
    D8        3.14159    .00000    .00000    .00000    .00000   3.14159
    D9        3.14159    .00000    .00000    .00000    .00000   3.14159
   D10         .00000    .00000    .00000    .00000    .00000    .00000
   D11         .00000    .00000    .00000    .00000    .00000    .00000
   D12        3.14159    .00000    .00000    .00000    .00000   3.14159
   D13         .00000    .00000    .00000    .00000    .00000    .00000
   D14        3.14159    .00000    .00000    .00000    .00000   3.14159
   D15         .00000    .00000    .00000    .00000    .00000    .00000
   D16        3.14159    .00000    .00000    .00000    .00000   3.14159
         Item               Value     Threshold  Converged?
 Maximum Force             .012694      .000450     NO 
 RMS     Force             .002770      .000300     NO 
 Maximum Displacement      .027632      .001800     NO 
 RMS     Displacement      .008564      .001200     NO 
 Predicted change in Energy=-3.184914D-04
 GradGradGradGradGradGradGradGradGradGradGradGradGradGradGradGradGradGrad

                          Input orientation:                          
 ---------------------------------------------------------------------
 Center     Atomic     Atomic              Coordinates (Angstroms)
 Number     Number      Type              X           Y           Z
 ---------------------------------------------------------------------
    1          1             0       -1.920408     .000000   -1.185645
    2          6             0        -.951074     .000000    -.676388
    3          1             0         .683356     .000000   -2.203738
    4          6             0         .364965     .000000   -1.156454
    5          1             0        2.269749     .000000     .095666
    6          6             0        1.175726     .000000     .014267
    7          7             0         .427818     .000000    1.142401
    8          1             0       -1.614437     .000000    1.370392
    9          7             0        -.849316     .000000     .693656
 ---------------------------------------------------------------------
                    Distance matrix (angstroms):
                    1          2          3          4          5
     1  H     .000000
     2  C    1.094966    .000000
     3  H    2.795729   2.236997    .000000
     4  C    2.285559   1.400864   1.094612    .000000
     5  H    4.381686   3.312063   2.793546   2.279475    .000000
     6  C    3.320517   2.236131   2.271998   1.424051   1.097047
     7  N    3.306654   2.282397   3.355882   2.299714   2.118576
     8  H    2.574285   2.151595   4.249030   3.209826   4.088010
     9  N    2.163102   1.373818   3.277800   2.213003   3.175871
                    6          7          8          9
     6  C     .000000
     7  N    1.353534    .000000
     8  H    3.102271   2.054941    .000000
     9  N    2.135969   1.353677   1.021461    .000000
 Stoichiometry    C3H4N2
 Framework group  CS[SG(C3H4N2)]
 Deg. of freedom   15
 Full point group                 CS      NOp   2
 Largest Abelian subgroup         CS      NOp   2
 Largest concise Abelian subgroup C1      NOp   1
                         Standard orientation:                         
 ---------------------------------------------------------------------
 Center     Atomic     Atomic              Coordinates (Angstroms)
 Number     Number      Type              X           Y           Z
 ---------------------------------------------------------------------
    1          1             0        2.133225     .738117     .000000
    2          6             0        1.125823     .309056     .000000
    3          1             0        1.275863   -1.922904     .000000
    4          6             0         .665739   -1.014100     .000000
    5          1             0       -1.508637   -1.698276     .000000
    6          6             0        -.753902    -.902106     .000000
    7          7             0       -1.155117     .390596     .000000
    8          1             0        -.040596    2.117046     .000000
    9          7             0         .000000    1.096392     .000000
 ---------------------------------------------------------------------
 Rotational constants (GHZ):      9.4167924      9.2307761      4.6614282
 Isotopes: H-1,C-12,H-1,C-12,H-1,C-12,N-14,H-1,N-14
 Standard basis: CC-pVDZ (5D, 7F)
 There are    66 symmetry adapted basis functions of A'  symmetry.
 There are    24 symmetry adapted basis functions of A"  symmetry.
 Crude estimate of integral set expansion from redundant integrals=1.000.
 Integral buffers will be    262144 words long.
 Raffenetti 2 integral format.
 Two-electron integral symmetry is turned on.
    90 basis functions      203 primitive gaussians
    18 alpha electrons       18 beta electrons
       nuclear repulsion energy       161.1658163151 Hartrees.
 One-electron integrals computed using PRISM.
 NBasis=    90 RedAO= T  NBF=    66    24
 NBsUse=    90 1.00D-04 NBFU=    66    24
 Initial guess read from the read-write file:
 Initial guess orbital symmetries:
       Occupied  (A') (A') (A') (A') (A') (A') (A') (A') (A') (A')
                 (A') (A') (A") (A') (A') (A') (A") (A")
       Virtual   (A") (A') (A") (A') (A') (A') (A') (A') (A') (A')
                 (A') (A') (A') (A') (A") (A') (A") (A') (A") (A')
                 (A') (A') (A") (A') (A') (A') (A") (A') (A") (A')
                 (A') (A") (A') (A") (A') (A") (A') (A") (A') (A')
                 (A') (A") (A') (A') (A') (A") (A') (A") (A') (A')
                 (A") (A') (A") (A') (A') (A") (A') (A') (A") (A')
                 (A') (A') (A") (A') (A") (A') (A') (A') (A') (A')
                 (A') (A')
 Requested convergence on RMS density matrix=1.00D-08 within  64 cycles.
 Requested convergence on MAX density matrix=1.00D-06.
 Keep R1 and R2 integrals in memory in canonical form, NReq=    21270441.
 Integral accuracy reduced to 1.0D-05 until final iterations.
 Initial convergence to 1.0D-05 achieved.  Increase integral accuracy.
 SCF Done:  E(RB-LYP) =  -226.134886747     A.U. after   12 cycles
             Convg  =     .7832D-08             -V/T =  2.0070
             S**2   =    .0000
 ***** Axes restored to original set *****
 -------------------------------------------------------------------
 Center     Atomic                   Forces (Hartrees/Bohr)
 Number     Number              X              Y              Z
 -------------------------------------------------------------------
    1          1            .000840458     .000000000     .000344571
    2          6            .002390656     .000000000    -.002047684
    3          1           -.000375145     .000000000     .000876878
    4          6           -.002685096     .000000000    -.000534018
    5          1           -.001340946     .000000000    -.000056880
    6          6           -.003319248     .000000000     .001812789
    7          7            .008425669     .000000000     .003509410
    8          1            .001366307     .000000000    -.000643672
    9          7           -.005302656     .000000000    -.003261395
 -------------------------------------------------------------------
 Cartesian Forces:  Max      .008425669 RMS      .002431177

 GradGradGradGradGradGradGradGradGradGradGradGradGradGradGradGradGradGrad
 Berny optimization.
 Internal  Forces:  Max      .005515634 RMS      .001513593
 Search for a local minimum.
 Step number   4 out of a maximum of  48
 All quantities printed in internal units (Hartrees-Bohrs-Radians)
 Update second derivatives using information from points  2  3  4
 Trust test= 9.38D-01 RLast= 4.42D-02 DXMaxT set to 4.24D-01
     Eigenvalues ---     .03203    .03248    .03250    .03273    .03342
     Eigenvalues ---     .03373    .15357    .15828    .16002    .16072
     Eigenvalues ---     .21907    .33345    .45954    .47680    .49652
     Eigenvalues ---     .49816    .57836    .60064    .61391    .72207
     Eigenvalues ---     .739681000.000001000.000001000.000001000.00000
     Eigenvalues --- 1000.000001000.000001000.000001000.000001000.00000
     Eigenvalues --- 1000.000001000.000001000.000001000.000001000.00000
     Eigenvalues --- 1000.000001000.000001000.00000
 RFO step:  Lambda=-1.69704130D-04.
 Quartic linear search produced a step of  -.04952.
 Iteration  1 RMS(Cart)=   .00307860 RMS(Int)=   .00000785
 Iteration  2 RMS(Cart)=   .00000849 RMS(Int)=   .00000399
 Iteration  3 RMS(Cart)=   .00000000 RMS(Int)=   .00000399
 Variable       Old X    -DE/DX   Delta X   Delta X   Delta X     New X
                                 (Linear)    (Quad)   (Total)
    R1        2.06919   -.00090    .00019   -.00245   -.00226   2.06693
    R2        2.64725   -.00412    .00018   -.00763   -.00745   2.63980
    R3        2.59614    .00004   -.00002    .00100    .00097   2.59711
    R4        2.06852   -.00095    .00022   -.00270   -.00248   2.06604
    R5        2.69107    .00071    .00006    .00051    .00057   2.69164
    R6        2.07312   -.00134    .00016   -.00304   -.00289   2.07023
    R7        2.55781   -.00251    .00001   -.00295   -.00293   2.55487
    R8        2.55808    .00552   -.00081    .01242    .01161   2.56969
    R9        1.93028   -.00145    .00010   -.00254   -.00243   1.92785
    A1        2.30808    .00001    .00003    .00058    .00062   2.30869
    A2        2.12867    .00018    .00037   -.00147   -.00110   2.12757
    A3        1.84644   -.00019   -.00039    .00089    .00048   1.84692
    A4        2.21572   -.00027    .00010   -.00022   -.00012   2.21560
    A5        1.82671    .00032   -.00044    .00049    .00005   1.82676
    A6        2.24076   -.00005    .00033   -.00027    .00006   2.24082
    A7        2.25076   -.00131    .00005   -.00462   -.00458   2.24618
    A8        1.95046    .00270    .00068    .00544    .00613   1.95659
    A9        2.08196   -.00139   -.00073   -.00082   -.00155   2.08041
   A10        1.81834   -.00378   -.00082   -.00713   -.00795   1.81039
   A11        1.98283    .00096    .00097    .00032    .00128   1.98411
   A12        2.22083   -.00007   -.00012    .00025    .00014   2.22097
   A13        2.07952   -.00089   -.00085   -.00057   -.00142   2.07811
    D1         .00000    .00000    .00000    .00000    .00000    .00000
    D2        3.14159    .00000    .00000    .00000    .00000   3.14159
    D3        3.14159    .00000    .00000    .00000    .00000   3.14159
    D4         .00000    .00000    .00000    .00000    .00000    .00000
    D5        3.14159    .00000    .00000    .00000    .00000   3.14159
    D6         .00000    .00000    .00000    .00000    .00000    .00000
    D7         .00000    .00000    .00000    .00000    .00000    .00000
    D8        3.14159    .00000    .00000    .00000    .00000   3.14159
    D9        3.14159    .00000    .00000    .00000    .00000   3.14159
   D10         .00000    .00000    .00000    .00000    .00000    .00000
   D11         .00000    .00000    .00000    .00000    .00000    .00000
   D12        3.14159    .00000    .00000    .00000    .00000   3.14159
   D13         .00000    .00000    .00000    .00000    .00000    .00000
   D14        3.14159    .00000    .00000    .00000    .00000   3.14159
   D15         .00000    .00000    .00000    .00000    .00000    .00000
   D16        3.14159    .00000    .00000    .00000    .00000   3.14159
         Item               Value     Threshold  Converged?
 Maximum Force             .005516      .000450     NO 
 RMS     Force             .001514      .000300     NO 
 Maximum Displacement      .008923      .001800     NO 
 RMS     Displacement      .003079      .001200     NO 
 Predicted change in Energy=-8.563078D-05
 GradGradGradGradGradGradGradGradGradGradGradGradGradGradGradGradGradGrad

                          Input orientation:                          
 ---------------------------------------------------------------------
 Center     Atomic     Atomic              Coordinates (Angstroms)
 Number     Number      Type              X           Y           Z
 ---------------------------------------------------------------------
    1          1             0       -1.917890     .000000   -1.187123
    2          6             0        -.949643     .000000    -.678365
    3          1             0         .681611     .000000   -2.202042
    4          6             0         .363017     .000000   -1.156192
    5          1             0        2.266034     .000000     .092249
    6          6             0        1.173221     .000000     .015284
    7          7             0         .432387     .000000    1.146221
    8          1             0       -1.614287     .000000    1.367409
    9          7             0        -.849439     .000000     .692310
 ---------------------------------------------------------------------
                    Distance matrix (angstroms):
                    1          2          3          4          5
     1  H     .000000
     2  C    1.093772    .000000
     3  H    2.790604   2.232170    .000000
     4  C    2.281117   1.396924   1.093300    .000000
     5  H    4.375159   3.306724   2.788219   2.275978    .000000
     6  C    3.316738   2.233317   2.271170   1.424355   1.095519
     7  N    3.311842   2.288913   3.357526   2.303458   2.114975
     8  H    2.572509   2.151032   4.244070   3.205978   4.084473
     9  N    2.161910   1.374332   3.274353   2.210658   3.172734
                    6          7          8          9
     6  C     .000000
     7  N    1.351982    .000000
     8  H    3.098136   2.058592    .000000
     9  N    2.132959   1.359821   1.020173    .000000
 Stoichiometry    C3H4N2
 Framework group  CS[SG(C3H4N2)]
 Deg. of freedom   15
 Full point group                 CS      NOp   2
 Largest Abelian subgroup         CS      NOp   2
 Largest concise Abelian subgroup C1      NOp   1
                         Standard orientation:                         
 ---------------------------------------------------------------------
 Center     Atomic     Atomic              Coordinates (Angstroms)
 Number     Number      Type              X           Y           Z
 ---------------------------------------------------------------------
    1          1             0        2.132133     .738151     .000000
    2          6             0        1.126372     .308286     .000000
    3          1             0        1.278520   -1.918693     .000000
    4          6             0         .668435   -1.011444     .000000
    5          1             0       -1.501065   -1.699448     .000000
    6          6             0        -.751587    -.900420     .000000
    7          7             0       -1.161151     .388033     .000000
    8          1             0        -.040848    2.115089     .000000
    9          7             0         .000000    1.095734     .000000
 ---------------------------------------------------------------------
 Rotational constants (GHZ):      9.4442138      9.2020306      4.6607747
 Isotopes: H-1,C-12,H-1,C-12,H-1,C-12,N-14,H-1,N-14
 Standard basis: CC-pVDZ (5D, 7F)
 There are    66 symmetry adapted basis functions of A'  symmetry.
 There are    24 symmetry adapted basis functions of A"  symmetry.
 Crude estimate of integral set expansion from redundant integrals=1.000.
 Integral buffers will be    262144 words long.
 Raffenetti 2 integral format.
 Two-electron integral symmetry is turned on.
    90 basis functions      203 primitive gaussians
    18 alpha electrons       18 beta electrons
       nuclear repulsion energy       161.1515408823 Hartrees.
 One-electron integrals computed using PRISM.
 NBasis=    90 RedAO= T  NBF=    66    24
 NBsUse=    90 1.00D-04 NBFU=    66    24
 Initial guess read from the read-write file:
 Initial guess orbital symmetries:
       Occupied  (A') (A') (A') (A') (A') (A') (A') (A') (A') (A')
                 (A') (A') (A") (A') (A') (A') (A") (A")
       Virtual   (A") (A') (A") (A') (A') (A') (A') (A') (A') (A')
                 (A') (A') (A') (A') (A") (A') (A") (A') (A") (A')
                 (A') (A') (A") (A') (A') (A') (A") (A') (A") (A')
                 (A') (A") (A') (A') (A") (A") (A') (A") (A') (A')
                 (A') (A") (A') (A') (A') (A") (A') (A") (A') (A')
                 (A") (A') (A") (A') (A') (A") (A') (A') (A") (A')
                 (A') (A') (A") (A') (A") (A') (A') (A') (A') (A')
                 (A') (A')
 Requested convergence on RMS density matrix=1.00D-08 within  64 cycles.
 Requested convergence on MAX density matrix=1.00D-06.
 Keep R1 and R2 integrals in memory in canonical form, NReq=    21270441.
 SCF Done:  E(RB-LYP) =  -226.134999302     A.U. after   10 cycles
             Convg  =     .3018D-08             -V/T =  2.0070
             S**2   =    .0000
 ***** Axes restored to original set *****
 -------------------------------------------------------------------
 Center     Atomic                   Forces (Hartrees/Bohr)
 Number     Number              X              Y              Z
 -------------------------------------------------------------------
    1          1            .000103911     .000000000     .000009175
    2          6            .000981215     .000000000     .000481668
    3          1            .000053531     .000000000     .000119397
    4          6           -.000565886     .000000000    -.000619929
    5          1           -.000164290     .000000000     .000029955
    6          6           -.001610720     .000000000     .001166950
    7          7            .003522126     .000000000     .000593386
    8          1            .000580530     .000000000     .000019700
    9          7           -.002900417     .000000000    -.001800302
 -------------------------------------------------------------------
 Cartesian Forces:  Max      .003522126 RMS      .001065621

 GradGradGradGradGradGradGradGradGradGradGradGradGradGradGradGradGradGrad
 Berny optimization.
 Internal  Forces:  Max      .002317922 RMS      .000535319
 Search for a local minimum.
 Step number   5 out of a maximum of  48
 All quantities printed in internal units (Hartrees-Bohrs-Radians)
 Update second derivatives using information from points  2  3  4  5
 Trust test= 1.31D+00 RLast= 1.88D-02 DXMaxT set to 4.24D-01
     Eigenvalues ---     .03203    .03248    .03250    .03273    .03342
     Eigenvalues ---     .03373    .15258    .15499    .16019    .16308
     Eigenvalues ---     .20458    .34061    .35830    .46392    .49579
     Eigenvalues ---     .49719    .57807    .59873    .61455    .70308
     Eigenvalues ---     .741421000.000001000.000001000.000001000.00000
     Eigenvalues --- 1000.000001000.000001000.000001000.000001000.00000
     Eigenvalues --- 1000.000001000.000001000.000001000.000001000.00000
     Eigenvalues --- 1000.000001000.000001000.00000
 RFO step:  Lambda=-1.10755535D-05.
 Quartic linear search produced a step of   .46956.
 Iteration  1 RMS(Cart)=   .00142503 RMS(Int)=   .00000290
 Iteration  2 RMS(Cart)=   .00000218 RMS(Int)=   .00000213
 Iteration  3 RMS(Cart)=   .00000000 RMS(Int)=   .00000213
 Variable       Old X    -DE/DX   Delta X   Delta X   Delta X     New X
                                 (Linear)    (Quad)   (Total)
    R1        2.06693   -.00010   -.00106    .00049   -.00057   2.06636
    R2        2.63980   -.00075   -.00350    .00072   -.00278   2.63702
    R3        2.59711   -.00056    .00046   -.00087   -.00042   2.59669
    R4        2.06604   -.00010   -.00116    .00050   -.00066   2.06537
    R5        2.69164    .00029    .00027    .00036    .00063   2.69227
    R6        2.07023   -.00016   -.00136    .00066   -.00070   2.06953
    R7        2.55487   -.00137   -.00138   -.00141   -.00278   2.55210
    R8        2.56969    .00232    .00545    .00237    .00782   2.57751
    R9        1.92785   -.00042   -.00114   -.00004   -.00118   1.92666
    A1        2.30869   -.00013    .00029   -.00090   -.00061   2.30809
    A2        2.12757   -.00005   -.00052   -.00110   -.00161   2.12595
    A3        1.84692    .00018    .00023    .00200    .00222   1.84915
    A4        2.21560    .00015   -.00006    .00186    .00181   2.21741
    A5        1.82676   -.00014    .00003   -.00150   -.00148   1.82529
    A6        2.24082   -.00002    .00003   -.00036   -.00033   2.24049
    A7        2.24618   -.00041   -.00215   -.00030   -.00245   2.24373
    A8        1.95659    .00090    .00288    .00088    .00376   1.96036
    A9        2.08041   -.00049   -.00073   -.00058   -.00131   2.07910
   A10        1.81039   -.00092   -.00373    .00062   -.00311   1.80728
   A11        1.98411   -.00003    .00060   -.00200   -.00140   1.98271
   A12        2.22097    .00040    .00006    .00356    .00363   2.22460
   A13        2.07811   -.00037   -.00066   -.00156   -.00223   2.07588
    D1         .00000    .00000    .00000    .00000    .00000    .00000
    D2        3.14159    .00000    .00000    .00000    .00000   3.14159
    D3        3.14159    .00000    .00000    .00000    .00000   3.14159
    D4         .00000    .00000    .00000    .00000    .00000    .00000
    D5        3.14159    .00000    .00000    .00000    .00000   3.14159
    D6         .00000    .00000    .00000    .00000    .00000    .00000
    D7         .00000    .00000    .00000    .00000    .00000    .00000
    D8        3.14159    .00000    .00000    .00000    .00000   3.14159
    D9        3.14159    .00000    .00000    .00000    .00000   3.14159
   D10         .00000    .00000    .00000    .00000    .00000    .00000
   D11         .00000    .00000    .00000    .00000    .00000    .00000
   D12        3.14159    .00000    .00000    .00000    .00000   3.14159
   D13         .00000    .00000    .00000    .00000    .00000    .00000
   D14        3.14159    .00000    .00000    .00000    .00000   3.14159
   D15         .00000    .00000    .00000    .00000    .00000    .00000
   D16        3.14159    .00000    .00000    .00000    .00000   3.14159
         Item               Value     Threshold  Converged?
 Maximum Force             .002318      .000450     NO 
 RMS     Force             .000535      .000300     NO 
 Maximum Displacement      .004415      .001800     NO 
 RMS     Displacement      .001425      .001200     NO 
 Predicted change in Energy=-1.845291D-05
 GradGradGradGradGradGradGradGradGradGradGradGradGradGradGradGradGradGrad

                          Input orientation:                          
 ---------------------------------------------------------------------
 Center     Atomic     Atomic              Coordinates (Angstroms)
 Number     Number      Type              X           Y           Z
 ---------------------------------------------------------------------
    1          1             0       -1.917035     .000000   -1.188154
    2          6             0        -.949112     .000000    -.679426
    3          1             0         .681797     .000000   -2.202491
    4          6             0         .361930     .000000   -1.157396
    5          1             0        2.263727     .000000     .090482
    6          6             0        1.171172     .000000     .015150
    7          7             0         .434288     .000000    1.146910
    8          1             0       -1.614385     .000000    1.367335
    9          7             0        -.851291     .000000     .691198
 ---------------------------------------------------------------------
                    Distance matrix (angstroms):
                    1          2          3          4          5
     1  H     .000000
     2  C    1.093471    .000000
     3  H    2.789768   2.231500    .000000
     4  C    2.279173   1.395453   1.092949    .000000
     5  H    4.371919   3.303800   2.785718   2.274649    .000000
     6  C    3.314356   2.231151   2.270995   1.424688   1.095150
     7  N    3.313796   2.291135   3.358534   2.305442   2.112555
     8  H    2.573349   2.152166   4.244539   3.206258   4.082905
     9  N    2.160504   1.374110   3.274720   2.211155   3.172412
                    6          7          8          9
     6  C     .000000
     7  N    1.350511    .000000
     8  H    3.096406   2.060498    .000000
     9  N    2.132462   1.363960   1.019546    .000000
 Stoichiometry    C3H4N2
 Framework group  CS[SG(C3H4N2)]
 Deg. of freedom   15
 Full point group                 CS      NOp   2
 Largest Abelian subgroup         CS      NOp   2
 Largest concise Abelian subgroup C1      NOp   1
                         Standard orientation:                         
 ---------------------------------------------------------------------
 Center     Atomic     Atomic              Coordinates (Angstroms)
 Number     Number      Type              X           Y           Z
 ---------------------------------------------------------------------
    1          1             0        2.130784     .739354     .000000
    2          6             0        1.125759     .308537     .000000
    3          1             0        1.280278   -1.917607     .000000
    4          6             0         .670510   -1.010568     .000000
    5          1             0       -1.496971   -1.700538     .000000
    6          6             0        -.749865    -.899797     .000000
    7          7             0       -1.164079     .385624     .000000
    8          1             0        -.043963    2.115072     .000000
    9          7             0         .000000    1.096474     .000000
 ---------------------------------------------------------------------
 Rotational constants (GHZ):      9.4514548      9.1897121      4.6593729
 Isotopes: H-1,C-12,H-1,C-12,H-1,C-12,N-14,H-1,N-14
 Standard basis: CC-pVDZ (5D, 7F)
 There are    66 symmetry adapted basis functions of A'  symmetry.
 There are    24 symmetry adapted basis functions of A"  symmetry.
 Crude estimate of integral set expansion from redundant integrals=1.000.
 Integral buffers will be    262144 words long.
 Raffenetti 2 integral format.
 Two-electron integral symmetry is turned on.
    90 basis functions      203 primitive gaussians
    18 alpha electrons       18 beta electrons
       nuclear repulsion energy       161.1256463233 Hartrees.
 One-electron integrals computed using PRISM.
 NBasis=    90 RedAO= T  NBF=    66    24
 NBsUse=    90 1.00D-04 NBFU=    66    24
 Initial guess read from the read-write file:
 Initial guess orbital symmetries:
       Occupied  (A') (A') (A') (A') (A') (A') (A') (A') (A') (A')
                 (A') (A') (A") (A') (A') (A') (A") (A")
       Virtual   (A") (A') (A") (A') (A') (A') (A') (A') (A') (A')
                 (A') (A') (A') (A") (A') (A') (A") (A') (A") (A')
                 (A') (A') (A") (A') (A') (A') (A") (A') (A") (A')
                 (A') (A") (A') (A') (A") (A") (A') (A") (A') (A')
                 (A') (A") (A') (A') (A') (A") (A') (A") (A') (A')
                 (A") (A') (A") (A') (A') (A") (A') (A') (A") (A')
                 (A') (A') (A") (A') (A") (A') (A') (A') (A') (A')
                 (A') (A')
 Requested convergence on RMS density matrix=1.00D-08 within  64 cycles.
 Requested convergence on MAX density matrix=1.00D-06.
 Keep R1 and R2 integrals in memory in canonical form, NReq=    21270441.
 SCF Done:  E(RB-LYP) =  -226.135018966     A.U. after    9 cycles
             Convg  =     .4374D-08             -V/T =  2.0070
             S**2   =    .0000
 ***** Axes restored to original set *****
 -------------------------------------------------------------------
 Center     Atomic                   Forces (Hartrees/Bohr)
 Number     Number              X              Y              Z
 -------------------------------------------------------------------
    1          1           -.000110122     .000000000    -.000138868
    2          6           -.000237635     .000000000     .000931260
    3          1            .000066568     .000000000    -.000068380
    4          6            .000195831     .000000000    -.000185356
    5          1            .000195111     .000000000     .000036124
    6          6           -.000354295     .000000000     .000527066
    7          7            .000546070     .000000000    -.000295075
    8          1            .000072119     .000000000     .000110829
    9          7           -.000373646     .000000000    -.000917599
 -------------------------------------------------------------------
 Cartesian Forces:  Max      .000931260 RMS      .000325689

 GradGradGradGradGradGradGradGradGradGradGradGradGradGradGradGradGradGrad
 Berny optimization.
 Internal  Forces:  Max      .000632539 RMS      .000169759
 Search for a local minimum.
 Step number   6 out of a maximum of  48
 All quantities printed in internal units (Hartrees-Bohrs-Radians)
 Update second derivatives using information from points  2  3  4  5  6

 Trust test= 1.07D+00 RLast= 1.20D-02 DXMaxT set to 4.24D-01
     Eigenvalues ---     .03203    .03248    .03250    .03273    .03342
     Eigenvalues ---     .03373    .14703    .15441    .16015    .16138
     Eigenvalues ---     .20980    .33531    .33896    .46585    .49589
     Eigenvalues ---     .49768    .57773    .59665    .61727    .68911
     Eigenvalues ---     .757961000.000001000.000001000.000001000.00000
     Eigenvalues --- 1000.000001000.000001000.000001000.000001000.00000
     Eigenvalues --- 1000.000001000.000001000.000001000.000001000.00000
     Eigenvalues --- 1000.000001000.000001000.00000
 RFO step:  Lambda=-1.79583223D-06.
 Quartic linear search produced a step of   .09707.
 Iteration  1 RMS(Cart)=   .00033182 RMS(Int)=   .00000018
 Iteration  2 RMS(Cart)=   .00000016 RMS(Int)=   .00000005
 Variable       Old X    -DE/DX   Delta X   Delta X   Delta X     New X
                                 (Linear)    (Quad)   (Total)
    R1        2.06636    .00016   -.00006    .00034    .00028   2.06664
    R2        2.63702    .00038   -.00027    .00066    .00039   2.63741
    R3        2.59669   -.00063   -.00004   -.00085   -.00089   2.59581
    R4        2.06537    .00009   -.00006    .00017    .00010   2.06548
    R5        2.69227    .00013    .00006    .00024    .00031   2.69257
    R6        2.06953    .00020   -.00007    .00041    .00034   2.06988
    R7        2.55210   -.00052   -.00027   -.00068   -.00095   2.55114
    R8        2.57751    .00034    .00076    .00038    .00114   2.57865
    R9        1.92666    .00002   -.00011    .00005   -.00007   1.92660
    A1        2.30809   -.00004   -.00006   -.00028   -.00034   2.30775
    A2        2.12595    .00010   -.00016    .00056    .00040   2.12636
    A3        1.84915   -.00006    .00022   -.00028   -.00006   1.84908
    A4        2.21741    .00006    .00018    .00018    .00035   2.21776
    A5        1.82529   -.00005   -.00014    .00010   -.00004   1.82524
    A6        2.24049   -.00002   -.00003   -.00028   -.00031   2.24018
    A7        2.24373    .00004   -.00024    .00022   -.00001   2.24371
    A8        1.96036   -.00004    .00037   -.00023    .00014   1.96050
    A9        2.07910    .00000   -.00013    .00000   -.00012   2.07897
   A10        1.80728    .00008   -.00030    .00019   -.00011   1.80717
   A11        1.98271    .00007   -.00014    .00021    .00008   1.98278
   A12        2.22460    .00010    .00035    .00062    .00098   2.22557
   A13        2.07588   -.00016   -.00022   -.00084   -.00105   2.07483
    D1         .00000    .00000    .00000    .00000    .00000    .00000
    D2        3.14159    .00000    .00000    .00000    .00000   3.14159
    D3        3.14159    .00000    .00000    .00000    .00000   3.14159
    D4         .00000    .00000    .00000    .00000    .00000    .00000
    D5        3.14159    .00000    .00000    .00000    .00000   3.14159
    D6         .00000    .00000    .00000    .00000    .00000    .00000
    D7         .00000    .00000    .00000    .00000    .00000    .00000
    D8        3.14159    .00000    .00000    .00000    .00000   3.14159
    D9        3.14159    .00000    .00000    .00000    .00000   3.14159
   D10         .00000    .00000    .00000    .00000    .00000    .00000
   D11         .00000    .00000    .00000    .00000    .00000    .00000
   D12        3.14159    .00000    .00000    .00000    .00000   3.14159
   D13         .00000    .00000    .00000    .00000    .00000    .00000
   D14        3.14159    .00000    .00000    .00000    .00000   3.14159
   D15         .00000    .00000    .00000    .00000    .00000    .00000
   D16        3.14159    .00000    .00000    .00000    .00000   3.14159
         Item               Value     Threshold  Converged?
 Maximum Force             .000633      .000450     NO 
 RMS     Force             .000170      .000300     YES
 Maximum Displacement      .000871      .001800     YES
 RMS     Displacement      .000332      .001200     YES
 Predicted change in Energy=-1.054855D-06
 GradGradGradGradGradGradGradGradGradGradGradGradGradGradGradGradGradGrad

                          Input orientation:                          
 ---------------------------------------------------------------------
 Center     Atomic     Atomic              Coordinates (Angstroms)
 Number     Number      Type              X           Y           Z
 ---------------------------------------------------------------------
    1          1             0       -1.917290     .000000   -1.188585
    2          6             0        -.949408     .000000    -.679459
    3          1             0         .682076     .000000   -2.202533
    4          6             0         .361825     .000000   -1.157500
    5          1             0        2.263843     .000000     .090588
    6          6             0        1.171109     .000000     .015213
    7          7             0         .434610     .000000    1.146622
    8          1             0       -1.613898     .000000    1.367598
    9          7             0        -.851532     .000000     .690691
 ---------------------------------------------------------------------
                    Distance matrix (angstroms):
                    1          2          3          4          5
     1  H     .000000
     2  C    1.093620    .000000
     3  H    2.790124   2.231927    .000000
     4  C    2.279327   1.395656   1.093002    .000000
     5  H    4.372432   3.304233   2.785748   2.274950    .000000
     6  C    3.314715   2.231403   2.271024   1.424849   1.095331
     7  N    3.314306   2.291305   3.358285   2.305272   2.112179
     8  H    2.574124   2.152205   4.244682   3.206181   4.082601
     9  N    2.160444   1.373641   3.274553   2.210893   3.172647
                    6          7          8          9
     6  C     .000000
     7  N    1.350006    .000000
     8  H    3.095998   2.060392    .000000
     9  N    2.132451   1.364564   1.019511    .000000
 Stoichiometry    C3H4N2
 Framework group  CS[SG(C3H4N2)]
 Deg. of freedom   15
 Full point group                 CS      NOp   2
 Largest Abelian subgroup         CS      NOp   2
 Largest concise Abelian subgroup C1      NOp   1
                         Standard orientation:                         
 ---------------------------------------------------------------------
 Center     Atomic     Atomic              Coordinates (Angstroms)
 Number     Number      Type              X           Y           Z
[...]
 Depolar     --      .0000                  .0000                  .0000
 Atom AN      X      Y      Z        X      Y      Z        X      Y      Z
   1   1      .74    .32    .00     -.52   -.23    .00      .02    .00    .00
   2   6     -.07   -.03    .00      .05    .03    .00      .00    .00    .00
   3   1     -.29    .43    .00     -.44    .65    .00      .00    .00    .00
   4   6      .03   -.03    .00      .04   -.06    .00      .00    .00    .00
   5   1      .19    .20    .00      .15    .15    .00      .00    .00    .00
   6   6     -.02   -.02    .00     -.02   -.01    .00      .00    .00    .00
   7   7      .00    .00    .00      .00    .00    .00      .00    .00    .00
   8   1      .00   -.01    .00      .00    .02    .00     -.05   1.00    .00
   9   7      .00    .00    .00      .00    .00    .00      .01   -.08    .00

 -------------------
 - Thermochemistry -
 -------------------
 Temperature   298.150 Kelvin.  Pressure   1.00000 Atm.
 Atom  1 has atomic number  1 and mass   1.00783
 Atom  2 has atomic number  6 and mass  12.00000
 Atom  3 has atomic number  1 and mass   1.00783
 Atom  4 has atomic number  6 and mass  12.00000
 Atom  5 has atomic number  1 and mass   1.00783
 Atom  6 has atomic number  6 and mass  12.00000
 Atom  7 has atomic number  7 and mass  14.00307
 Atom  8 has atomic number  1 and mass   1.00783
 Atom  9 has atomic number  7 and mass  14.00307
 Molecular mass:    68.03745 amu.
 Principal axes and moments of inertia in atomic units:
                           1         2         3
     EIGENVALUES --   190.96585 196.37391 387.33977
           X             .92585    .37788    .00000
           Y            -.37788    .92585    .00000
           Z             .00000    .00000   1.00000
 THIS MOLECULE IS AN ASYMMETRIC TOP.
 ROTATIONAL SYMMETRY NUMBER  1.
 ROTATIONAL TEMPERATURES (KELVIN)       .45355      .44106      .22361
 ROTATIONAL CONSTANTS (GHZ)            9.45060     9.19033     4.65932
 Zero-point vibrational energy     179831.7 (Joules/Mol)
                                   42.98082 (Kcal/Mol)
 WARNING-- EXPLICIT CONSIDERATION OF   2 DEGREES OF FREEDOM AS
           VIBRATIONS MAY CAUSE SIGNIFICANT ERROR
 VIBRATIONAL TEMPERATURES:    701.67   885.61   962.81  1035.36  1148.08
          (KELVIN)           1225.02  1277.14  1296.17  1437.54  1456.45
                             1581.61  1625.43  1754.15  1898.35  1981.40
                             2043.52  2162.55  4542.74  4565.07  4592.51
                             5084.16
 
 Zero-point correction=                            .068494 (Hartree/Particle)
 Thermal correction to Energy=                     .072362
 Thermal correction to Enthalpy=                   .073306
 Thermal correction to Gibbs Free Energy=          .042148
 Sum of electronic and zero-point Energies=           -226.066526
 Sum of electronic and thermal Energies=              -226.062659
 Sum of electronic and thermal Enthalpies=            -226.061714
 Sum of electronic and thermal Free Energies=         -226.092872
 
                     E (Thermal)             CV                S
                      KCAL/MOL        CAL/MOL-KELVIN    CAL/MOL-KELVIN
 TOTAL                   45.408             14.057             65.577
 ELECTRONIC                .000               .000               .000
 TRANSLATIONAL             .889              2.981             38.570
 ROTATIONAL                .889              2.981             24.189
 VIBRATIONAL             43.630              8.095              2.818
 VIBRATION  1              .844              1.277               .690
 VIBRATION  2              .975               .999               .424
                       Q            LOG10(Q)             LN(Q)
 TOTAL BOT        .410527D-19        -19.386658        -44.639430
 TOTAL V=0        .131315D+13         12.118314         27.903449
 VIB (BOT)        .431364D-31        -31.365156        -72.220940
 VIB (BOT)  1     .340675D+00          -.467660         -1.076827
 VIB (BOT)  2     .238706D+00          -.622137         -1.432524
 VIB (V=0)        .137980D+01           .139816           .321939
 VIB (V=0)  1     .110503D+01           .043373           .099871
 VIB (V=0)  2     .105406D+01           .022865           .052648
 ELECTRONIC       .100000D+01           .000000           .000000
 TRANSLATIONAL    .220588D+08          7.343582         16.909224
 ROTATIONAL       .431435D+05          4.634915         10.672287
 ***** Axes restored to original set *****
 -------------------------------------------------------------------
 Center     Atomic                   Forces (Hartrees/Bohr)
 Number     Number              X              Y              Z
 -------------------------------------------------------------------
    1          1           -.000030908     .000000000    -.000073655
    2          6           -.000109905     .000000000     .000550115
    3          1            .000024369     .000000000    -.000043050
    4          6            .000184790     .000000000    -.000163796
    5          1            .000087716     .000000000     .000003483
    6          6           -.000133829     .000000000     .000167474
    7          7            .000043263     .000000000    -.000134008
    8          1           -.000003120     .000000000     .000054163
    9          7           -.000062376     .000000000    -.000360725
 -------------------------------------------------------------------
 Cartesian Forces:  Max      .000550115 RMS      .000148444

 GradGradGradGradGradGradGradGradGradGradGradGradGradGradGradGradGradGrad
 Berny optimization.
 Internal  Forces:  Max      .000311429 RMS      .000074814
 Search for a local minimum.
 Step number   1 out of a maximum of  48
 All quantities printed in internal units (Hartrees-Bohrs-Radians)
 Second derivative matrix not updated -- analytic derivatives used.
     Eigenvalues ---     .00646    .01063    .01482    .02604    .05541
     Eigenvalues ---     .05878    .08607    .09642    .10220    .11017
     Eigenvalues ---     .20469    .24849    .31575    .34425    .35430
     Eigenvalues ---     .35594    .36778    .39986    .44214    .45389
     Eigenvalues ---     .523361000.000001000.000001000.000001000.00000
     Eigenvalues --- 1000.000001000.000001000.000001000.000001000.00000
     Eigenvalues --- 1000.000001000.000001000.000001000.000001000.00000
     Eigenvalues --- 1000.000001000.000001000.00000
 Angle between quadratic step and forces=  31.82 degrees.
 Linear search not attempted -- first point.
 Iteration  1 RMS(Cart)=   .00019716 RMS(Int)=   .00000007
 Iteration  2 RMS(Cart)=   .00000008 RMS(Int)=   .00000001
 Variable       Old X    -DE/DX   Delta X   Delta X   Delta X     New X
                                 (Linear)    (Quad)   (Total)
    R1        2.06664    .00006    .00000    .00019    .00019   2.06684
    R2        2.63741    .00023    .00000    .00063    .00063   2.63804
    R3        2.59581   -.00031    .00000   -.00096   -.00096   2.59485
    R4        2.06548    .00005    .00000    .00011    .00011   2.06559
    R5        2.69257    .00002    .00000    .00012    .00012   2.69269
    R6        2.06988    .00009    .00000    .00027    .00027   2.07014
    R7        2.55114   -.00012    .00000   -.00030   -.00030   2.55084
    R8        2.57865    .00002    .00000    .00016    .00016   2.57882
    R9        1.92660    .00004    .00000    .00008    .00008   1.92667
    A1        2.30775   -.00007    .00000   -.00083   -.00083   2.30692
    A2        2.12636    .00003    .00000    .00055    .00055   2.12691
    A3        1.84908    .00004    .00000    .00027    .00027   1.84936
    A4        2.21776    .00005    .00000    .00017    .00017   2.21793
    A5        1.82524   -.00009    .00000   -.00042   -.00042   1.82482
    A6        2.24018    .00004    .00000    .00025    .00025   2.24043
    A7        2.24371    .00001    .00000   -.00010   -.00010   2.24361
    A8        1.96050   -.00003    .00000    .00007    .00007   1.96057
    A9        2.07897    .00002    .00000    .00003    .00003   2.07900
   A10        1.80717    .00007    .00000    .00009    .00009   1.80726
   A11        1.98278    .00000    .00000   -.00002   -.00002   1.98277
   A12        2.22557    .00004    .00000    .00045    .00045   2.22602
   A13        2.07483   -.00004    .00000   -.00043   -.00043   2.07439
    D1         .00000    .00000    .00000    .00000    .00000    .00000
    D2        3.14159    .00000    .00000    .00000    .00000   3.14159
    D3        3.14159    .00000    .00000    .00000    .00000   3.14159
    D4         .00000    .00000    .00000    .00000    .00000    .00000
    D5        3.14159    .00000    .00000    .00000    .00000   3.14159
    D6         .00000    .00000    .00000    .00000    .00000    .00000
    D7         .00000    .00000    .00000    .00000    .00000    .00000
    D8        3.14159    .00000    .00000    .00000    .00000   3.14159
    D9        3.14159    .00000    .00000    .00000    .00000   3.14159
   D10         .00000    .00000    .00000    .00000    .00000    .00000
   D11         .00000    .00000    .00000    .00000    .00000    .00000
   D12        3.14159    .00000    .00000    .00000    .00000   3.14159
   D13         .00000    .00000    .00000    .00000    .00000    .00000
   D14        3.14159    .00000    .00000    .00000    .00000   3.14159
   D15         .00000    .00000    .00000    .00000    .00000    .00000
   D16        3.14159    .00000    .00000    .00000    .00000   3.14159
         Item               Value     Threshold  Converged?
 Maximum Force             .000311      .000450     YES
 RMS     Force             .000075      .000300     YES
 Maximum Displacement      .000694      .001800     YES
 RMS     Displacement      .000197      .001200     YES
 Predicted change in Energy=-3.568329D-07
 Optimization completed.
    -- Stationary point found.
                         ----------------------------
                         !   Optimized Parameters   !
                         ! (Angstroms and Degrees)  !
 ------------------------                            -------------------------
 ! Name  Definition              Value          Derivative Info.             !
 -----------------------------------------------------------------------------
 ! R1    R(1,2)                  1.0936         -DE/DX =    0.0001           !
 ! R2    R(2,4)                  1.3957         -DE/DX =    0.0002           !
 ! R3    R(2,9)                  1.3736         -DE/DX =   -0.0003           !
 ! R4    R(3,4)                  1.093          -DE/DX =    0.               !
 ! R5    R(4,6)                  1.4248         -DE/DX =    0.               !
 ! R6    R(5,6)                  1.0953         -DE/DX =    0.0001           !
 ! R7    R(6,7)                  1.35           -DE/DX =   -0.0001           !
 ! R8    R(7,9)                  1.3646         -DE/DX =    0.               !
 ! R9    R(8,9)                  1.0195         -DE/DX =    0.               !
 ! A1    A(1,2,4)              132.2241         -DE/DX =   -0.0001           !
 ! A2    A(1,2,9)              121.8313         -DE/DX =    0.               !
 ! A3    A(4,2,9)              105.9446         -DE/DX =    0.               !
 ! A4    A(2,4,3)              127.0682         -DE/DX =    0.0001           !
 ! A5    A(2,4,6)              104.5788         -DE/DX =   -0.0001           !
 ! A6    A(3,4,6)              128.3529         -DE/DX =    0.               !
 ! A7    A(4,6,5)              128.5553         -DE/DX =    0.               !
 ! A8    A(4,6,7)              112.3282         -DE/DX =    0.               !
 ! A9    A(5,6,7)              119.1165         -DE/DX =    0.               !
 ! A10   A(6,7,9)              103.5432         -DE/DX =    0.0001           !
 ! A11   A(2,9,7)              113.6051         -DE/DX =    0.               !
 ! A12   A(2,9,8)              127.516          -DE/DX =    0.               !
 ! A13   A(7,9,8)              118.8788         -DE/DX =    0.               !
 ! D1    D(1,2,4,3)              0.             -DE/DX =    0.               !
 ! D2    D(1,2,4,6)            180.             -DE/DX =    0.               !
 ! D3    D(9,2,4,3)            180.             -DE/DX =    0.               !
 ! D4    D(9,2,4,6)              0.             -DE/DX =    0.               !
 ! D5    D(1,2,9,7)            180.             -DE/DX =    0.               !
 ! D6    D(1,2,9,8)              0.             -DE/DX =    0.               !
 ! D7    D(4,2,9,7)              0.             -DE/DX =    0.               !
 ! D8    D(4,2,9,8)            180.             -DE/DX =    0.               !
 ! D9    D(2,4,6,5)            180.             -DE/DX =    0.               !
 ! D10   D(2,4,6,7)              0.             -DE/DX =    0.               !
 ! D11   D(3,4,6,5)              0.             -DE/DX =    0.               !
 ! D12   D(3,4,6,7)            180.             -DE/DX =    0.               !
 ! D13   D(4,6,7,9)              0.             -DE/DX =    0.               !
 ! D14   D(5,6,7,9)            180.             -DE/DX =    0.               !
 ! D15   D(6,7,9,2)              0.             -DE/DX =    0.               !
 ! D16   D(6,7,9,8)            180.             -DE/DX =    0.               !
 -----------------------------------------------------------------------------
 GradGradGradGradGradGradGradGradGradGradGradGradGradGradGradGradGradGrad

 1\1\GINC-PECOS\Freq\RBLYP\CC-pVDZ\C3H4N2\RUS\29-Jan-2001\0\\#N GEOM=AL
 LCHECK GUESS=TCHECK RBLYP/CC-PVDZ FREQ\\1H pyrazole C3H4N2 casno=28813
 1\\0,1\H,-1.9172184534,0.,-1.1885232685\C,-0.9493369335,0.,-0.67939708
 68\H,0.6821474323,0.,-2.2024715004\C,0.36189656,0.,-1.1574385983\H,2.2
 639147718,0.,0.0906495451\C,1.171180067,0.,0.0152743973\N,0.4346816378
 ,0.,1.1466836875\H,-1.6138260912,0.,1.367659363\N,-0.8514610408,0.,0.6
 907525393\\Version=IBM-RS6000-G98RevA.7\State=1-A'\HF=-226.1350203\RMS
 D=3.002e-09\RMSF=1.484e-04\Dipole=-0.7825399,0.,-0.3112657\DipoleDeriv
 =-0.0249795,-0.0000284,-0.0523966,-0.0000397,0.1582562,0.0000054,-0.03
 74558,-0.0000482,0.0643186,0.1050321,0.0001036,-0.1147479,0.0001799,-0
 .0942665,-0.0002663,-0.2688249,0.0000333,0.2166672,0.0852883,-0.000044
 ,0.029999,-0.0000664,0.1354157,0.0000322,0.0385875,-0.0000096,-0.04906
 55,-0.1965358,0.0000171,0.0169619,-0.0000126,-0.1800723,-0.0000314,-0.
 0412244,-0.0000484,0.0031621,-0.0589073,0.0000061,-0.0091452,-0.000007
 4,0.1221167,-0.000004,-0.030157,0.0000086,0.0743171,0.1970281,-0.00021
 04,0.1266187,0.000171,-0.0667584,-0.0001624,0.1639532,0.0003756,0.1547
 953,0.0289581,0.0002828,-0.2014839,0.0000131,-0.2157757,0.0001319,-0.0
 899275,-0.0002069,-0.5567698,0.178475,0.0001189,-0.0438323,0.0000223,0
 .2798616,0.0001884,-0.0313896,-0.0000895,0.1930477,-0.3143572,-0.00024
 56,0.2480261,-0.0002602,-0.1387763,0.0001061,0.2964377,-0.0000148,-0.1
 004709\Polar=53.1546451,0.0004166,19.4821353,-0.1620929,-0.0085923,48.
 3096784\PG=CS [SG(C3H4N2)]\NImag=0\\0.28721445,0.00000122,0.01817741,0
 .12754822,0.00000047,0.11344340,-0.28246373,-0.00000267,-0.11035299,0.
 79865608,-0.00000258,-0.02145582,0.00000006,0.00000475,0.10483902,-0.1
 1826210,0.00000079,-0.11082790,0.09123366,-0.00000477,0.58567640,0.000
 38509,0.00000061,-0.00085076,0.00183124,-0.00000103,0.02412968,0.07014
 958,0.00000018,-0.00231594,-0.00000004,0.00000101,-0.00235241,0.000001
 22,-0.00000007,0.02008588,0.00038957,-0.00000119,-0.00009596,-0.003914
 71,0.00000391,-0.00019118,-0.08865187,0.00000080,0.32799128,-0.0057319
 8,-0.00000090,0.00869958,-0.31773844,0.00000277,0.07014291,-0.07655971
 ,-0.00000125,0.08294517,0.57206752,0.00000160,0.00008381,0.00000068,-0
 .00000313,-0.05626562,-0.00000015,0.00000086,-0.02329258,-0.00000193,-
 0.00000077,0.10508016,-0.01472911,-0.00000065,0.01157654,0.09559966,0.
 00000228,-0.12813327,0.08027525,-0.00000122,-0.31540107,-0.11318205,0.
 00000050,0.77480640,-0.00022750,-0.00000051,0.00029208,-0.00066245,-0.
 00000094,-0.00115976,-0.00000185,0.00000202,-0.00035226,-0.00498560,-0
 .00000186,0.00440278,0.34971851,0.00000099,0.00084877,0.00000053,-0.00
 000072,0.00416751,-0.00000061,0.00000013,-0.00176951,-0.00000053,-0.00
 000089,0.00049049,0.00000053,-0.00000054,0.02227667,-0.00103412,-0.000
 00036,0.00105542,-0.00263890,0.00000098,-0.00563545,0.00091748,0.00000
 004,0.00033261,-0.02031455,-0.00000030,0.00639749,0.02012323,0.,0.0508
 6563,-0.00406371,0.00000344,0.00441040,-0.05444977,-0.00000436,-0.0008
 0627,0.01195520,-0.00000039,0.01236489,-0.16465279,0.00000248,-0.10107
 359,-0.33003603,0.00000022,-0.03029522,0.81608400,-0.00000484,0.004468
 66,-0.00000120,0.00000753,0.01041847,-0.00000244,-0.00000159,-0.003069
 33,0.00000482,0.00000423,-0.05941024,0.00000275,0.00000176,-0.02707976
 ,0.00000101,-0.00000592,0.12602208,0.00086687,0.00000016,-0.00247964,-
 0.06462354,-0.00000803,0.02925631,-0.01391537,-0.00000043,-0.00839323,
 -0.06889654,0.00000193,-0.21533116,-0.02410549,0.00000103,-0.05489259,
 0.00310973,-0.00001087,0.55155795,0.00046738,-0.00000122,0.00044694,-0
 .05132174,0.00000049,-0.04946954,-0.00208533,-0.00000193,-0.00106436,0
 .02297147,0.00000108,0.03489499,-0.01322271,0.00000116,0.02580100,-0.1
 5857403,-0.00000296,0.12548503,0.43689130,0.00000213,0.00616676,0.0000
 0009,-0.00000801,0.01520122,0.00000024,0.00000110,0.00636445,-0.000005
 12,0.00000090,0.01827091,-0.00000155,-0.00000473,-0.00740195,-0.000001
 05,0.00000449,-0.06611897,0.00001127,0.00000570,0.09609705,0.00187849,
 0.00000124,-0.00526384,-0.01819328,0.00000137,-0.05903024,-0.00543665,
 0.00000076,-0.00414023,-0.02889426,-0.00000052,-0.07250550,-0.00126835
 ,-0.00000023,0.00556492,0.08871205,0.00000170,-0.27090236,-0.04055720,
 -0.00000381,0.50726738,-0.00014559,0.00000017,0.00031410,0.00845167,-0
 .00000364,-0.00485148,0.00065431,0.00000103,-0.00012630,0.00168593,-0.
 00000060,-0.00280567,-0.00041548,-0.00000013,0.00150198,-0.00714720,-0
 .00000230,-0.00518665,-0.01854216,-0.00000014,0.02235477,0.27297133,-0
 .00000050,-0.00146519,-0.00000115,-0.00000834,-0.00776233,0.00000136,0
 .00000130,0.00218260,-0.00000388,0.00000193,0.00268745,-0.00000416,0.0
 0000025,0.00225954,-0.00000166,0.00000414,0.00404353,0.00000788,-0.000
 00386,-0.01218047,-0.00000168,-0.00000216,0.01120082,-0.00056106,0.000
 00014,0.00027307,0.02396292,0.00000212,-0.00329076,0.00124669,-0.00000
 080,0.00017987,-0.00223341,0.00000071,-0.00660969,-0.00051474,0.000000
 36,0.00094728,-0.00559374,0.00000080,0.00052959,-0.00962386,0.00000047
 ,0.01417012,-0.19103310,0.00000070,0.23009532,0.00456560,-0.00000013,-
 0.03050757,-0.10230289,0.00000453,-0.01095710,-0.00632851,-0.00000061,
 -0.00159013,-0.02705642,0.00000034,0.01661772,-0.00016688,-0.00000022,
 0.00593910,-0.10911567,0.00000410,0.04726596,-0.21658417,-0.00000144,-
 0.01859557,-0.25751279,0.00000725,0.18435029,0.71450171,0.00000183,-0.
 00450846,0.00000056,0.00000959,-0.04679005,0.00000437,-0.00000130,0.00
 416685,0.00000313,-0.00000605,0.01235562,0.00000153,0.00000455,0.00620
 823,0.00000135,-0.00000408,0.01072557,-0.00000295,0.00000153,-0.056399
 00,0.00000119,0.00000776,-0.00096594,-0.00000449,-0.00001382,0.0752071
 7,0.00390324,-0.00000058,-0.00768109,-0.01107283,0.00000208,-0.3078239
 6,0.00228555,-0.00000032,-0.00028206,0.07173314,-0.00000092,-0.0547997
 5,0.00258252,-0.00000108,-0.00463531,0.02917172,0.00000343,-0.02934487
 ,-0.08591299,-0.00000055,-0.11516024,0.17983233,0.00000260,-0.23629477
 ,-0.19252267,-0.00000470,0.75602203\\0.00003091,0.,0.00007366,0.000109
 90,0.,-0.00055011,-0.00002437,0.,0.00004305,-0.00018479,0.,0.00016380,
 -0.00008772,0.,-0.00000348,0.00013383,0.,-0.00016747,-0.00004326,0.,0.
 00013401,0.00000312,0.,-0.00005416,0.00006238,0.,0.00036072\\\@


 HE THAT RISETH LATE MUST TROT ALL DAY.

                  -- BENJAMIN FRANKLIN
 Job cpu time:  0 days  0 hours 17 minutes 15.5 seconds.
 File lengths (MBytes):  RWF=   14 Int=    0 D2E=    0 Chk=    3 Scr=    1
 Normal termination of Gaussian 98.
