 Entering Gaussian System, Link 0=g98
 Initial command:
 /usr/local/apps/g98/g98/l1.exe /wrk/rdj3/Gau-15320.inp -scrdir=/wrk/rdj3/
 Entering Link 1 = /usr/local/apps/g98/g98/l1.exe PID=     14556.
  
 Copyright (c) 1988,1990,1992,1993,1995,1998 Gaussian, Inc.
                  All Rights Reserved.
  
 This is part of the Gaussian(R) 98 program.  It is based on
 the Gaussian 94(TM) system (copyright 1995 Gaussian, Inc.),
 the Gaussian 92(TM) system (copyright 1992 Gaussian, Inc.),
 the Gaussian 90(TM) system (copyright 1990 Gaussian, Inc.),
 the Gaussian 88(TM) system (copyright 1988 Gaussian, Inc.),
 the Gaussian 86(TM) system (copyright 1986 Carnegie Mellon
 University), and the Gaussian 82(TM) system (copyright 1983
 Carnegie Mellon University). Gaussian is a federally registered
 trademark of Gaussian, Inc.
  
 This software contains proprietary and confidential information,
 including trade secrets, belonging to Gaussian, Inc.
  
 This software is provided under written license and may be
 used, copied, transmitted, or stored only in accord with that
 written license.
  
 The following legend is applicable only to US Government
 contracts under DFARS:
  
                    RESTRICTED RIGHTS LEGEND
  
 Use, duplication or disclosure by the US Government is subject
 to restrictions as set forth in subparagraph (c)(1)(ii) of the
 Rights in Technical Data and Computer Software clause at DFARS
 252.227-7013.
  
 Gaussian, Inc.
 Carnegie Office Park, Building 6, Pittsburgh, PA 15106 USA
  
 The following legend is applicable only to US Government
 contracts under FAR:
  
                    RESTRICTED RIGHTS LEGEND
  
 Use, reproduction and disclosure by the US Government is subject
 to restrictions as set forth in subparagraph (c) of the
 Commercial Computer Software - Restricted Rights clause at FAR
 52.227-19.
  
 Gaussian, Inc.
 Carnegie Office Park, Building 6, Pittsburgh, PA 15106 USA
  
  
 ---------------------------------------------------------------
 Warning -- This program may not be used in any manner that
 competes with the business of Gaussian, Inc. or will provide
 assistance to any competitor of Gaussian, Inc.  The licensee
 of this program is prohibited from giving any competitor of
 Gaussian, Inc. access to this program.  By using this program,
 the user acknowledges that Gaussian, Inc. is engaged in the
 business of creating and licensing software in the field of
 computational chemistry and represents and warrants to the
 licensee that it is not a competitor of Gaussian, Inc. and that
 it will not use this program in any manner prohibited above.
 ---------------------------------------------------------------
  

 Cite this work as:
 Gaussian 98, Revision A.4,
 M. J. Frisch, G. W. Trucks, H. B. Schlegel, G. E. Scuseria, 
 M. A. Robb, J. R. Cheeseman, V. G. Zakrzewski, J. A. Montgomery, Jr., 
 R. E. Stratmann, J. C. Burant, S. Dapprich, J. M. Millam, 
 A. D. Daniels, K. N. Kudin, M. C. Strain, O. Farkas, J. Tomasi, 
 V. Barone, M. Cossi, R. Cammi, B. Mennucci, C. Pomelli, C. Adamo, 
 S. Clifford, J. Ochterski, G. A. Petersson, P. Y. Ayala, Q. Cui, 
 K. Morokuma, D. K. Malick, A. D. Rabuck, K. Raghavachari, 
 J. B. Foresman, J. Cioslowski, J. V. Ortiz, B. B. Stefanov, G. Liu, 
 A. Liashenko, P. Piskorz, I. Komaromi, R. Gomperts, R. L. Martin, 
 D. J. Fox, T. Keith, M. A. Al-Laham, C. Y. Peng, A. Nanayakkara, 
 C. Gonzalez, M. Challacombe, P. M. W. Gill, B. Johnson, W. Chen, 
 M. W. Wong, J. L. Andres, C. Gonzalez, M. Head-Gordon, 
 E. S. Replogle, and J. A. Pople, 
 Gaussian, Inc., Pittsburgh PA, 1998.

 **********************************************
 Gaussian 98:  IBM-RS6000-G98RevA.4 11-Sep-1998
                   5-Jun-2000 
 **********************************************
 %mem=24000000
 ------------------------
 #B3PW91/6-31G** opt freq
 ------------------------
 1/14=-1,18=20,26=3,38=1/1,3;
 2/9=110,17=6,18=5/2;
 3/5=1,6=6,7=101,11=2,25=1,30=1/1,2,3;
 4//1;
 5/5=2,38=4,42=-6/2;
 6/7=2,8=2,9=2,10=2,28=1/1;
 7//1,2,3,16;
 1/14=-1,18=20/3(1);
 99//99;
 2/9=110/2;
 3/5=1,6=6,7=101,11=2,25=1,30=1/1,2,3;
 4/5=5,16=2/1;
 5/5=2,38=4,42=-6/2;
 7//1,2,3,16;
 1/14=-1,18=20/3(-5);
 2/9=110/2;
 6/7=2,8=2,9=2,10=2,19=2,28=1/1;
 99/9=1/99;
 -------------------------------
 1H pyrazole C3H4N2 casno=288131
 -------------------------------
 Symbolic Z-matrix:
 Charge =  0 Multiplicity = 1
 H                    -1.9125    0.       -0.75938 
 C                    -1.08438   0.       -0.21875 
 H                     0.43438   0.       -1.63125 
 C                     0.15      0.       -0.68438 
 H                     1.9125    0.        0.37188 
 C                     0.92188   0.        0.375 
 N                     0.18125   0.        1.41875 
 H                    -1.74063   0.        1.63125 
 N                    -1.00313   0.        1.05313 

 GradGradGradGradGradGradGradGradGradGradGradGradGradGradGradGradGradGrad
 Berny optimization.
 Initialization pass.
                         ----------------------------
                         !    Initial Parameters    !
                         ! (Angstroms and Degrees)  !
 ------------------------                            -------------------------
 ! Name  Definition              Value          Derivative Info.             !
 -----------------------------------------------------------------------------
 ! R1    R(1,2)                  0.989          estimate D2E/DX2             !
 ! R2    R(2,4)                  1.3193         estimate D2E/DX2             !
 ! R3    R(2,9)                  1.2745         estimate D2E/DX2             !
 ! R4    R(3,4)                  0.9887         estimate D2E/DX2             !
 ! R5    R(4,6)                  1.3108         estimate D2E/DX2             !
 ! R6    R(5,6)                  0.9906         estimate D2E/DX2             !
 ! R7    R(6,7)                  1.2798         estimate D2E/DX2             !
 ! R8    R(7,9)                  1.2395         estimate D2E/DX2             !
 ! R9    R(8,9)                  0.9371         estimate D2E/DX2             !
 ! A1    A(1,2,4)              126.195          estimate D2E/DX2             !
 ! A2    A(1,2,9)              126.7929         estimate D2E/DX2             !
 ! A3    A(4,2,9)              107.012          estimate D2E/DX2             !
 ! A4    A(2,4,3)              127.3838         estimate D2E/DX2             !
 ! A5    A(2,4,6)              105.4104         estimate D2E/DX2             !
 ! A6    A(3,4,6)              127.2058         estimate D2E/DX2             !
 ! A7    A(4,6,5)              125.8968         estimate D2E/DX2             !
 ! A8    A(4,6,7)              108.5636         estimate D2E/DX2             !
 ! A9    A(5,6,7)              125.5395         estimate D2E/DX2             !
 ! A10   A(6,7,9)              108.203          estimate D2E/DX2             !
 ! A11   A(2,9,7)              110.811          estimate D2E/DX2             !
 ! A12   A(2,9,8)              124.4376         estimate D2E/DX2             !
 ! A13   A(7,9,8)              124.7513         estimate D2E/DX2             !
 ! D1    D(1,2,4,3)              0.             estimate D2E/DX2             !
 ! D2    D(1,2,4,6)            180.             estimate D2E/DX2             !
 ! D3    D(9,2,4,3)            180.             estimate D2E/DX2             !
 ! D4    D(9,2,4,6)              0.             estimate D2E/DX2             !
 ! D5    D(1,2,9,7)            180.             estimate D2E/DX2             !
 ! D6    D(1,2,9,8)              0.             estimate D2E/DX2             !
 ! D7    D(4,2,9,7)              0.             estimate D2E/DX2             !
 ! D8    D(4,2,9,8)            180.             estimate D2E/DX2             !
 ! D9    D(2,4,6,5)            180.             estimate D2E/DX2             !
 ! D10   D(2,4,6,7)              0.             estimate D2E/DX2             !
 ! D11   D(3,4,6,5)              0.             estimate D2E/DX2             !
 ! D12   D(3,4,6,7)            180.             estimate D2E/DX2             !
 ! D13   D(4,6,7,9)              0.             estimate D2E/DX2             !
 ! D14   D(5,6,7,9)            180.             estimate D2E/DX2             !
 ! D15   D(6,7,9,2)              0.             estimate D2E/DX2             !
 ! D16   D(6,7,9,8)            180.             estimate D2E/DX2             !
 -----------------------------------------------------------------------------
 Trust Radius=3.00D-01 FncErr=1.00D-07 GrdErr=1.00D-06
 Number of steps in this run=  48 maximum allowed number of steps= 100.
 GradGradGradGradGradGradGradGradGradGradGradGradGradGradGradGradGradGrad

                          Input orientation:                          
 ---------------------------------------------------------------------
 Center     Atomic     Atomic              Coordinates (Angstroms)
 Number     Number      Type              X           Y           Z
 ---------------------------------------------------------------------
    1          1             0       -1.912500    0.000000   -0.759375
    2          6             0       -1.084375    0.000000   -0.218750
    3          1             0        0.434375    0.000000   -1.631250
    4          6             0        0.150000    0.000000   -0.684375
    5          1             0        1.912500    0.000000    0.371875
    6          6             0        0.921875    0.000000    0.375000
    7          7             0        0.181250    0.000000    1.418750
    8          1             0       -1.740625    0.000000    1.631250
    9          7             0       -1.003125    0.000000    1.053125
 ---------------------------------------------------------------------
                    Distance matrix (angstroms):
                    1          2          3          4          5
     1  H    0.000000
     2  C    0.988972   0.000000
     3  H    2.503595   2.074068   0.000000
     4  C    2.063863   1.319276   0.988656   0.000000
     5  H    3.988778   3.054521   2.489450   2.054768   0.000000
     6  C    3.052947   2.092266   2.064630   1.310750   0.990630
     7  N    3.021261   2.069592   3.060486   2.103357   2.023159
     8  H    2.396796   1.962948   3.921037   2.989412   3.864110
     9  N    2.027836   1.274468   3.045041   2.085331   2.994156
                    6          7          8          9
     6  C    0.000000
     7  N    1.279820   0.000000
     8  H    2.943989   1.933587   0.000000
     9  N    2.040950   1.239526   0.937088   0.000000
 Stoichiometry    C3H4N2
 Framework group  CS[SG(C3H4N2)]
 Deg. of freedom   15
 Full point group                 CS      NOp   2
 Largest Abelian subgroup         CS      NOp   2
 Largest concise Abelian subgroup C1      NOp   1
                         Standard orientation:                         
 ---------------------------------------------------------------------
 Center     Atomic     Atomic              Coordinates (Angstroms)
 Number     Number      Type              X           Y           Z
 ---------------------------------------------------------------------
    1          1             0        1.974407    0.585689    0.000000
    2          6             0        1.028833    0.295936    0.000000
    3          1             0        1.140941   -1.775099    0.000000
    4          6             0        0.595873   -0.950271    0.000000
    5          1             0       -1.344123   -1.627388    0.000000
    6          6             0       -0.712074   -0.864589    0.000000
    7          7             0       -1.039336    0.372682    0.000000
    8          1             0        0.028336    1.984773    0.000000
    9          7             0        0.000000    1.048113    0.000000
 ---------------------------------------------------------------------
 Rotational constants (GHZ):     11.1878032     10.4520048      5.4036973
 Isotopes: H-1,C-12,H-1,C-12,H-1,C-12,N-14,H-1,N-14
 Standard basis: 6-31G(d,p) (6D, 7F)
 There are    71 symmetry adapted basis functions of A'  symmetry.
 There are    24 symmetry adapted basis functions of A"  symmetry.
 Crude estimate of integral set expansion from redundant integrals=1.000.
 Integral buffers will be    262144 words long.
 Raffenetti 2 integral format.
 Two-electron integral symmetry is turned on.
    95 basis functions      168 primitive gaussians
    18 alpha electrons       18 beta electrons
       nuclear repulsion energy       173.7391879471 Hartrees.
 One-electron integrals computed using PRISM.
 NBasis=    95 RedAO= T  NBF=    71    24
 NBsUse=    95 1.00D-04 NBFU=    71    24
 Projected INDO Guess.
 Initial guess orbital symmetries:
       Occupied  (A') (A') (A') (A') (A') (A') (A') (A') (A') (A')
                 (A') (A") (A') (A') (A') (A") (A') (A")
       Virtual   (A") (A') (A') (A") (A') (A') (A') (A') (A') (A')
                 (A') (A') (A') (A') (A') (A') (A') (A') (A') (A')
                 (A') (A') (A') (A') (A') (A') (A') (A') (A') (A')
                 (A') (A') (A') (A') (A') (A') (A') (A') (A') (A')
                 (A') (A') (A') (A') (A') (A') (A') (A') (A') (A')
                 (A') (A') (A') (A') (A') (A') (A') (A') (A") (A")
                 (A") (A") (A") (A") (A") (A") (A") (A") (A") (A")
                 (A") (A") (A") (A") (A") (A") (A")
 Requested convergence on RMS density matrix=1.00D-08 within  64 cycles.
 Requested convergence on MAX density matrix=1.00D-06.
 Keep R1 and R2 integrals in memory in canonical form, NReq=    21270434.
 Integral accuracy reduced to 1.0D-05 until final iterations.
 Initial convergence to 1.0D-05 achieved.  Increase integral accuracy.
 SCF Done:  E(RB+HF-PW91) =  -226.056861988     A.U. after   15 cycles
             Convg  =    0.2859D-08             -V/T =  2.0013
             S**2   =   0.0000

 **********************************************************************

            Population analysis using the SCF density.

 **********************************************************************

 Orbital Symmetries:
       Occupied  (A') (A') (A') (A') (A') (A') (A') (A') (A') (A')
                 (A') (A") (A') (A') (A') (A") (A') (A")
       Virtual   (A") (A") (A') (A') (A') (A') (A') (A') (A') (A')
                 (A') (A') (A") (A") (A') (A') (A") (A') (A') (A')
                 (A") (A') (A") (A') (A') (A') (A') (A') (A') (A')
                 (A") (A') (A') (A") (A') (A") (A") (A') (A') (A")
                 (A') (A') (A') (A') (A") (A') (A") (A') (A") (A')
                 (A") (A') (A") (A') (A') (A") (A') (A') (A') (A')
                 (A") (A") (A") (A') (A') (A') (A') (A') (A') (A')
                 (A') (A') (A') (A') (A') (A') (A')
  The electronic state is 1-A'.
 Alpha  occ. eigenvalues --  -14.39355 -14.31201 -10.17243 -10.15269 -10.12821
 Alpha  occ. eigenvalues --   -1.11609  -0.84635  -0.80443  -0.64741  -0.61963
 Alpha  occ. eigenvalues --   -0.56600  -0.47669  -0.47481  -0.43655  -0.39734
 Alpha  occ. eigenvalues --   -0.27009  -0.26731  -0.24598
 Alpha virt. eigenvalues --    0.05130   0.10326   0.10892   0.17148   0.19173
 Alpha virt. eigenvalues --    0.21655   0.26323   0.27897   0.32447   0.40299
 Alpha virt. eigenvalues --    0.50504   0.53701   0.54578   0.60142   0.60651
 Alpha virt. eigenvalues --    0.62593   0.66079   0.67688   0.71872   0.72315
 Alpha virt. eigenvalues --    0.74529   0.81917   0.83504   0.85107   0.86246
 Alpha virt. eigenvalues --    0.90227   0.91870   0.97022   1.00889   1.07729
 Alpha virt. eigenvalues --    1.22191   1.23118   1.25566   1.35178   1.36313
 Alpha virt. eigenvalues --    1.37795   1.46490   1.50691   1.53208   1.53991
 Alpha virt. eigenvalues --    1.77631   1.94909   1.96443   2.01879   2.05955
 Alpha virt. eigenvalues --    2.06301   2.18140   2.21315   2.26082   2.27682
 Alpha virt. eigenvalues --    2.28425   2.32179   2.45737   2.47556   2.49949
 Alpha virt. eigenvalues --    2.53562   2.55760   2.60388   2.61484   2.66004
 Alpha virt. eigenvalues --    2.72401   2.84316   2.95193   2.97591   3.10382
 Alpha virt. eigenvalues --    3.11422   3.29232   3.45743   3.49161   3.57468
 Alpha virt. eigenvalues --    3.79547   3.97820   4.03815   4.15696   4.23117
 Alpha virt. eigenvalues --    4.54205   4.98799
          Condensed to atoms (all electrons):
              1          2          3          4          5          6
  1  H    0.570082   0.377667  -0.000988  -0.033684  -0.000357   0.003760
  2  C    0.377667   4.987243  -0.060906   0.572962   0.007359  -0.014395
  3  H   -0.000988  -0.060906   0.609661   0.388157  -0.003119  -0.049386
  4  C   -0.033684   0.572962   0.388157   4.808788  -0.061808   0.576873
  5  H   -0.000357   0.007359  -0.003119  -0.061808   0.579364   0.408031
  6  C    0.003760  -0.014395  -0.049386   0.576873   0.408031   4.667560
  7  N    0.008678  -0.208499   0.012875  -0.025856  -0.050959   0.504680
  8  H   -0.001884  -0.060034  -0.000116   0.008026  -0.000158   0.007274
  9  N   -0.049613   0.302811   0.008579  -0.026332   0.008018  -0.191410
              7          8          9
  1  H    0.008678  -0.001884  -0.049613
  2  C   -0.208499  -0.060034   0.302811
  3  H    0.012875  -0.000116   0.008579
  4  C   -0.025856   0.008026  -0.026332
  5  H   -0.050959  -0.000158   0.008018
  6  C    0.504680   0.007274  -0.191410
  7  N    6.745733  -0.045135   0.376992
  8  H   -0.045135   0.408722   0.402254
  9  N    0.376992   0.402254   6.442132
 Total atomic charges:
              1
  1  H    0.126338
  2  C    0.095792
  3  H    0.095244
  4  C   -0.207126
  5  H    0.113629
  6  C    0.087014
  7  N   -0.318510
  8  H    0.281051
  9  N   -0.273432
 Sum of Mulliken charges=   0.00000
 Atomic charges with hydrogens summed into heavy atoms:
              1
  1  H    0.000000
  2  C    0.222130
  3  H    0.000000
  4  C   -0.111882
  5  H    0.000000
  6  C    0.200643
  7  N   -0.318510
  8  H    0.000000
  9  N    0.007618
 Sum of Mulliken charges=   0.00000
 Electronic spatial extent (au):  <R**2>=   257.5064
 Charge=     0.0000 electrons
 Dipole moment (Debye):
    X=     2.0217    Y=     1.0145    Z=     0.0000  Tot=     2.2620
 Quadrupole moment (Debye-Ang):
   XX=   -29.3537   YY=   -21.5711   ZZ=   -29.9811
   XY=     2.3909   XZ=     0.0000   YZ=     0.0000
 Octapole moment (Debye-Ang**2):
  XXX=     7.8493  YYY=    11.1472  ZZZ=     0.0000  XYY=     0.4412
  XXY=    -2.1582  XXZ=     0.0000  XZZ=    -0.6961  YZZ=     1.9084
  YYZ=     0.0000  XYZ=     0.0000
 Hexadecapole moment (Debye-Ang**3):
 XXXX=  -148.8943 YYYY=  -119.4233 ZZZZ=   -28.2353 XXXY=     6.4209
 XXXZ=     0.0000 YYYX=    -0.0253 YYYZ=     0.0000 ZZZX=     0.0000
 ZZZY=     0.0000 XXYY=   -46.5738 XXZZ=   -31.6631 YYZZ=   -31.6814
 XXYZ=     0.0000 YYXZ=     0.0000 ZZXY=    -0.3103
 N-N= 1.737391879471D+02 E-N=-8.742690591521D+02  KE= 2.257607005112D+02
 Symmetry A'   KE= 2.174579695788D+02
 Symmetry A"   KE= 8.302730932399D+00
 ***** Axes restored to original set *****
 -------------------------------------------------------------------
 Center     Atomic                   Forces (Hartrees/Bohr)
 Number     Number              X              Y              Z
 -------------------------------------------------------------------
    1          1          -0.077373561    0.000000000   -0.039735186
    2          6          -0.015551291    0.000000000   -0.052065011
    3          1           0.021967388    0.000000000   -0.083575736
    4          6          -0.012922816    0.000000000   -0.040716723
    5          1           0.084477756    0.000000000    0.011108161
    6          6           0.003016660    0.000000000    0.020423118
    7          7           0.086976299    0.000000000    0.136076106
    8          1          -0.057596836    0.000000000    0.059202904
    9          7          -0.032993598    0.000000000   -0.010717634
 -------------------------------------------------------------------
 Cartesian Forces:  Max     0.136076106 RMS     0.047766398

 GradGradGradGradGradGradGradGradGradGradGradGradGradGradGradGradGradGrad
 Berny optimization.
 Internal  Forces:  Max     0.125859289 RMS     0.047302767
 Search for a local minimum.
 Step number   1 out of a maximum of  48
 All quantities printed in internal units (Hartrees-Bohrs-Radians)
 Second derivative matrix not updated -- first step.
     Eigenvalues ---    0.03204   0.03245   0.03263   0.03273   0.03342
     Eigenvalues ---    0.03375   0.16000   0.16000   0.16000   0.16000
     Eigenvalues ---    0.22000   0.22938   0.49374   0.49681   0.49740
     Eigenvalues ---    0.56490   0.56686   0.60708   0.68179   0.73042
     Eigenvalues ---    0.827791000.000001000.000001000.000001000.00000
     Eigenvalues --- 1000.000001000.000001000.000001000.000001000.00000
     Eigenvalues --- 1000.000001000.000001000.000001000.000001000.00000
     Eigenvalues --- 1000.000001000.000001000.00000
 RFO step:  Lambda=-1.16477015D-01.
 Linear search not attempted -- first point.
 Maximum step size (   0.300) exceeded in Quadratic search.
    -- Step size scaled by   0.726
 Iteration  1 RMS(Cart)=  0.06293386 RMS(Int)=  0.00073817
 Iteration  2 RMS(Cart)=  0.00093097 RMS(Int)=  0.00001445
 Iteration  3 RMS(Cart)=  0.00000062 RMS(Int)=  0.00001444
 Variable       Old X    -DE/DX   Delta X   Delta X   Delta X     New X
                                 (Linear)    (Quad)   (Total)
    R1        1.86889   0.08651   0.00000   0.10241   0.10241   1.97130
    R2        2.49307   0.07761   0.00000   0.07484   0.07486   2.56793
    R3        2.40839   0.11022   0.00000   0.09422   0.09420   2.50260
    R4        1.86829   0.08636   0.00000   0.10214   0.10214   1.97043
    R5        2.47696   0.12586   0.00000   0.11756   0.11758   2.59454
    R6        1.87202   0.08444   0.00000   0.10046   0.10046   1.97248
    R7        2.41851   0.07301   0.00000   0.06242   0.06242   2.48093
    R8        2.34237   0.12039   0.00000   0.09046   0.09043   2.43280
    R9        1.77084   0.08185   0.00000   0.08213   0.08213   1.85297
    A1        2.20252   0.01349   0.00000   0.03332   0.03332   2.23584
    A2        2.21295  -0.00339   0.00000  -0.01100  -0.01100   2.20196
    A3        1.86771  -0.01010   0.00000  -0.02232  -0.02232   1.84539
    A4        2.22327  -0.00272   0.00000  -0.00231  -0.00233   2.22094
    A5        1.83976  -0.00019   0.00000  -0.01013  -0.01009   1.82967
    A6        2.22016   0.00290   0.00000   0.01244   0.01242   2.23258
    A7        2.19731   0.00114   0.00000   0.01081   0.01080   2.20812
    A8        1.89479   0.01900   0.00000   0.03425   0.03428   1.92907
    A9        2.19108  -0.02014   0.00000  -0.04507  -0.04508   2.14600
   A10        1.88850  -0.02620   0.00000  -0.04680  -0.04683   1.84167
   A11        1.93402   0.01748   0.00000   0.04500   0.04497   1.97898
   A12        2.17185   0.00106   0.00000   0.00323   0.00325   2.17509
   A13        2.17732  -0.01854   0.00000  -0.04823  -0.04821   2.12911
    D1        0.00000   0.00000   0.00000   0.00000   0.00000   0.00000
    D2        3.14159   0.00000   0.00000   0.00000   0.00000   3.14159
    D3        3.14159   0.00000   0.00000   0.00000   0.00000   3.14159
    D4        0.00000   0.00000   0.00000   0.00000   0.00000   0.00000
    D5        3.14159   0.00000   0.00000   0.00000   0.00000   3.14159
    D6        0.00000   0.00000   0.00000   0.00000   0.00000   0.00000
    D7        0.00000   0.00000   0.00000   0.00000   0.00000   0.00000
    D8        3.14159   0.00000   0.00000   0.00000   0.00000   3.14159
    D9        3.14159   0.00000   0.00000   0.00000   0.00000   3.14159
   D10        0.00000   0.00000   0.00000   0.00000   0.00000   0.00000
   D11        0.00000   0.00000   0.00000   0.00000   0.00000   0.00000
   D12        3.14159   0.00000   0.00000   0.00000   0.00000   3.14159
   D13        0.00000   0.00000   0.00000   0.00000   0.00000   0.00000
   D14        3.14159   0.00000   0.00000   0.00000   0.00000   3.14159
   D15        0.00000   0.00000   0.00000   0.00000   0.00000   0.00000
   D16        3.14159   0.00000   0.00000   0.00000   0.00000   3.14159
         Item               Value     Threshold  Converged?
 Maximum Force            0.125859     0.000450     NO 
 RMS     Force            0.047303     0.000300     NO 
 Maximum Displacement     0.179323     0.001800     NO 
 RMS     Displacement     0.062896     0.001200     NO 
 Predicted change in Energy=-2.545331D-02
 GradGradGradGradGradGradGradGradGradGradGradGradGradGradGradGradGradGrad

                          Input orientation:                          
 ---------------------------------------------------------------------
 Center     Atomic     Atomic              Coordinates (Angstroms)
 Number     Number      Type              X           Y           Z
 ---------------------------------------------------------------------
    1          1             0       -1.809217    0.000000   -1.178284
    2          6             0       -0.919617    0.000000   -0.633486
    3          1             0        0.655979    0.000000   -2.105435
    4          6             0        0.353943    0.000000   -1.107433
    5          1             0        2.189777    0.000000    0.037023
    6          6             0        1.146241    0.000000    0.013867
    7          7             0        0.407782    0.000000    1.099342
    8          1             0       -1.570339    0.000000    1.307517
    9          7             0       -0.811582    0.000000    0.686419
 ---------------------------------------------------------------------
                    Distance matrix (angstroms):
                    1          2          3          4          5
     1  H    0.000000
     2  C    1.043165   0.000000
     3  H    2.633780   2.156185   0.000000
     4  C    2.164319   1.358889   1.042704   0.000000
     5  H    4.179584   3.180867   2.634894   2.163347   0.000000
     6  C    3.186841   2.164910   2.175270   1.372972   1.043793
     7  N    3.178469   2.182815   3.214374   2.207432   2.074615
     8  H    2.497253   2.047177   4.074890   3.087855   3.968958
     9  N    2.114803   1.324319   3.154073   2.139241   3.070809
                    6          7          8          9
     6  C    0.000000
     7  N    1.312851   0.000000
     8  H    3.008877   1.989044   0.000000
     9  N    2.070120   1.287382   0.980549   0.000000
 Stoichiometry    C3H4N2
 Framework group  CS[SG(C3H4N2)]
 Deg. of freedom   15
 Full point group                 CS      NOp   2
 Largest Abelian subgroup         CS      NOp   2
 Largest concise Abelian subgroup C1      NOp   1
                         Standard orientation:                         
 ---------------------------------------------------------------------
 Center     Atomic     Atomic              Coordinates (Angstroms)
 Number     Number      Type              X           Y           Z
 ---------------------------------------------------------------------
    1          1             0        2.070638    0.632058    0.000000
    2          6             0        1.082187    0.298656    0.000000
    3          1             0        1.201603   -1.854220    0.000000
    4          6             0        0.629367   -0.982567    0.000000
    5          1             0       -1.425949   -1.657660    0.000000
    6          6             0       -0.739120   -0.871676    0.000000
    7          7             0       -1.098675    0.390979    0.000000
    8          1             0        0.009830    2.042498    0.000000
    9          7             0        0.000000    1.061999    0.000000
 ---------------------------------------------------------------------
 Rotational constants (GHZ):     10.1322425      9.9678421      5.0246850
 Isotopes: H-1,C-12,H-1,C-12,H-1,C-12,N-14,H-1,N-14
 Standard basis: 6-31G(d,p) (6D, 7F)
 There are    71 symmetry adapted basis functions of A'  symmetry.
 There are    24 symmetry adapted basis functions of A"  symmetry.
 Crude estimate of integral set expansion from redundant integrals=1.000.
 Integral buffers will be    262144 words long.
 Raffenetti 2 integral format.
 Two-electron integral symmetry is turned on.
    95 basis functions      168 primitive gaussians
    18 alpha electrons       18 beta electrons
       nuclear repulsion energy       167.4286632957 Hartrees.
 One-electron integrals computed using PRISM.
 NBasis=    95 RedAO= T  NBF=    71    24
 NBsUse=    95 1.00D-04 NBFU=    71    24
 Initial guess read from the read-write file:
 Initial guess orbital symmetries:
       Occupied  (A') (A') (A') (A') (A') (A') (A') (A') (A') (A')
                 (A') (A") (A') (A') (A') (A") (A') (A")
       Virtual   (A") (A") (A') (A') (A') (A') (A') (A') (A') (A')
                 (A') (A') (A") (A") (A') (A') (A") (A') (A') (A')
                 (A") (A') (A") (A') (A') (A') (A') (A') (A') (A')
                 (A") (A') (A') (A") (A') (A") (A") (A') (A') (A")
                 (A') (A') (A') (A') (A") (A') (A") (A') (A") (A')
                 (A") (A') (A") (A') (A') (A") (A') (A') (A') (A')
                 (A") (A") (A") (A') (A') (A') (A') (A') (A') (A')
                 (A') (A') (A') (A') (A') (A') (A')
 Requested convergence on RMS density matrix=1.00D-08 within  64 cycles.
 Requested convergence on MAX density matrix=1.00D-06.
 Keep R1 and R2 integrals in memory in canonical form, NReq=    21270434.
 Integral accuracy reduced to 1.0D-05 until final iterations.
 Initial convergence to 1.0D-05 achieved.  Increase integral accuracy.
 SCF Done:  E(RB+HF-PW91) =  -226.112523891     A.U. after   13 cycles
             Convg  =    0.5311D-08             -V/T =  2.0064
             S**2   =   0.0000
 ***** Axes restored to original set *****
 -------------------------------------------------------------------
 Center     Atomic                   Forces (Hartrees/Bohr)
 Number     Number              X              Y              Z
 -------------------------------------------------------------------
    1          1          -0.029100380    0.000000000   -0.009384687
    2          6           0.003522474    0.000000000   -0.020662992
    3          1           0.007932716    0.000000000   -0.028983087
    4          6          -0.003088005    0.000000000   -0.010094919
    5          1           0.029836695    0.000000000    0.006885416
    6          6          -0.001659672    0.000000000    0.000266293
    7          7           0.039794904    0.000000000    0.048533238
    8          1          -0.016994065    0.000000000    0.022351399
    9          7          -0.030244666    0.000000000   -0.008910662
 -------------------------------------------------------------------
 Cartesian Forces:  Max     0.048533238 RMS     0.018308829

 GradGradGradGradGradGradGradGradGradGradGradGradGradGradGradGradGradGrad
 Berny optimization.
 Internal  Forces:  Max     0.050651510 RMS     0.016709994
 Search for a local minimum.
 Step number   2 out of a maximum of  48
 All quantities printed in internal units (Hartrees-Bohrs-Radians)
 Update second derivatives using information from points  1  2
 Trust test= 2.19D+00 RLast= 3.00D-01 DXMaxT set to 4.24D-01
     Eigenvalues ---    0.03204   0.03247   0.03260   0.03273   0.03343
     Eigenvalues ---    0.03374   0.15889   0.16000   0.16000   0.16024
     Eigenvalues ---    0.22015   0.23657   0.49448   0.49711   0.51145
     Eigenvalues ---    0.57117   0.58116   0.61574   0.68550   0.73810
     Eigenvalues ---    0.809571000.000001000.000001000.000001000.00000
     Eigenvalues --- 1000.000001000.000001000.000001000.000001000.00000
     Eigenvalues --- 1000.000001000.000001000.000001000.000001000.00000
     Eigenvalues --- 1000.000001000.000001000.00000
 RFO step:  Lambda=-2.29960002D-03.
 Quartic linear search produced a step of  0.68749.
 Iteration  1 RMS(Cart)=  0.05067183 RMS(Int)=  0.00118785
 Iteration  2 RMS(Cart)=  0.00138509 RMS(Int)=  0.00002507
 Iteration  3 RMS(Cart)=  0.00000204 RMS(Int)=  0.00002500
 Iteration  4 RMS(Cart)=  0.00000000 RMS(Int)=  0.00002500
 Variable       Old X    -DE/DX   Delta X   Delta X   Delta X     New X
                                 (Linear)    (Quad)   (Total)
    R1        1.97130   0.02972   0.07041   0.00250   0.07291   2.04420
    R2        2.56793   0.02724   0.05146  -0.00052   0.05091   2.61884
    R3        2.50260   0.03560   0.06477  -0.00662   0.05810   2.56070
    R4        1.97043   0.03004   0.07022   0.00373   0.07395   2.04438
    R5        2.59454   0.03993   0.08084  -0.01205   0.06881   2.66335
    R6        1.97248   0.02998   0.06907   0.00587   0.07494   2.04742
    R7        2.48093   0.02505   0.04291  -0.00146   0.04150   2.52243
    R8        2.43280   0.05065   0.06217   0.01576   0.07793   2.51073
    R9        1.85297   0.02731   0.05646  -0.00257   0.05390   1.90686
    A1        2.23584   0.00738   0.02290   0.04360   0.06654   2.30238
    A2        2.20196  -0.00681  -0.00756  -0.05921  -0.06673   2.13522
    A3        1.84539  -0.00057  -0.01535   0.01561   0.00019   1.84558
    A4        2.22094  -0.00127  -0.00160   0.00157  -0.00003   2.22091
    A5        1.82967   0.00095  -0.00694  -0.00482  -0.01176   1.81791
    A6        2.23258   0.00032   0.00854   0.00325   0.01179   2.24437
    A7        2.20812   0.00286   0.00743   0.03426   0.04165   2.24977
    A8        1.92907   0.00654   0.02357   0.00248   0.02610   1.95517
    A9        2.14600  -0.00940  -0.03099  -0.03673  -0.06775   2.07824
   A10        1.84167  -0.00804  -0.03220   0.00606  -0.02608   1.81559
   A11        1.97898   0.00111   0.03091  -0.01932   0.01155   1.99053
   A12        2.17509   0.00550   0.00223   0.04665   0.04890   2.22399
   A13        2.12911  -0.00661  -0.03314  -0.02732  -0.06045   2.06866
    D1        0.00000   0.00000   0.00000   0.00000   0.00000   0.00000
    D2        3.14159   0.00000   0.00000   0.00000   0.00000   3.14159
    D3        3.14159   0.00000   0.00000   0.00000   0.00000   3.14159
    D4        0.00000   0.00000   0.00000   0.00000   0.00000   0.00000
    D5        3.14159   0.00000   0.00000   0.00000   0.00000   3.14159
    D6        0.00000   0.00000   0.00000   0.00000   0.00000   0.00000
    D7        0.00000   0.00000   0.00000   0.00000   0.00000   0.00000
    D8        3.14159   0.00000   0.00000   0.00000   0.00000   3.14159
    D9        3.14159   0.00000   0.00000   0.00000   0.00000   3.14159
   D10        0.00000   0.00000   0.00000   0.00000   0.00000   0.00000
   D11        0.00000   0.00000   0.00000   0.00000   0.00000   0.00000
   D12        3.14159   0.00000   0.00000   0.00000   0.00000   3.14159
   D13        0.00000   0.00000   0.00000   0.00000   0.00000   0.00000
   D14        3.14159   0.00000   0.00000   0.00000   0.00000   3.14159
   D15        0.00000   0.00000   0.00000   0.00000   0.00000   0.00000
   D16        3.14159   0.00000   0.00000   0.00000   0.00000   3.14159
         Item               Value     Threshold  Converged?
 Maximum Force            0.050652     0.000450     NO 
 RMS     Force            0.016710     0.000300     NO 
 Maximum Displacement     0.154646     0.001800     NO 
 RMS     Displacement     0.050655     0.001200     NO 
 Predicted change in Energy=-1.417149D-02
 GradGradGradGradGradGradGradGradGradGradGradGradGradGradGradGradGradGrad

                          Input orientation:                          
 ---------------------------------------------------------------------
 Center     Atomic     Atomic              Coordinates (Angstroms)
 Number     Number      Type              X           Y           Z
 ---------------------------------------------------------------------
    1          1             0       -1.894469    0.000000   -1.177931
    2          6             0       -0.937932    0.000000   -0.672745
    3          1             0        0.678704    0.000000   -2.186783
    4          6             0        0.362302    0.000000   -1.152248
    5          1             0        2.238694    0.000000    0.095660
    6          6             0        1.158587    0.000000    0.010636
    7          7             0        0.420387    0.000000    1.122742
    8          1             0       -1.582417    0.000000    1.352349
    9          7             0       -0.831639    0.000000    0.678143
 ---------------------------------------------------------------------
                    Distance matrix (angstroms):
                    1          2          3          4          5
     1  H    0.000000
     2  C    1.081746   0.000000
     3  H    2.763874   2.214909   0.000000
     4  C    2.256917   1.385832   1.081838   0.000000
     5  H    4.324936   3.268241   2.764619   2.253469   0.000000
     6  C    3.276254   2.205085   2.249208   1.409386   1.083449
     7  N    3.263687   2.251401   3.319591   2.275731   2.088334
     8  H    2.549449   2.125175   4.199776   3.170951   4.022456
     9  N    2.138835   1.355063   3.238662   2.185366   3.125097
                    6          7          8          9
     6  C    0.000000
     7  N    1.334811   0.000000
     8  H    3.051769   2.015922   0.000000
     9  N    2.099182   1.328623   1.009069   0.000000
 Stoichiometry    C3H4N2
 Framework group  CS[SG(C3H4N2)]
 Deg. of freedom   15
 Full point group                 CS      NOp   2
 Largest Abelian subgroup         CS      NOp   2
 Largest concise Abelian subgroup C1      NOp   1
                         Standard orientation:                         
 ---------------------------------------------------------------------
 Center     Atomic     Atomic              Coordinates (Angstroms)
 Number     Number      Type              X           Y           Z
 ---------------------------------------------------------------------
    1          1             0        2.109082    0.722308    0.000000
    2          6             0        1.111826    0.303196    0.000000
    3          1             0        1.257021   -1.906949    0.000000
    4          6             0        0.657870   -1.006176    0.000000
    5          1             0       -1.497024   -1.665383    0.000000
    6          6             0       -0.746231   -0.884248    0.000000
    7          7             0       -1.137829    0.391828    0.000000
    8          1             0       -0.045067    2.085880    0.000000
    9          7             0        0.000000    1.077818    0.000000
 ---------------------------------------------------------------------
 Rotational constants (GHZ):      9.7158693      9.4419428      4.7884739
 Isotopes: H-1,C-12,H-1,C-12,H-1,C-12,N-14,H-1,N-14
 Standard basis: 6-31G(d,p) (6D, 7F)
 There are    71 symmetry adapted basis functions of A'  symmetry.
 There are    24 symmetry adapted basis functions of A"  symmetry.
 Crude estimate of integral set expansion from redundant integrals=1.000.
 Integral buffers will be    262144 words long.
 Raffenetti 2 integral format.
 Two-electron integral symmetry is turned on.
    95 basis functions      168 primitive gaussians
    18 alpha electrons       18 beta electrons
       nuclear repulsion energy       163.3693265772 Hartrees.
 One-electron integrals computed using PRISM.
 NBasis=    95 RedAO= T  NBF=    71    24
 NBsUse=    95 1.00D-04 NBFU=    71    24
 Initial guess read from the read-write file:
 Initial guess orbital symmetries:
       Occupied  (A') (A') (A') (A') (A') (A') (A') (A') (A') (A')
                 (A') (A') (A") (A') (A') (A') (A") (A")
       Virtual   (A") (A") (A') (A') (A') (A') (A') (A') (A') (A')
                 (A') (A') (A") (A') (A") (A') (A') (A") (A') (A')
                 (A") (A') (A') (A") (A') (A') (A') (A') (A') (A')
                 (A') (A') (A") (A') (A") (A") (A") (A') (A') (A")
                 (A') (A') (A') (A') (A') (A") (A') (A") (A') (A")
                 (A') (A") (A") (A') (A') (A") (A') (A') (A') (A')
                 (A") (A") (A') (A") (A') (A') (A') (A') (A') (A')
                 (A') (A') (A') (A') (A') (A') (A')
 Requested convergence on RMS density matrix=1.00D-08 within  64 cycles.
 Requested convergence on MAX density matrix=1.00D-06.
 Keep R1 and R2 integrals in memory in canonical form, NReq=    21270434.
 Integral accuracy reduced to 1.0D-05 until final iterations.
 Initial convergence to 1.0D-05 achieved.  Increase integral accuracy.
 SCF Done:  E(RB+HF-PW91) =  -226.123139110     A.U. after   13 cycles
             Convg  =    0.5154D-08             -V/T =  2.0093
             S**2   =   0.0000
 ***** Axes restored to original set *****
 -------------------------------------------------------------------
 Center     Atomic                   Forces (Hartrees/Bohr)
 Number     Number              X              Y              Z
 -------------------------------------------------------------------
    1          1           0.000791293    0.000000000    0.000915061
    2          6           0.003936039    0.000000000   -0.002511985
    3          1          -0.000365537    0.000000000    0.001593152
    4          6          -0.004138572    0.000000000    0.001098361
    5          1          -0.001088075    0.000000000   -0.000863604
    6          6           0.001658154    0.000000000    0.002926091
    7          7           0.010899357    0.000000000   -0.000548376
    8          1           0.000686799    0.000000000   -0.001673905
    9          7          -0.012379458    0.000000000   -0.000934795
 -------------------------------------------------------------------
 Cartesian Forces:  Max     0.012379458 RMS     0.003517197

 GradGradGradGradGradGradGradGradGradGradGradGradGradGradGradGradGradGrad
 Berny optimization.
 Internal  Forces:  Max     0.009904663 RMS     0.001986518
 Search for a local minimum.
 Step number   3 out of a maximum of  48
 All quantities printed in internal units (Hartrees-Bohrs-Radians)
 Update second derivatives using information from points  1  2  3
 Trust test= 7.49D-01 RLast= 2.47D-01 DXMaxT set to 4.24D-01
     Eigenvalues ---    0.03203   0.03248   0.03251   0.03273   0.03342
     Eigenvalues ---    0.03372   0.15290   0.16000   0.16003   0.16026
     Eigenvalues ---    0.22054   0.23482   0.46791   0.49523   0.49716
     Eigenvalues ---    0.57273   0.58513   0.60235   0.67054   0.69176
     Eigenvalues ---    0.809801000.000001000.000001000.000001000.00000
     Eigenvalues --- 1000.000001000.000001000.000001000.000001000.00000
     Eigenvalues --- 1000.000001000.000001000.000001000.000001000.00000
     Eigenvalues --- 1000.000001000.000001000.00000
 RFO step:  Lambda=-2.33196419D-04.
 Quartic linear search produced a step of -0.00532.
 Iteration  1 RMS(Cart)=  0.00421346 RMS(Int)=  0.00000974
 Iteration  2 RMS(Cart)=  0.00000994 RMS(Int)=  0.00000156
 Iteration  3 RMS(Cart)=  0.00000000 RMS(Int)=  0.00000156
 Variable       Old X    -DE/DX   Delta X   Delta X   Delta X     New X
                                 (Linear)    (Quad)   (Total)
    R1        2.04420  -0.00113  -0.00039  -0.00097  -0.00136   2.04284
    R2        2.61884  -0.00353  -0.00027  -0.00575  -0.00602   2.61282
    R3        2.56070  -0.00091  -0.00031   0.00041   0.00010   2.56080
    R4        2.04438  -0.00163  -0.00039  -0.00197  -0.00237   2.04201
    R5        2.66335   0.00064  -0.00037   0.00127   0.00090   2.66425
    R6        2.04742  -0.00115  -0.00040  -0.00105  -0.00145   2.04597
    R7        2.52243  -0.00256  -0.00022  -0.00250  -0.00272   2.51971
    R8        2.51073   0.00990  -0.00041   0.01340   0.01299   2.52372
    R9        1.90686  -0.00163  -0.00029  -0.00167  -0.00196   1.90490
    A1        2.30238   0.00008  -0.00035   0.00252   0.00216   2.30454
    A2        2.13522  -0.00084   0.00036  -0.00413  -0.00378   2.13144
    A3        1.84558   0.00076   0.00000   0.00162   0.00162   1.84720
    A4        2.22091  -0.00121   0.00000  -0.00224  -0.00224   2.21867
    A5        1.81791   0.00264   0.00006   0.00566   0.00573   1.82363
    A6        2.24437  -0.00143  -0.00006  -0.00342  -0.00348   2.24089
    A7        2.24977  -0.00054  -0.00022  -0.00237  -0.00259   2.24718
    A8        1.95517  -0.00052  -0.00014  -0.00415  -0.00429   1.95088
    A9        2.07824   0.00106   0.00036   0.00652   0.00688   2.08512
   A10        1.81559  -0.00045   0.00014   0.00300   0.00313   1.81872
   A11        1.99053  -0.00243  -0.00006  -0.00613  -0.00618   1.98435
   A12        2.22399   0.00047  -0.00026  -0.00105  -0.00131   2.22268
   A13        2.06866   0.00196   0.00032   0.00717   0.00749   2.07616
    D1        0.00000   0.00000   0.00000   0.00000   0.00000   0.00000
    D2        3.14159   0.00000   0.00000   0.00000   0.00000   3.14159
    D3        3.14159   0.00000   0.00000   0.00000   0.00000   3.14159
    D4        0.00000   0.00000   0.00000   0.00000   0.00000   0.00000
    D5        3.14159   0.00000   0.00000   0.00000   0.00000   3.14159
    D6        0.00000   0.00000   0.00000   0.00000   0.00000   0.00000
    D7        0.00000   0.00000   0.00000   0.00000   0.00000   0.00000
    D8        3.14159   0.00000   0.00000   0.00000   0.00000   3.14159
    D9        3.14159   0.00000   0.00000   0.00000   0.00000   3.14159
   D10        0.00000   0.00000   0.00000   0.00000   0.00000   0.00000
   D11        0.00000   0.00000   0.00000   0.00000   0.00000   0.00000
   D12        3.14159   0.00000   0.00000   0.00000   0.00000   3.14159
   D13        0.00000   0.00000   0.00000   0.00000   0.00000   0.00000
   D14        3.14159   0.00000   0.00000   0.00000   0.00000   3.14159
   D15        0.00000   0.00000   0.00000   0.00000   0.00000   0.00000
   D16        3.14159   0.00000   0.00000   0.00000   0.00000   3.14159
         Item               Value     Threshold  Converged?
 Maximum Force            0.009905     0.000450     NO 
 RMS     Force            0.001987     0.000300     NO 
 Maximum Displacement     0.011921     0.001800     NO 
 RMS     Displacement     0.004212     0.001200     NO 
 Predicted change in Energy=-1.168510D-04
 GradGradGradGradGradGradGradGradGradGradGradGradGradGradGradGradGradGrad

                          Input orientation:                          
 ---------------------------------------------------------------------
 Center     Atomic     Atomic              Coordinates (Angstroms)
 Number     Number      Type              X           Y           Z
 ---------------------------------------------------------------------
    1          1             0       -1.894667    0.000000   -1.171852
    2          6             0       -0.938643    0.000000   -0.667241
    3          1             0        0.675210    0.000000   -2.176598
    4          6             0        0.359515    0.000000   -1.143157
    5          1             0        2.240366    0.000000    0.095127
    6          6             0        1.160499    0.000000    0.017073
    7          7             0        0.422564    0.000000    1.127627
    8          1             0       -1.590377    0.000000    1.353941
    9          7             0       -0.837120    0.000000    0.684067
 ---------------------------------------------------------------------
                    Distance matrix (angstroms):
                    1          2          3          4          5
     1  H    0.000000
     2  C    1.081025   0.000000
     3  H    2.759309   2.209679   0.000000
     4  C    2.254365   1.382646   1.080585   0.000000
     5  H    4.324781   3.269144   2.758704   2.251876   0.000000
     6  C    3.278351   2.207869   2.246709   1.409862   1.082683
     7  N    3.264531   2.252651   3.313871   2.271659   2.090565
     8  H    2.544056   2.123660   4.194949   3.168214   4.032270
     9  N    2.136081   1.355116   3.235822   2.184189   3.133331
                    6          7          8          9
     6  C    0.000000
     7  N    1.333371   0.000000
     8  H    3.058519   2.025623   0.000000
     9  N    2.106030   1.335496   1.008032   0.000000
 Stoichiometry    C3H4N2
 Framework group  CS[SG(C3H4N2)]
 Deg. of freedom   15
 Full point group                 CS      NOp   2
 Largest Abelian subgroup         CS      NOp   2
 Largest concise Abelian subgroup C1      NOp   1
                         Standard orientation:                         
 ---------------------------------------------------------------------
 Center     Atomic     Atomic              Coordinates (Angstroms)
 Number     Number      Type              X           Y           Z
 ---------------------------------------------------------------------
    1          1             0        2.106554    0.727101    0.000000
    2          6             0        1.111176    0.305393    0.000000
    3          1             0        1.260335   -1.899246    0.000000
    4          6             0        0.659210   -1.001297    0.000000
    5          1             0       -1.489299   -1.675726    0.000000
    6          6             0       -0.746124   -0.888393    0.000000
    7          7             0       -1.140052    0.385460    0.000000
    8          1             0       -0.042803    2.088162    0.000000
    9          7             0        0.000000    1.081039    0.000000
 ---------------------------------------------------------------------
 Rotational constants (GHZ):      9.6782328      9.4630067      4.7847049
 Isotopes: H-1,C-12,H-1,C-12,H-1,C-12,N-14,H-1,N-14
 Standard basis: 6-31G(d,p) (6D, 7F)
 There are    71 symmetry adapted basis functions of A'  symmetry.
 There are    24 symmetry adapted basis functions of A"  symmetry.
 Crude estimate of integral set expansion from redundant integrals=1.000.
 Integral buffers will be    262144 words long.
 Raffenetti 2 integral format.
 Two-electron integral symmetry is turned on.
    95 basis functions      168 primitive gaussians
    18 alpha electrons       18 beta electrons
       nuclear repulsion energy       163.2950889677 Hartrees.
 One-electron integrals computed using PRISM.
 NBasis=    95 RedAO= T  NBF=    71    24
 NBsUse=    95 1.00D-04 NBFU=    71    24
 Initial guess read from the read-write file:
 Initial guess orbital symmetries:
       Occupied  (A') (A') (A') (A') (A') (A') (A') (A') (A') (A')
                 (A') (A') (A") (A') (A') (A') (A") (A")
       Virtual   (A") (A") (A') (A') (A') (A') (A') (A') (A') (A')
                 (A') (A') (A") (A') (A') (A") (A') (A") (A') (A')
                 (A") (A') (A') (A") (A') (A') (A') (A') (A') (A')
                 (A') (A') (A") (A') (A") (A") (A") (A') (A') (A")
                 (A') (A') (A') (A') (A') (A") (A') (A") (A') (A")
                 (A') (A") (A") (A') (A') (A") (A') (A') (A') (A')
                 (A") (A") (A') (A") (A') (A') (A') (A') (A') (A')
                 (A') (A') (A') (A') (A') (A') (A')
 Requested convergence on RMS density matrix=1.00D-08 within  64 cycles.
 Requested convergence on MAX density matrix=1.00D-06.
 Keep R1 and R2 integrals in memory in canonical form, NReq=    21270434.
 SCF Done:  E(RB+HF-PW91) =  -226.123290576     A.U. after   10 cycles
             Convg  =    0.1901D-08             -V/T =  2.0094
             S**2   =   0.0000
 ***** Axes restored to original set *****
 -------------------------------------------------------------------
 Center     Atomic                   Forces (Hartrees/Bohr)
 Number     Number              X              Y              Z
 -------------------------------------------------------------------
    1          1           0.000470180    0.000000000    0.000294163
    2          6           0.002348809    0.000000000   -0.000792844
    3          1          -0.000110526    0.000000000    0.000580278
    4          6          -0.001832193    0.000000000   -0.000808928
    5          1          -0.000697519    0.000000000   -0.000228814
    6          6          -0.001662659    0.000000000    0.001900240
    7          7           0.005812044    0.000000000    0.000980760
    8          1           0.000831693    0.000000000   -0.000472111
    9          7          -0.005159829    0.000000000   -0.001452744
 -------------------------------------------------------------------
 Cartesian Forces:  Max     0.005812044 RMS     0.001743966

 GradGradGradGradGradGradGradGradGradGradGradGradGradGradGradGradGradGrad
 Berny optimization.
 Internal  Forces:  Max     0.004096195 RMS     0.000937015
 Search for a local minimum.
 Step number   4 out of a maximum of  48
 All quantities printed in internal units (Hartrees-Bohrs-Radians)
 Update second derivatives using information from points  1  2  3  4
 Trust test= 1.30D+00 RLast= 2.18D-02 DXMaxT set to 4.24D-01
     Eigenvalues ---    0.03203   0.03248   0.03251   0.03273   0.03342
     Eigenvalues ---    0.03373   0.15245   0.15453   0.16004   0.16231
     Eigenvalues ---    0.21989   0.29661   0.38293   0.47008   0.49562
     Eigenvalues ---    0.49762   0.57397   0.60267   0.61426   0.70454
     Eigenvalues ---    0.741111000.000001000.000001000.000001000.00000
     Eigenvalues --- 1000.000001000.000001000.000001000.000001000.00000
     Eigenvalues --- 1000.000001000.000001000.000001000.000001000.00000
     Eigenvalues --- 1000.000001000.000001000.00000
 RFO step:  Lambda=-7.16631070D-05.
 Quartic linear search produced a step of  0.45296.
 Iteration  1 RMS(Cart)=  0.00274867 RMS(Int)=  0.00000613
 Iteration  2 RMS(Cart)=  0.00000640 RMS(Int)=  0.00000110
 Iteration  3 RMS(Cart)=  0.00000000 RMS(Int)=  0.00000110
 Variable       Old X    -DE/DX   Delta X   Delta X   Delta X     New X
                                 (Linear)    (Quad)   (Total)
    R1        2.04284  -0.00055  -0.00062  -0.00079  -0.00141   2.04143
    R2        2.61282  -0.00228  -0.00273  -0.00464  -0.00737   2.60546
    R3        2.56080  -0.00017   0.00004   0.00058   0.00062   2.56142
    R4        2.04201  -0.00059  -0.00107  -0.00075  -0.00182   2.04019
    R5        2.66425   0.00055   0.00041   0.00105   0.00146   2.66571
    R6        2.04597  -0.00071  -0.00066  -0.00125  -0.00191   2.04407
    R7        2.51971  -0.00184  -0.00123  -0.00288  -0.00411   2.51560
    R8        2.52372   0.00410   0.00588   0.00626   0.01214   2.53586
    R9        1.90490  -0.00094  -0.00089  -0.00149  -0.00238   1.90252
    A1        2.30454  -0.00019   0.00098  -0.00053   0.00045   2.30499
    A2        2.13144  -0.00028  -0.00171  -0.00161  -0.00332   2.12812
    A3        1.84720   0.00047   0.00073   0.00213   0.00287   1.85007
    A4        2.21867  -0.00002  -0.00102   0.00220   0.00118   2.21985
    A5        1.82363   0.00016   0.00259  -0.00360  -0.00100   1.82263
    A6        2.24089  -0.00014  -0.00158   0.00140  -0.00018   2.24070
    A7        2.24718  -0.00084  -0.00117  -0.00451  -0.00569   2.24150
    A8        1.95088   0.00129  -0.00194   0.00734   0.00540   1.95627
    A9        2.08512  -0.00046   0.00312  -0.00282   0.00029   2.08542
   A10        1.81872  -0.00154   0.00142  -0.00696  -0.00554   1.81318
   A11        1.98435  -0.00038  -0.00280   0.00108  -0.00172   1.98263
   A12        2.22268   0.00039  -0.00059   0.00210   0.00151   2.22419
   A13        2.07616  -0.00001   0.00339  -0.00318   0.00021   2.07637
    D1        0.00000   0.00000   0.00000   0.00000   0.00000   0.00000
    D2        3.14159   0.00000   0.00000   0.00000   0.00000   3.14159
    D3        3.14159   0.00000   0.00000   0.00000   0.00000   3.14159
    D4        0.00000   0.00000   0.00000   0.00000   0.00000   0.00000
    D5        3.14159   0.00000   0.00000   0.00000   0.00000   3.14159
    D6        0.00000   0.00000   0.00000   0.00000   0.00000   0.00000
    D7        0.00000   0.00000   0.00000   0.00000   0.00000   0.00000
    D8        3.14159   0.00000   0.00000   0.00000   0.00000   3.14159
    D9        3.14159   0.00000   0.00000   0.00000   0.00000   3.14159
   D10        0.00000   0.00000   0.00000   0.00000   0.00000   0.00000
   D11        0.00000   0.00000   0.00000   0.00000   0.00000   0.00000
   D12        3.14159   0.00000   0.00000   0.00000   0.00000   3.14159
   D13        0.00000   0.00000   0.00000   0.00000   0.00000   0.00000
   D14        3.14159   0.00000   0.00000   0.00000   0.00000   3.14159
   D15        0.00000   0.00000   0.00000   0.00000   0.00000   0.00000
   D16        3.14159   0.00000   0.00000   0.00000   0.00000   3.14159
         Item               Value     Threshold  Converged?
 Maximum Force            0.004096     0.000450     NO 
 RMS     Force            0.000937     0.000300     NO 
 Maximum Displacement     0.008052     0.001800     NO 
 RMS     Displacement     0.002749     0.001200     NO 
 Predicted change in Energy=-5.252684D-05
 GradGradGradGradGradGradGradGradGradGradGradGradGradGradGradGradGradGrad

                          Input orientation:                          
 ---------------------------------------------------------------------
 Center     Atomic     Atomic              Coordinates (Angstroms)
 Number     Number      Type              X           Y           Z
 ---------------------------------------------------------------------
    1          1             0       -1.892471    0.000000   -1.172407
    2          6             0       -0.936806    0.000000   -0.668712
    3          1             0        0.674111    0.000000   -2.175660
    4          6             0        0.357625    0.000000   -1.143470
    5          1             0        2.237273    0.000000    0.090854
    6          6             0        1.158051    0.000000    0.018084
    7          7             0        0.426356    0.000000    1.130158
    8          1             0       -1.592069    0.000000    1.351315
    9          7             0       -0.838941    0.000000    0.683193
 ---------------------------------------------------------------------
                    Distance matrix (angstroms):
                    1          2          3          4          5
     1  H    0.000000
     2  C    1.080279   0.000000
     3  H    2.755695   2.205889   0.000000
     4  C    2.250281   1.378748   1.079620   0.000000
     5  H    4.318635   3.263697   2.753283   2.248696   0.000000
     6  C    3.274591   2.204566   2.246489   1.410634   1.081673
     7  N    3.267838   2.257021   3.315090   2.274667   2.087959
     8  H    2.541537   2.123647   4.192270   3.166269   4.031454
     9  N    2.133817   1.355443   3.234558   2.183682   3.132724
                    6          7          8          9
     6  C    0.000000
     7  N    1.331197   0.000000
     8  H    3.056250   2.030505   0.000000
     9  N    2.104838   1.341922   1.006771   0.000000
 Stoichiometry    C3H4N2
 Framework group  CS[SG(C3H4N2)]
 Deg. of freedom   15
 Full point group                 CS      NOp   2
 Largest Abelian subgroup         CS      NOp   2
 Largest concise Abelian subgroup C1      NOp   1
                         Standard orientation:                         
 ---------------------------------------------------------------------
 Center     Atomic     Atomic              Coordinates (Angstroms)
 Number     Number      Type              X           Y           Z
 ---------------------------------------------------------------------
    1          1             0        2.104341    0.728343    0.000000
    2          6             0        1.110586    0.304725    0.000000
    3          1             0        1.263298   -1.895872    0.000000
    4          6             0        0.662190   -0.999072    0.000000
    5          1             0       -1.481394   -1.678545    0.000000
    6          6             0       -0.743999   -0.887176    0.000000
    7          7             0       -1.145107    0.382154    0.000000
    8          1             0       -0.043156    2.087632    0.000000
    9          7             0        0.000000    1.081786    0.000000
 ---------------------------------------------------------------------
 Rotational constants (GHZ):      9.6960607      9.4409966      4.7834144
 Isotopes: H-1,C-12,H-1,C-12,H-1,C-12,N-14,H-1,N-14
 Standard basis: 6-31G(d,p) (6D, 7F)
 There are    71 symmetry adapted basis functions of A'  symmetry.
 There are    24 symmetry adapted basis functions of A"  symmetry.
 Crude estimate of integral set expansion from redundant integrals=1.000.
 Integral buffers will be    262144 words long.
 Raffenetti 2 integral format.
 Two-electron integral symmetry is turned on.
    95 basis functions      168 primitive gaussians
    18 alpha electrons       18 beta electrons
       nuclear repulsion energy       163.2693176864 Hartrees.
 One-electron integrals computed using PRISM.
 NBasis=    95 RedAO= T  NBF=    71    24
 NBsUse=    95 1.00D-04 NBFU=    71    24
 Initial guess read from the read-write file:
 Initial guess orbital symmetries:
       Occupied  (A') (A') (A') (A') (A') (A') (A') (A') (A') (A')
                 (A') (A') (A") (A') (A') (A') (A") (A")
       Virtual   (A") (A") (A') (A') (A') (A') (A') (A') (A') (A')
                 (A') (A') (A") (A') (A') (A") (A') (A") (A') (A')
                 (A") (A') (A') (A") (A') (A') (A') (A') (A') (A')
                 (A') (A') (A") (A') (A") (A") (A") (A') (A') (A")
                 (A') (A') (A') (A') (A') (A") (A') (A") (A') (A")
                 (A') (A") (A") (A') (A') (A") (A') (A') (A') (A')
                 (A") (A") (A') (A") (A') (A') (A') (A') (A') (A')
                 (A') (A') (A') (A') (A') (A') (A')
 Requested convergence on RMS density matrix=1.00D-08 within  64 cycles.
 Requested convergence on MAX density matrix=1.00D-06.
 Keep R1 and R2 integrals in memory in canonical form, NReq=    21270434.
 SCF Done:  E(RB+HF-PW91) =  -226.123338507     A.U. after   10 cycles
             Convg  =    0.2434D-08             -V/T =  2.0093
             S**2   =   0.0000
 ***** Axes restored to original set *****
 -------------------------------------------------------------------
 Center     Atomic                   Forces (Hartrees/Bohr)
 Number     Number              X              Y              Z
 -------------------------------------------------------------------
    1          1          -0.000025232    0.000000000   -0.000097288
    2          6          -0.000316926    0.000000000    0.001224359
    3          1           0.000157176    0.000000000   -0.000015185
    4          6           0.000570217    0.000000000   -0.000629079
    5          1           0.000161517    0.000000000    0.000032636
    6          6          -0.000000684    0.000000000    0.000486462
    7          7           0.000188591    0.000000000   -0.000764497
    8          1           0.000097128    0.000000000    0.000242752
    9          7          -0.000831786    0.000000000   -0.000480161
 -------------------------------------------------------------------
 Cartesian Forces:  Max     0.001224359 RMS     0.000395813

 GradGradGradGradGradGradGradGradGradGradGradGradGradGradGradGradGradGrad
 Berny optimization.
 Internal  Forces:  Max     0.000955847 RMS     0.000246882
 Search for a local minimum.
 Step number   5 out of a maximum of  48
 All quantities printed in internal units (Hartrees-Bohrs-Radians)
 Update second derivatives using information from points  1  2  3  4  5

 Trust test= 9.13D-01 RLast= 1.88D-02 DXMaxT set to 4.24D-01
     Eigenvalues ---    0.03203   0.03248   0.03250   0.03273   0.03342
     Eigenvalues ---    0.03373   0.14967   0.15209   0.16016   0.16547
     Eigenvalues ---    0.20606   0.31267   0.40424   0.46987   0.49560
     Eigenvalues ---    0.49778   0.57438   0.60221   0.60984   0.70474
     Eigenvalues ---    0.733841000.000001000.000001000.000001000.00000
     Eigenvalues --- 1000.000001000.000001000.000001000.000001000.00000
     Eigenvalues --- 1000.000001000.000001000.000001000.000001000.00000
     Eigenvalues --- 1000.000001000.000001000.00000
 RFO step:  Lambda=-5.16812387D-06.
 Quartic linear search produced a step of -0.06424.
 Iteration  1 RMS(Cart)=  0.00076928 RMS(Int)=  0.00000054
 Iteration  2 RMS(Cart)=  0.00000059 RMS(Int)=  0.00000014
 Variable       Old X    -DE/DX   Delta X   Delta X   Delta X     New X
                                 (Linear)    (Quad)   (Total)
    R1        2.04143   0.00007   0.00009   0.00006   0.00015   2.04158
    R2        2.60546   0.00096   0.00047   0.00089   0.00136   2.60681
    R3        2.56142  -0.00053  -0.00004  -0.00057  -0.00061   2.56080
    R4        2.04019   0.00006   0.00012   0.00002   0.00014   2.04032
    R5        2.66571   0.00005  -0.00009   0.00033   0.00024   2.66595
    R6        2.04407   0.00016   0.00012   0.00019   0.00032   2.04438
    R7        2.51560  -0.00036   0.00026  -0.00086  -0.00059   2.51501
    R8        2.53586   0.00018  -0.00078   0.00126   0.00048   2.53635
    R9        1.90252   0.00009   0.00015  -0.00004   0.00012   1.90264
    A1        2.30499  -0.00017  -0.00003  -0.00094  -0.00097   2.30403
    A2        2.12812  -0.00003   0.00021  -0.00041  -0.00020   2.12792
    A3        1.85007   0.00020  -0.00018   0.00135   0.00116   1.85123
    A4        2.21985   0.00025  -0.00008   0.00125   0.00118   2.22103
    A5        1.82263  -0.00022   0.00006  -0.00074  -0.00067   1.82196
    A6        2.24070  -0.00003   0.00001  -0.00052  -0.00051   2.24020
    A7        2.24150   0.00011   0.00037  -0.00007   0.00029   2.24179
    A8        1.95627  -0.00020  -0.00035  -0.00014  -0.00048   1.95579
    A9        2.08542   0.00009  -0.00002   0.00021   0.00019   2.08561
   A10        1.81318   0.00059   0.00036   0.00127   0.00162   1.81480
   A11        1.98263  -0.00037   0.00011  -0.00174  -0.00163   1.98100
   A12        2.22419   0.00043  -0.00010   0.00244   0.00234   2.22653
   A13        2.07637  -0.00006  -0.00001  -0.00069  -0.00071   2.07566
    D1        0.00000   0.00000   0.00000   0.00000   0.00000   0.00000
    D2        3.14159   0.00000   0.00000   0.00000   0.00000   3.14159
    D3        3.14159   0.00000   0.00000   0.00000   0.00000   3.14159
    D4        0.00000   0.00000   0.00000   0.00000   0.00000   0.00000
    D5        3.14159   0.00000   0.00000   0.00000   0.00000   3.14159
    D6        0.00000   0.00000   0.00000   0.00000   0.00000   0.00000
    D7        0.00000   0.00000   0.00000   0.00000   0.00000   0.00000
    D8        3.14159   0.00000   0.00000   0.00000   0.00000   3.14159
    D9        3.14159   0.00000   0.00000   0.00000   0.00000   3.14159
   D10        0.00000   0.00000   0.00000   0.00000   0.00000   0.00000
   D11        0.00000   0.00000   0.00000   0.00000   0.00000   0.00000
   D12        3.14159   0.00000   0.00000   0.00000   0.00000   3.14159
   D13        0.00000   0.00000   0.00000   0.00000   0.00000   0.00000
   D14        3.14159   0.00000   0.00000   0.00000   0.00000   3.14159
   D15        0.00000   0.00000   0.00000   0.00000   0.00000   0.00000
   D16        3.14159   0.00000   0.00000   0.00000   0.00000   3.14159
         Item               Value     Threshold  Converged?
 Maximum Force            0.000956     0.000450     NO 
 RMS     Force            0.000247     0.000300     YES
 Maximum Displacement     0.002755     0.001800     NO 
 RMS     Displacement     0.000769     0.001200     YES
 Predicted change in Energy=-2.812169D-06
 GradGradGradGradGradGradGradGradGradGradGradGradGradGradGradGradGradGrad

                          Input orientation:                          
 ---------------------------------------------------------------------
 Center     Atomic     Atomic              Coordinates (Angstroms)
 Number     Number      Type              X           Y           Z
 ---------------------------------------------------------------------
    1          1             0       -1.892820    0.000000   -1.173107
    2          6             0       -0.937311    0.000000   -0.668944
    3          1             0        0.674742    0.000000   -2.176665
    4          6             0        0.357550    0.000000   -1.144617
    5          1             0        2.237221    0.000000    0.090436
    6          6             0        1.157865    0.000000    0.017166
    7          7             0        0.425629    0.000000    1.128509
    8          1             0       -1.592392    0.000000    1.352135
    9          7             0       -0.840347    0.000000    0.682701
 ---------------------------------------------------------------------
                    Distance matrix (angstroms):
                    1          2          3          4          5
     1  H    0.000000
     2  C    1.080360   0.000000
     3  H    2.756720   2.207247   0.000000
     4  C    2.250550   1.379467   1.079692   0.000000
     5  H    4.319002   3.264094   2.753377   2.249115   0.000000
     6  C    3.274664   2.204656   2.246398   1.410760   1.081840
     7  N    3.266901   2.255758   3.314549   2.274145   2.087933
     8  H    2.543050   2.124592   4.194321   3.167971   4.032098
     9  N    2.133477   1.355119   3.235966   2.184960   3.134040
                    6          7          8          9
     6  C    0.000000
     7  N    1.330884   0.000000
     8  H    3.057131   2.030373   0.000000
     9  N    2.106131   1.342177   1.006833   0.000000
 Stoichiometry    C3H4N2
 Framework group  CS[SG(C3H4N2)]
 Deg. of freedom   15
 Full point group                 CS      NOp   2
 Largest Abelian subgroup         CS      NOp   2
 Largest concise Abelian subgroup C1      NOp   1
                         Standard orientation:                         
 ---------------------------------------------------------------------
 Center     Atomic     Atomic              Coordinates (Angstroms)
 Number     Number      Type              X           Y           Z
 ---------------------------------------------------------------------
    1          1             0        2.103927    0.728814    0.000000
    2          6             0        1.110015    0.305358    0.000000
    3          1             0        1.263172   -1.896568    0.000000
    4          6             0        0.662390   -0.999465    0.000000
    5          1             0       -1.481599   -1.679044    0.000000
    6          6             0       -0.743935   -0.887697    0.000000
    7          7             0       -1.144458    0.381489    0.000000
    8          1             0       -0.045115    2.088492    0.000000
    9          7             0        0.000000    1.082671    0.000000
 ---------------------------------------------------------------------
 Rotational constants (GHZ):      9.6866739      9.4466659      4.7825823
 Isotopes: H-1,C-12,H-1,C-12,H-1,C-12,N-14,H-1,N-14
 Standard basis: 6-31G(d,p) (6D, 7F)
 There are    71 symmetry adapted basis functions of A'  symmetry.
 There are    24 symmetry adapted basis functions of A"  symmetry.
 Crude estimate of integral set expansion from redundant integrals=1.000.
 Integral buffers will be    262144 words long.
 Raffenetti 2 integral format.
 Two-electron integral symmetry is turned on.
    95 basis functions      168 primitive gaussians
    18 alpha electrons       18 beta electrons
       nuclear repulsion energy       163.2556969448 Hartrees.
 One-electron integrals computed using PRISM.
 NBasis=    95 RedAO= T  NBF=    71    24
 NBsUse=    95 1.00D-04 NBFU=    71    24
 Initial guess read from the read-write file:
 Initial guess orbital symmetries:
       Occupied  (A') (A') (A') (A') (A') (A') (A') (A') (A') (A')
                 (A') (A') (A") (A') (A') (A') (A") (A")
       Virtual   (A") (A") (A') (A') (A') (A') (A') (A') (A') (A')
                 (A') (A') (A") (A') (A') (A") (A') (A") (A') (A')
                 (A") (A') (A') (A") (A') (A') (A') (A') (A') (A')
                 (A') (A') (A") (A') (A") (A") (A") (A') (A') (A")
                 (A') (A') (A') (A') (A') (A") (A') (A") (A') (A")
                 (A') (A") (A") (A') (A') (A") (A') (A') (A') (A')
                 (A") (A") (A') (A") (A') (A') (A') (A') (A') (A')
                 (A') (A') (A') (A') (A') (A') (A')
 Requested convergence on RMS density matrix=1.00D-08 within  64 cycles.
 Requested convergence on MAX density matrix=1.00D-06.
 Keep R1 and R2 integrals in memory in canonical form, NReq=    21270434.
 SCF Done:  E(RB+HF-PW91) =  -226.123341304     A.U. after    8 cycles
             Convg  =    0.9252D-08             -V/T =  2.0093
             S**2   =   0.0000
 ***** Axes restored to original set *****
 -------------------------------------------------------------------
 Center     Atomic                   Forces (Hartrees/Bohr)
 Number     Number              X              Y              Z
 -------------------------------------------------------------------
    1          1           0.000006233    0.000000000   -0.000093452
    2          6          -0.000254374    0.000000000    0.000442076
    3          1           0.000012753    0.000000000    0.000010420
    4          6           0.000087013    0.000000000   -0.000159075
    5          1           0.000034391    0.000000000    0.000039616
    6          6          -0.000255839    0.000000000    0.000262779
    7          7           0.000171150    0.000000000    0.000013954
    8          1           0.000069163    0.000000000    0.000060190
    9          7           0.000129510    0.000000000   -0.000576510
 -------------------------------------------------------------------
 Cartesian Forces:  Max     0.000576510 RMS     0.000174944

 GradGradGradGradGradGradGradGradGradGradGradGradGradGradGradGradGradGrad
 Berny optimization.
 Internal  Forces:  Max     0.000304471 RMS     0.000092724
 Search for a local minimum.
 Step number   6 out of a maximum of  48
 All quantities printed in internal units (Hartrees-Bohrs-Radians)
 Update second derivatives using information from points  1  2  3  4  5
                                                        6
 Trust test= 9.94D-01 RLast= 4.37D-03 DXMaxT set to 4.24D-01
     Eigenvalues ---    0.03203   0.03248   0.03250   0.03273   0.03342
     Eigenvalues ---    0.03373   0.14019   0.15127   0.15510   0.16044
     Eigenvalues ---    0.22800   0.36994   0.41227   0.46692   0.49505
     Eigenvalues ---    0.49707   0.53281   0.58332   0.60395   0.68008
     Eigenvalues ---    0.738471000.000001000.000001000.000001000.00000
     Eigenvalues --- 1000.000001000.000001000.000001000.000001000.00000
     Eigenvalues --- 1000.000001000.000001000.000001000.000001000.00000
     Eigenvalues --- 1000.000001000.000001000.00000
 RFO step:  Lambda=-8.08976753D-07.
 Quartic linear search produced a step of  0.01129.
 Iteration  1 RMS(Cart)=  0.00029485 RMS(Int)=  0.00000010
 Iteration  2 RMS(Cart)=  0.00000010 RMS(Int)=  0.00000001
 Variable       Old X    -DE/DX   Delta X   Delta X   Delta X     New X
                                 (Linear)    (Quad)   (Total)
    R1        2.04158   0.00004   0.00000   0.00008   0.00008   2.04166
    R2        2.60681   0.00011   0.00002   0.00036   0.00038   2.60719
    R3        2.56080  -0.00030  -0.00001  -0.00053  -0.00053   2.56027
    R4        2.04032  -0.00001   0.00000  -0.00003  -0.00003   2.04030
    R5        2.66595   0.00010   0.00000   0.00019   0.00019   2.66614
    R6        2.04438   0.00004   0.00000   0.00010   0.00011   2.04449
    R7        2.51501  -0.00028  -0.00001  -0.00046  -0.00047   2.51454
    R8        2.53635   0.00001   0.00001   0.00012   0.00012   2.53647
    R9        1.90264  -0.00001   0.00000  -0.00002  -0.00002   1.90262
    A1        2.30403  -0.00003  -0.00001  -0.00035  -0.00036   2.30367
    A2        2.12792   0.00013   0.00000   0.00065   0.00065   2.12857
    A3        1.85123  -0.00011   0.00001  -0.00030  -0.00029   1.85095
    A4        2.22103   0.00004   0.00001   0.00020   0.00021   2.22124
    A5        1.82196  -0.00006  -0.00001  -0.00006  -0.00007   1.82189
    A6        2.24020   0.00002  -0.00001  -0.00013  -0.00014   2.24006
    A7        2.24179   0.00000   0.00000   0.00009   0.00009   2.24189
    A8        1.95579   0.00007  -0.00001   0.00013   0.00013   1.95591
    A9        2.08561  -0.00006   0.00000  -0.00022  -0.00022   2.08539
   A10        1.81480  -0.00010   0.00002  -0.00023  -0.00021   1.81459
   A11        1.98100   0.00020  -0.00002   0.00046   0.00044   1.98143
   A12        2.22653  -0.00001   0.00003   0.00048   0.00051   2.22704
   A13        2.07566  -0.00020  -0.00001  -0.00094  -0.00095   2.07471
    D1        0.00000   0.00000   0.00000   0.00000   0.00000   0.00000
    D2        3.14159   0.00000   0.00000   0.00000   0.00000   3.14159
    D3        3.14159   0.00000   0.00000   0.00000   0.00000   3.14159
    D4        0.00000   0.00000   0.00000   0.00000   0.00000   0.00000
    D5        3.14159   0.00000   0.00000   0.00000   0.00000   3.14159
    D6        0.00000   0.00000   0.00000   0.00000   0.00000   0.00000
    D7        0.00000   0.00000   0.00000   0.00000   0.00000   0.00000
    D8        3.14159   0.00000   0.00000   0.00000   0.00000   3.14159
    D9        3.14159   0.00000   0.00000   0.00000   0.00000   3.14159
   D10        0.00000   0.00000   0.00000   0.00000   0.00000   0.00000
   D11        0.00000   0.00000   0.00000   0.00000   0.00000   0.00000
   D12        3.14159   0.00000   0.00000   0.00000   0.00000   3.14159
   D13        0.00000   0.00000   0.00000   0.00000   0.00000   0.00000
   D14        3.14159   0.00000   0.00000   0.00000   0.00000   3.14159
   D15        0.00000   0.00000   0.00000   0.00000   0.00000   0.00000
   D16        3.14159   0.00000   0.00000   0.00000   0.00000   3.14159
         Item               Value     Threshold  Converged?
 Maximum Force            0.000304     0.000450     YES
 RMS     Force            0.000093     0.000300     YES
 Maximum Displacement     0.001124     0.001800     YES
 RMS     Displacement     0.000295     0.001200     YES
 Predicted change in Energy=-4.048388D-07
 Optimization completed.
    -- Stationary point found.
                         ----------------------------
                         !   Optimized Parameters   !
                         ! (Angstroms and Degrees)  !
 ------------------------                            -------------------------
 ! Name  Definition              Value          Derivative Info.             !
 -----------------------------------------------------------------------------
 ! R1    R(1,2)                  1.0804         -DE/DX =    0.               !
 ! R2    R(2,4)                  1.3795         -DE/DX =    0.0001           !
 ! R3    R(2,9)                  1.3551         -DE/DX =   -0.0003           !
 ! R4    R(3,4)                  1.0797         -DE/DX =    0.               !
 ! R5    R(4,6)                  1.4108         -DE/DX =    0.0001           !
 ! R6    R(5,6)                  1.0818         -DE/DX =    0.               !
 ! R7    R(6,7)                  1.3309         -DE/DX =   -0.0003           !
 ! R8    R(7,9)                  1.3422         -DE/DX =    0.               !
 ! R9    R(8,9)                  1.0068         -DE/DX =    0.               !
 ! A1    A(1,2,4)              132.0111         -DE/DX =    0.               !
 ! A2    A(1,2,9)              121.9211         -DE/DX =    0.0001           !
 ! A3    A(4,2,9)              106.0678         -DE/DX =   -0.0001           !
 ! A4    A(2,4,3)              127.2554         -DE/DX =    0.               !
 ! A5    A(2,4,6)              104.3907         -DE/DX =   -0.0001           !
 ! A6    A(3,4,6)              128.3539         -DE/DX =    0.               !
 ! A7    A(4,6,5)              128.4451         -DE/DX =    0.               !
 ! A8    A(4,6,7)              112.0584         -DE/DX =    0.0001           !
 ! A9    A(5,6,7)              119.4965         -DE/DX =   -0.0001           !
 ! A10   A(6,7,9)              103.9804         -DE/DX =   -0.0001           !
 ! A11   A(2,9,7)              113.5027         -DE/DX =    0.0002           !
 ! A12   A(2,9,8)              127.5707         -DE/DX =    0.               !
 ! A13   A(7,9,8)              118.9266         -DE/DX =   -0.0002           !
 ! D1    D(1,2,4,3)              0.             -DE/DX =    0.               !
[...]
 IR Inten    --     2.1096                 0.6811                76.8213
 Raman Activ --     0.0000                 0.0000                 0.0000
 Depolar     --     0.0000                 0.0000                 0.0000
 Atom AN      X      Y      Z        X      Y      Z        X      Y      Z
   1   1     0.76   0.32   0.00    -0.50  -0.22   0.00     0.01   0.00   0.00
   2   6    -0.07  -0.03   0.00     0.05   0.02   0.00     0.00   0.00   0.00
   3   1    -0.28   0.41   0.00    -0.44   0.67   0.00     0.00   0.00   0.00
   4   6     0.03  -0.03   0.00     0.04  -0.06   0.00     0.00   0.00   0.00
   5   1     0.19   0.20   0.00     0.15   0.16   0.00     0.00   0.00   0.00
   6   6    -0.02  -0.02   0.00    -0.02  -0.01   0.00     0.00   0.00   0.00
   7   7     0.00   0.00   0.00     0.00   0.00   0.00     0.00   0.00   0.00
   8   1     0.00  -0.01   0.00     0.00   0.01   0.00    -0.05   1.00   0.00
   9   7     0.00   0.00   0.00     0.00   0.00   0.00     0.01  -0.08   0.00

 -------------------
 - Thermochemistry -
 -------------------
 Temperature   298.150 Kelvin.  Pressure   1.00000 Atm.
 Atom  1 has atomic number  1 and mass   1.00783
 Atom  2 has atomic number  6 and mass  12.00000
 Atom  3 has atomic number  1 and mass   1.00783
 Atom  4 has atomic number  6 and mass  12.00000
 Atom  5 has atomic number  1 and mass   1.00783
 Atom  6 has atomic number  6 and mass  12.00000
 Atom  7 has atomic number  7 and mass  14.00307
 Atom  8 has atomic number  1 and mass   1.00783
 Atom  9 has atomic number  7 and mass  14.00307
 Molecular mass:    68.03745 amu.
 Principal axes and moments of inertia in atomic units:
                           1         2         3
     EIGENVALUES --   186.31175 191.04531 377.35706
           X            0.90880   0.41722   0.00000
           Y           -0.41722   0.90880   0.00000
           Z            0.00000   0.00000   1.00000
 THIS MOLECULE IS AN ASYMMETRIC TOP.
 ROTATIONAL SYMMETRY NUMBER  1.
 ROTATIONAL TEMPERATURES (KELVIN)      0.46488     0.45337     0.22953
 ROTATIONAL CONSTANTS (GHZ)            9.68667     9.44667     4.78258
 Zero-point vibrational energy     188556.3 (Joules/Mol)
                                   45.06603 (Kcal/Mol)
 WARNING-- EXPLICIT CONSIDERATION OF   1 DEGREES OF FREEDOM AS
           VIBRATIONS MAY CAUSE SIGNIFICANT ERROR
 VIBRATIONAL TEMPERATURES:    770.61   919.89  1003.16  1089.07  1210.85
          (KELVIN)           1287.94  1320.97  1354.24  1531.09  1537.09
                             1671.63  1728.47  1863.08  2021.45  2091.56
                             2170.86  2286.06  4699.63  4721.30  4748.51
                             5328.49
 
 Zero-point correction=                           0.071817 (Hartree/Particle)
 Thermal correction to Energy=                    0.075539
 Thermal correction to Enthalpy=                  0.076483
 Thermal correction to Gibbs Free Energy=         0.045563
 Sum of electronic and zero-point Energies=           -226.051524
 Sum of electronic and thermal Energies=              -226.047803
 Sum of electronic and thermal Enthalpies=            -226.046858
 Sum of electronic and thermal Free Energies=         -226.077778
 
                     E (Thermal)             CV                S
                      KCAL/MOL        CAL/MOL-KELVIN    CAL/MOL-KELVIN
 TOTAL                   47.401             13.180             65.076
 ELECTRONIC               0.000              0.000              0.000
 TRANSLATIONAL            0.889              2.981             38.570
 ROTATIONAL               0.889              2.981             24.111
 VIBRATIONAL             45.624              7.219              2.395
 VIBRATION  1             0.891              1.171              0.575
                       Q            LOG10(Q)             LN(Q)
 TOTAL BOT       0.110297D-20        -20.957435        -48.256277
 TOTAL V=0       0.119124D+13         12.076000         27.806018
 VIB (BOT)       0.120523D-32        -32.918931        -75.798640
 VIB (BOT)  1    0.297038D+00         -0.527188         -1.213894
 VIB (V=0)       0.130168D+01          0.114504          0.263654
 VIB (V=0)  1    0.108158D+01          0.034057          0.078420
 ELECTRONIC      0.100000D+01          0.000000          0.000000
 TRANSLATIONAL   0.220588D+08          7.343582         16.909224
 ROTATIONAL      0.414872D+05          4.617914         10.633140
 ***** Axes restored to original set *****
 -------------------------------------------------------------------
 Center     Atomic                   Forces (Hartrees/Bohr)
 Number     Number              X              Y              Z
 -------------------------------------------------------------------
    1          1           0.000006256    0.000000000   -0.000093448
    2          6          -0.000254416    0.000000000    0.000442119
    3          1           0.000012769    0.000000000    0.000010388
    4          6           0.000086962    0.000000000   -0.000159127
    5          1           0.000034426    0.000000000    0.000039612
    6          6          -0.000255800    0.000000000    0.000262828
    7          7           0.000171074    0.000000000    0.000013974
    8          1           0.000069196    0.000000000    0.000060159
    9          7           0.000129533    0.000000000   -0.000576506
 -------------------------------------------------------------------
 Cartesian Forces:  Max     0.000576506 RMS     0.000174949

 GradGradGradGradGradGradGradGradGradGradGradGradGradGradGradGradGradGrad
 Berny optimization.
 Internal  Forces:  Max     0.000304494 RMS     0.000092728
 Search for a local minimum.
 Step number   1 out of a maximum of  48
 All quantities printed in internal units (Hartrees-Bohrs-Radians)
 Second derivative matrix not updated -- analytic derivatives used.
     Eigenvalues ---    0.00747   0.01155   0.01615   0.02794   0.05880
     Eigenvalues ---    0.06214   0.09386   0.10390   0.11117   0.11930
     Eigenvalues ---    0.22350   0.26928   0.35612   0.37333   0.37924
     Eigenvalues ---    0.38203   0.41072   0.43907   0.48682   0.50408
     Eigenvalues ---    0.578771000.000001000.000001000.000001000.00000
     Eigenvalues --- 1000.000001000.000001000.000001000.000001000.00000
     Eigenvalues --- 1000.000001000.000001000.000001000.000001000.00000
     Eigenvalues --- 1000.000001000.000001000.00000
 Angle between quadratic step and forces=  33.85 degrees.
 Linear search not attempted -- first point.
 Iteration  1 RMS(Cart)=  0.00031677 RMS(Int)=  0.00000013
 Iteration  2 RMS(Cart)=  0.00000012 RMS(Int)=  0.00000001
 Variable       Old X    -DE/DX   Delta X   Delta X   Delta X     New X
                                 (Linear)    (Quad)   (Total)
    R1        2.04158   0.00004   0.00000   0.00008   0.00008   2.04167
    R2        2.60681   0.00011   0.00000   0.00045   0.00045   2.60727
    R3        2.56080  -0.00030   0.00000  -0.00083  -0.00083   2.55998
    R4        2.04032  -0.00001   0.00000  -0.00003  -0.00003   2.04029
    R5        2.66595   0.00010   0.00000   0.00020   0.00020   2.66615
    R6        2.04438   0.00004   0.00000   0.00013   0.00013   2.04451
    R7        2.51501  -0.00028   0.00000  -0.00046  -0.00046   2.51455
    R8        2.53635   0.00001   0.00000   0.00016   0.00016   2.53651
    R9        1.90264  -0.00001   0.00000  -0.00001  -0.00001   1.90263
    A1        2.30403  -0.00003   0.00000  -0.00072  -0.00072   2.30331
    A2        2.12792   0.00013   0.00000   0.00091   0.00091   2.12883
    A3        1.85123  -0.00011   0.00000  -0.00019  -0.00019   1.85105
    A4        2.22103   0.00004   0.00000   0.00020   0.00020   2.22123
    A5        1.82196  -0.00006   0.00000  -0.00024  -0.00024   1.82172
    A6        2.24020   0.00002   0.00000   0.00004   0.00004   2.24023
    A7        2.24179   0.00000   0.00000  -0.00001  -0.00001   2.24178
    A8        1.95579   0.00007   0.00000   0.00025   0.00025   1.95604
    A9        2.08561  -0.00006   0.00000  -0.00024  -0.00024   2.08537
   A10        1.81480  -0.00010   0.00000  -0.00035  -0.00035   1.81445
   A11        1.98100   0.00020   0.00000   0.00052   0.00052   1.98152
   A12        2.22653  -0.00001   0.00000   0.00052   0.00052   2.22705
   A13        2.07566  -0.00020   0.00000  -0.00105  -0.00105   2.07461
    D1        0.00000   0.00000   0.00000   0.00000   0.00000   0.00000
    D2        3.14159   0.00000   0.00000   0.00000   0.00000   3.14159
    D3        3.14159   0.00000   0.00000   0.00000   0.00000   3.14159
    D4        0.00000   0.00000   0.00000   0.00000   0.00000   0.00000
    D5        3.14159   0.00000   0.00000   0.00000   0.00000   3.14159
    D6        0.00000   0.00000   0.00000   0.00000   0.00000   0.00000
    D7        0.00000   0.00000   0.00000   0.00000   0.00000   0.00000
    D8        3.14159   0.00000   0.00000   0.00000   0.00000   3.14159
    D9        3.14159   0.00000   0.00000   0.00000   0.00000   3.14159
   D10        0.00000   0.00000   0.00000   0.00000   0.00000   0.00000
   D11        0.00000   0.00000   0.00000   0.00000   0.00000   0.00000
   D12        3.14159   0.00000   0.00000   0.00000   0.00000   3.14159
   D13        0.00000   0.00000   0.00000   0.00000   0.00000   0.00000
   D14        3.14159   0.00000   0.00000   0.00000   0.00000   3.14159
   D15        0.00000   0.00000   0.00000   0.00000   0.00000   0.00000
   D16        3.14159   0.00000   0.00000   0.00000   0.00000   3.14159
         Item               Value     Threshold  Converged?
 Maximum Force            0.000304     0.000450     YES
 RMS     Force            0.000093     0.000300     YES
 Maximum Displacement     0.001178     0.001800     YES
 RMS     Displacement     0.000317     0.001200     YES
 Predicted change in Energy=-5.065590D-07
 Optimization completed.
    -- Stationary point found.
                         ----------------------------
                         !   Optimized Parameters   !
                         ! (Angstroms and Degrees)  !
 ------------------------                            -------------------------
 ! Name  Definition              Value          Derivative Info.             !
 -----------------------------------------------------------------------------
 ! R1    R(1,2)                  1.0804         -DE/DX =    0.               !
 ! R2    R(2,4)                  1.3795         -DE/DX =    0.0001           !
 ! R3    R(2,9)                  1.3551         -DE/DX =   -0.0003           !
 ! R4    R(3,4)                  1.0797         -DE/DX =    0.               !
 ! R5    R(4,6)                  1.4108         -DE/DX =    0.0001           !
 ! R6    R(5,6)                  1.0818         -DE/DX =    0.               !
 ! R7    R(6,7)                  1.3309         -DE/DX =   -0.0003           !
 ! R8    R(7,9)                  1.3422         -DE/DX =    0.               !
 ! R9    R(8,9)                  1.0068         -DE/DX =    0.               !
 ! A1    A(1,2,4)              132.0111         -DE/DX =    0.               !
 ! A2    A(1,2,9)              121.9211         -DE/DX =    0.0001           !
 ! A3    A(4,2,9)              106.0678         -DE/DX =   -0.0001           !
 ! A4    A(2,4,3)              127.2554         -DE/DX =    0.               !
 ! A5    A(2,4,6)              104.3907         -DE/DX =   -0.0001           !
 ! A6    A(3,4,6)              128.3539         -DE/DX =    0.               !
 ! A7    A(4,6,5)              128.4451         -DE/DX =    0.               !
 ! A8    A(4,6,7)              112.0584         -DE/DX =    0.0001           !
 ! A9    A(5,6,7)              119.4965         -DE/DX =   -0.0001           !
 ! A10   A(6,7,9)              103.9804         -DE/DX =   -0.0001           !
 ! A11   A(2,9,7)              113.5027         -DE/DX =    0.0002           !
 ! A12   A(2,9,8)              127.5707         -DE/DX =    0.               !
 ! A13   A(7,9,8)              118.9266         -DE/DX =   -0.0002           !
 ! D1    D(1,2,4,3)              0.             -DE/DX =    0.               !
 ! D2    D(1,2,4,6)            180.             -DE/DX =    0.               !
 ! D3    D(9,2,4,3)            180.             -DE/DX =    0.               !
 ! D4    D(9,2,4,6)              0.             -DE/DX =    0.               !
 ! D5    D(1,2,9,7)            180.             -DE/DX =    0.               !
 ! D6    D(1,2,9,8)              0.             -DE/DX =    0.               !
 ! D7    D(4,2,9,7)              0.             -DE/DX =    0.               !
 ! D8    D(4,2,9,8)            180.             -DE/DX =    0.               !
 ! D9    D(2,4,6,5)            180.             -DE/DX =    0.               !
 ! D10   D(2,4,6,7)              0.             -DE/DX =    0.               !
 ! D11   D(3,4,6,5)              0.             -DE/DX =    0.               !
 ! D12   D(3,4,6,7)            180.             -DE/DX =    0.               !
 ! D13   D(4,6,7,9)              0.             -DE/DX =    0.               !
 ! D14   D(5,6,7,9)            180.             -DE/DX =    0.               !
 ! D15   D(6,7,9,2)              0.             -DE/DX =    0.               !
 ! D16   D(6,7,9,8)            180.             -DE/DX =    0.               !
 -----------------------------------------------------------------------------
 GradGradGradGradGradGradGradGradGradGradGradGradGradGradGradGradGradGrad

 1\1\GINC-AURUM\Freq\RB3PW91\6-31G(d,p)\C3H4N2\RDJ3\05-Jun-2000\0\\#N G
 EOM=ALLCHECK GUESS=TCHECK RB3PW91/6-31G(D,P) FREQ\\1H pyrazole C3H4N2 
 casno=288131\\0,1\H,-1.8926068593,0.,-1.1729100697\C,-0.9370983443,0.,
 -0.6687471348\H,0.674955112,0.,-2.1764677453\C,0.3577628039,0.,-1.1444
 1957\H,2.2374336093,0.,0.0906329116\C,1.1580773475,0.,0.0173633835\N,0
 .4258413599,0.,1.1287061523\H,-1.5921789365,0.,1.3523320892\N,-0.84013
 47553,0.,0.6828985252\\Version=IBM-RS6000-G98RevA.4\State=1-A'\HF=-226
 .1233413\RMSD=3.533e-09\RMSF=1.749e-04\Dipole=-0.8024536,0.,-0.4177179
 \DipoleDeriv=-0.0114548,0.0000464,-0.0485424,0.0000613,0.1740029,0.000
 0237,-0.0327086,0.0000109,0.0732134,0.142025,-0.0000149,-0.1154058,-0.
 000067,-0.081627,-0.0000436,-0.2911356,0.0001065,0.2076615,0.0917914,0
 .00003,0.0281306,0.0000432,0.1576213,-0.0000366,0.0371301,-0.0001176,-
 0.0299855,-0.2528982,0.0000147,0.0009789,-0.0000297,-0.2050285,0.00013
 57,-0.056051,0.0002426,-0.0149068,-0.0523617,-0.0001354,-0.0088562,0.0
 000954,0.1351531,-0.0000284,-0.0266807,-0.00001,0.0785801,0.219119,0.0
 001118,0.1187727,-0.0001057,-0.0597346,-0.0000374,0.1946244,-0.0001824
 ,0.17647,0.0020409,0.0000044,-0.2256885,0.0000145,-0.2368914,-0.000026
 2,-0.0867779,0.0001014,-0.5774752,0.205215,-0.0000369,-0.0440202,0.000
 0215,0.3188438,-0.0000646,-0.0321727,0.0000262,0.2228819,-0.3434759,-0
 .0000201,0.294631,-0.0000335,-0.2023395,0.0000774,0.2937718,-0.0001777
 ,-0.1364391\Polar=49.195478,-0.0006992,17.4818335,-0.3505731,0.0016831
 ,45.1523464\PG=CS [SG(C3H4N2)]\NImag=0\\0.30651427,0.00000006,0.020366
 69,0.13621376,-0.00000029,0.12346111,-0.30099560,-0.00000195,-0.117311
 39,0.86728932,0.00000182,-0.02470233,0.00000124,-0.00000147,0.11697443
 ,-0.12658481,0.00000184,-0.12117139,0.09509834,0.00000218,0.65978863,0
 .00033265,0.00000036,-0.00077716,0.00212892,0.00000038,0.02598732,0.07
 658833,0.00000073,-0.00264187,0.00000025,-0.00000235,-0.00219666,0.000
 00318,0.00000053,0.02187824,0.00037672,-0.00000204,-0.00015654,-0.0035
 5471,-0.00000188,-0.00009093,-0.09429225,-0.00000287,0.35087450,-0.006
 94749,0.00000212,0.00913127,-0.35409835,-0.00000246,0.07797003,-0.0839
 3327,0.00000136,0.08802173,0.63341249,-0.00000175,0.00067951,-0.000000
 87,0.00000254,-0.06186478,-0.00000524,-0.00000069,-0.02574999,0.000003
 60,-0.00000184,0.11466386,-0.01524332,0.00000300,0.01294664,0.10586080
 ,-0.00000040,-0.14278726,0.08549586,0.00000337,-0.33786808,-0.11980649
 ,-0.00000587,0.83997869,-0.00024027,-0.00000294,0.00026535,-0.00075383
 ,-0.00000106,-0.00124248,-0.00007232,-0.00000403,-0.00040887,-0.005102
 54,0.00000694,0.00395322,0.37417814,-0.00000201,0.00090453,-0.00000123
 ,0.00000124,0.00446049,0.00000047,-0.00000028,-0.00185479,0.00000100,0
 .00000459,0.00074142,0.00000270,-0.00000215,0.02457866,-0.00108318,-0.
 00000039,0.00111266,-0.00292154,0.00000050,-0.00594985,0.00083935,-0.0
 0000010,0.00021709,-0.02192870,-0.00000018,0.00686632,0.02091353,0.000
 00011,0.05614372,-0.00449542,0.00000158,0.00471437,-0.05348899,0.00000
 244,0.00067178,0.01318626,0.00000360,0.01257203,-0.18260918,-0.0000071
 6,-0.11146566,-0.35351037,0.00000095,-0.03210838,0.88875236,0.00000217
 ,0.00494391,0.00000134,0.00000019,0.01070013,-0.00000048,0.00000022,-0
 .00313610,-0.00000035,-0.00000448,-0.06458513,-0.00000119,0.00000166,-
 0.03041943,-0.00000002,-0.00000001,0.13859587,0.00096897,-0.00000048,-
 0.00237399,-0.06993042,0.00000076,0.03575489,-0.01505103,-0.00000193,-
 0.00907050,-0.07636626,0.00000736,-0.23874039,-0.02467501,-0.00000739,
 -0.06095510,-0.00995052,0.00000319,0.62218684,0.00065231,0.00000086,0.
 00049234,-0.05855278,0.00000134,-0.05010458,-0.00207350,0.00000159,-0.
 00110732,0.02737785,-0.00000216,0.03962477,-0.01384877,-0.00000158,0.0
 2838791,-0.18298222,0.00000102,0.14807251,0.51964346,0.00000060,0.0066
 5165,0.00000019,-0.00000133,0.01733571,0.00000279,0.00000011,0.0066317
 0,-0.00000108,0.00000273,0.02015887,0.00000296,-0.00000418,-0.00777566
 ,0.00000037,0.00000337,-0.07243730,-0.00000566,0.00000009,0.10560393,0
 .00216493,-0.00000005,-0.00568622,-0.01894716,0.00000165,-0.06694909,-
 0.00603438,0.00000205,-0.00416967,-0.03318430,-0.00000576,-0.07666952,
 -0.00093222,0.00000274,0.00635789,0.11178452,-0.00000060,-0.31215694,-
 0.04747126,0.00000270,0.57093901,-0.00023149,0.00000026,0.00037112,0.0
 0978678,-0.00000195,-0.00449266,0.00072016,-0.00000086,-0.00002395,0.0
 0214546,0.00000131,-0.00328561,-0.00041933,0.00000005,0.00147231,-0.00
 754423,0.00000012,-0.00557480,-0.02170148,-0.00000036,0.02461663,0.300
 46792,0.00000042,-0.00147674,0.00000033,-0.00000168,-0.00797521,0.0000
 0259,0.00000010,0.00227102,-0.00000112,0.00000171,0.00309140,0.0000012
 9,-0.00000350,0.00225088,0.00000033,0.00000369,0.00444437,-0.00000349,
 0.00000122,-0.01250333,0.00000293,-0.00000070,0.01270675,-0.00060791,-
 0.00000022,0.00013187,0.02558730,0.00000147,-0.00525120,0.00129179,0.0
 0000062,0.00014721,-0.00237077,-0.00000079,-0.00707531,-0.00049799,0.0
 0000024,0.00098236,-0.00599359,-0.00000048,0.00097921,-0.01038537,0.00
 000030,0.01589629,-0.20928944,0.00000050,0.25342499,0.00541105,-0.0000
 0036,-0.03309965,-0.11131547,0.00000096,-0.01730295,-0.00687723,-0.000
 00057,-0.00158338,-0.03024497,0.00000281,0.01486642,-0.00023069,-0.000
 00080,0.00642870,-0.11730822,-0.00000089,0.05250654,-0.26851486,-0.000
 00105,-0.03199676,-0.28322376,-0.00000127,0.20226598,0.81230412,-0.000
 00204,-0.00472534,-0.00000096,0.00000480,-0.05273177,-0.00000732,-0.00
 000073,0.00479845,0.00000473,-0.00000371,0.01286483,-0.00000585,0.0000
 0926,0.00711390,-0.00000062,-0.00000850,0.01189368,0.00000764,-0.00000
 236,-0.06366557,-0.00000568,0.00000212,-0.00280915,-0.00000163,0.00000
 116,0.08726097,0.00379484,-0.00000137,-0.00826414,-0.01388121,-0.00000
 551,-0.35334380,0.00254051,-0.00000457,0.00011693,0.07853348,0.0000077
 5,-0.05665109,0.00262448,0.00000136,-0.00477508,0.02977544,-0.00000142
 ,-0.03562403,-0.10750901,-0.00000258,-0.12756175,0.19620639,-0.0000033
 7,-0.25923541,-0.19208490,0.00000970,0.84533835\\-0.00000626,0.,0.0000
 9345,0.00025442,0.,-0.00044212,-0.00001277,0.,-0.00001039,-0.00008696,
 0.,0.00015913,-0.00003443,0.,-0.00003961,0.00025580,0.,-0.00026283,-0.
 00017107,0.,-0.00001397,-0.00006920,0.,-0.00006016,-0.00012953,0.,0.00
 057651\\\@


 Money is a good servant but a bad master.
                        -- French Proverb
 Job cpu time:  0 days  0 hours 15 minutes 37.4 seconds.
 File lengths (MBytes):  RWF=   15 Int=    0 D2E=    0 Chk=    3 Scr=    1
 Normal termination of Gaussian 98.
