 Entering Link 1 = C:\G03W\l1.exe PID=     20048.
  
 Copyright (c) 1988,1990,1992,1993,1995,1998,2003, Gaussian, Inc.
                  All Rights Reserved.
  
 This is the Gaussian(R) 03 program.  It is based on the
 the Gaussian(R) 98 system (copyright 1998, Gaussian, Inc.),
 the Gaussian(R) 94 system (copyright 1995, Gaussian, Inc.),
 the Gaussian 92(TM) system (copyright 1992, Gaussian, Inc.),
 the Gaussian 90(TM) system (copyright 1990, Gaussian, Inc.),
 the Gaussian 88(TM) system (copyright 1988, Gaussian, Inc.),
 the Gaussian 86(TM) system (copyright 1986, Carnegie Mellon
 University), and the Gaussian 82(TM) system (copyright 1983,
 Carnegie Mellon University). Gaussian is a federally registered
 trademark of Gaussian, Inc.
  
 This software contains proprietary and confidential information,
 including trade secrets, belonging to Gaussian, Inc.
  
 This software is provided under written license and may be
 used, copied, transmitted, or stored only in accord with that
 written license.
  
 The following legend is applicable only to US Government
 contracts under DFARS:
  
                    RESTRICTED RIGHTS LEGEND
  
 Use, duplication or disclosure by the US Government is subject
 to restrictions as set forth in subparagraph (c)(1)(ii) of the
 Rights in Technical Data and Computer Software clause at DFARS
 252.227-7013.
  
 Gaussian, Inc.
 Carnegie Office Park, Building 6, Pittsburgh, PA 15106 USA
  
 The following legend is applicable only to US Government
 contracts under FAR:
  
                    RESTRICTED RIGHTS LEGEND
  
 Use, reproduction and disclosure by the US Government is subject
 to restrictions as set forth in subparagraph (c) of the
 Commercial Computer Software - Restricted Rights clause at FAR
 52.227-19.
  
 Gaussian, Inc.
 Carnegie Office Park, Building 6, Pittsburgh, PA 15106 USA
  
  
 ---------------------------------------------------------------
 Warning -- This program may not be used in any manner that
 competes with the business of Gaussian, Inc. or will provide
 assistance to any competitor of Gaussian, Inc.  The licensee
 of this program is prohibited from giving any competitor of
 Gaussian, Inc. access to this program.  By using this program,
 the user acknowledges that Gaussian, Inc. is engaged in the
 business of creating and licensing software in the field of
 computational chemistry and represents and warrants to the
 licensee that it is not a competitor of Gaussian, Inc. and that
 it will not use this program in any manner prohibited above.
 ---------------------------------------------------------------
  

 Cite this work as:
 Gaussian 03, Revision B.05,
 M. J. Frisch, G. W. Trucks, H. B. Schlegel, G. E. Scuseria, 
 M. A. Robb, J. R. Cheeseman, J. A. Montgomery, Jr., T. Vreven, 
 K. N. Kudin, J. C. Burant, J. M. Millam, S. S. Iyengar, J. Tomasi, 
 V. Barone, B. Mennucci, M. Cossi, G. Scalmani, N. Rega, 
 G. A. Petersson, H. Nakatsuji, M. Hada, M. Ehara, K. Toyota, 
 R. Fukuda, J. Hasegawa, M. Ishida, T. Nakajima, Y. Honda, O. Kitao, 
 H. Nakai, M. Klene, X. Li, J. E. Knox, H. P. Hratchian, J. B. Cross, 
 C. Adamo, J. Jaramillo, R. Gomperts, R. E. Stratmann, O. Yazyev, 
 A. J. Austin, R. Cammi, C. Pomelli, J. W. Ochterski, P. Y. Ayala, 
 K. Morokuma, G. A. Voth, P. Salvador, J. J. Dannenberg, 
 V. G. Zakrzewski, S. Dapprich, A. D. Daniels, M. C. Strain, 
 O. Farkas, D. K. Malick, A. D. Rabuck, K. Raghavachari, 
 J. B. Foresman, J. V. Ortiz, Q. Cui, A. G. Baboul, S. Clifford, 
 J. Cioslowski, B. B. Stefanov, G. Liu, A. Liashenko, P. Piskorz, 
 I. Komaromi, R. L. Martin, D. J. Fox, T. Keith, M. A. Al-Laham, 
 C. Y. Peng, A. Nanayakkara, M. Challacombe, P. M. W. Gill, 
 B. Johnson, W. Chen, M. W. Wong, C. Gonzalez, and J. A. Pople, 
 Gaussian, Inc., Pittsburgh PA, 2003.
 
 **********************************************
 Gaussian 03:  x86-Win32-G03RevB.05  8-Nov-2003
                  30-Aug-2004 
 **********************************************
 %mem=56000000
 Default route:  MaxDisk=6000MB MP2=InCore
 -----------------------
 #B3PW91/STO-3G opt freq
 -----------------------
 1/14=-1,18=20,26=3,38=1/1,3;
 2/9=110,17=6,18=5,40=1/2;
 3/6=3,11=2,16=1,25=1,30=1,74=-6/1,2,3;
 4//1;
 5/5=2,38=5/2;
 6/7=2,8=2,9=2,10=2,28=1/1;
 7//1,2,3,16;
 1/14=-1,18=20/3(1);
 99//99;
 2/9=110/2;
 3/6=3,11=2,16=1,25=1,30=1,74=-6/1,2,3;
 4/5=5,16=3/1;
 5/5=2,38=5/2;
 7//1,2,3,16;
 1/14=-1,18=20/3(-5);
 2/9=110/2;
 6/7=2,8=2,9=2,10=2,19=2,28=1/1;
 99/9=1/99;
 ---------------------------------------------------
 1hpyraz 1H-Pyrazole casno=288131 method=16 basis=20
 ---------------------------------------------------
 Symbolic Z-matrix:
 Charge =  0 Multiplicity = 1
 H                     2.08995   0.71705   0. 
 C                     1.10513   0.31286   0. 
 H                     1.2716   -1.86097   0. 
 C                     0.67589  -0.98015   0. 
 H                    -1.44178  -1.69836   0. 
 C                    -0.74155  -0.89685   0. 
 N                    -1.15616   0.34853   0. 
 H                    -0.06343   2.09008   0. 
 N                     0.        1.09962   0. 
 

 GradGradGradGradGradGradGradGradGradGradGradGradGradGradGradGradGradGrad
 Berny optimization.
 Initialization pass.
                           ----------------------------
                           !    Initial Parameters    !
                           ! (Angstroms and Degrees)  !
 --------------------------                            --------------------------
 ! Name  Definition              Value          Derivative Info.                !
 --------------------------------------------------------------------------------
 ! R1    R(1,2)                  1.0645         estimate D2E/DX2                !
 ! R2    R(2,4)                  1.3624         estimate D2E/DX2                !
 ! R3    R(2,9)                  1.3566         estimate D2E/DX2                !
 ! R4    R(3,4)                  1.0633         estimate D2E/DX2                !
 ! R5    R(4,6)                  1.4199         estimate D2E/DX2                !
 ! R6    R(5,6)                  1.0643         estimate D2E/DX2                !
 ! R7    R(6,7)                  1.3126         estimate D2E/DX2                !
 ! R8    R(7,9)                  1.3787         estimate D2E/DX2                !
 ! R9    R(8,9)                  0.9925         estimate D2E/DX2                !
 ! A1    A(1,2,4)              130.6788         estimate D2E/DX2                !
 ! A2    A(1,2,9)              122.2381         estimate D2E/DX2                !
 ! A3    A(4,2,9)              107.0831         estimate D2E/DX2                !
 ! A4    A(2,4,3)              127.5639         estimate D2E/DX2                !
 ! A5    A(2,4,6)              105.0013         estimate D2E/DX2                !
 ! A6    A(3,4,6)              127.4349         estimate D2E/DX2                !
 ! A7    A(4,6,5)              127.7783         estimate D2E/DX2                !
 ! A8    A(4,6,7)              111.7767         estimate D2E/DX2                !
 ! A9    A(5,6,7)              120.445          estimate D2E/DX2                !
 ! A10   A(6,7,9)              104.596          estimate D2E/DX2                !
 ! A11   A(2,9,7)              111.5429         estimate D2E/DX2                !
 ! A12   A(2,9,8)              129.112          estimate D2E/DX2                !
 ! A13   A(7,9,8)              119.345          estimate D2E/DX2                !
 ! D1    D(1,2,4,3)              0.0            estimate D2E/DX2                !
 ! D2    D(1,2,4,6)            180.0            estimate D2E/DX2                !
 ! D3    D(9,2,4,3)            180.0            estimate D2E/DX2                !
 ! D4    D(9,2,4,6)              0.0            estimate D2E/DX2                !
 ! D5    D(1,2,9,7)            180.0            estimate D2E/DX2                !
 ! D6    D(1,2,9,8)              0.0            estimate D2E/DX2                !
 ! D7    D(4,2,9,7)              0.0            estimate D2E/DX2                !
 ! D8    D(4,2,9,8)            180.0            estimate D2E/DX2                !
 ! D9    D(2,4,6,5)            180.0            estimate D2E/DX2                !
 ! D10   D(2,4,6,7)              0.0            estimate D2E/DX2                !
 ! D11   D(3,4,6,5)              0.0            estimate D2E/DX2                !
 ! D12   D(3,4,6,7)            180.0            estimate D2E/DX2                !
 ! D13   D(4,6,7,9)              0.0            estimate D2E/DX2                !
 ! D14   D(5,6,7,9)            180.0            estimate D2E/DX2                !
 ! D15   D(6,7,9,2)              0.0            estimate D2E/DX2                !
 ! D16   D(6,7,9,8)            180.0            estimate D2E/DX2                !
 --------------------------------------------------------------------------------
 Trust Radius=3.00D-01 FncErr=1.00D-07 GrdErr=1.00D-06
 Number of steps in this run=  48 maximum allowed number of steps= 100.
 GradGradGradGradGradGradGradGradGradGradGradGradGradGradGradGradGradGrad

                          Input orientation:                          
 ---------------------------------------------------------------------
 Center     Atomic     Atomic              Coordinates (Angstroms)
 Number     Number      Type              X           Y           Z
 ---------------------------------------------------------------------
    1          1             0        2.089952    0.717051    0.000000
    2          6             0        1.105128    0.312860    0.000000
    3          1             0        1.271601   -1.860965    0.000000
    4          6             0        0.675886   -0.980154    0.000000
    5          1             0       -1.441780   -1.698362    0.000000
    6          6             0       -0.741552   -0.896852    0.000000
    7          7             0       -1.156159    0.348533    0.000000
    8          1             0       -0.063431    2.090083    0.000000
    9          7             0        0.000000    1.099620    0.000000
 ---------------------------------------------------------------------
                    Distance matrix (angstroms):
                    1          2          3          4          5
     1  H    0.000000
     2  C    1.064542   0.000000
     3  H    2.704786   2.180190   0.000000
     4  C    2.209092   1.362400   1.063346   0.000000
     5  H    4.278709   3.245266   2.718249   2.236142   0.000000
     6  C    3.259156   2.207630   2.232106   1.419884   1.064301
     7  N    3.266962   2.261568   3.282667   2.263139   2.066727
     8  H    2.553875   2.126982   4.170502   3.157997   4.031397
     9  N    2.124678   1.356576   3.222116   2.186843   3.147607
                    6          7          8          9
     6  C    0.000000
     7  N    1.312586   0.000000
     8  H    3.062944   2.055979   0.000000
     9  N    2.129742   1.378708   0.992492   0.000000
 Stoichiometry    C3H4N2
 Framework group  CS[SG(C3H4N2)]
 Deg. of freedom    15
 Full point group                 CS      NOp   2
 Largest Abelian subgroup         CS      NOp   2
 Largest concise Abelian subgroup C1      NOp   1
                         Standard orientation:                         
 ---------------------------------------------------------------------
 Center     Atomic     Atomic              Coordinates (Angstroms)
 Number     Number      Type              X           Y           Z
 ---------------------------------------------------------------------
    1          1             0        2.089952    0.717051    0.000000
    2          6             0        1.105128    0.312860    0.000000
    3          1             0        1.271601   -1.860965    0.000000
    4          6             0        0.675886   -0.980154    0.000000
    5          1             0       -1.441780   -1.698362    0.000000
    6          6             0       -0.741552   -0.896852    0.000000
    7          7             0       -1.156159    0.348533    0.000000
    8          1             0       -0.063431    2.090083    0.000000
    9          7             0        0.000000    1.099620    0.000000
 ---------------------------------------------------------------------
 Rotational constants (GHZ):      9.6634953      9.4401160      4.7752498
 Standard basis: STO-3G (5D, 7F)
 There are    24 symmetry adapted basis functions of A'  symmetry.
 There are     5 symmetry adapted basis functions of A"  symmetry.
 Integral buffers will be    262144 words long.
 Raffenetti 2 integral format.
 Two-electron integral symmetry is turned on.
    29 basis functions,    87 primitive gaussians,    29 cartesian basis functions
    18 alpha electrons       18 beta electrons
       nuclear repulsion energy       163.2122889088 Hartrees.
 NAtoms=    9 NActive=    9 NUniq=    9 SFac= 1.00D+00 NAtFMM=   60 Big=F
 One-electron integrals computed using PRISM.
 NBasis=    29 RedAO= T  NBF=    24     5
 NBsUse=    29 1.00D-06 NBFU=    24     5
 Harris functional with IExCor=  408 diagonalized for initial guess.
 ExpMin= 1.69D-01 ExpMax= 9.91D+01 ExpMxC= 9.91D+01 IAcc=1 IRadAn=         1 AccDes= 1.00D-06
 HarFok:  IExCor= 408 AccDes= 1.00D-06 IRadAn=         1 IDoV=1
 ScaDFX=  1.000000  1.000000  1.000000  1.000000
 Initial guess orbital symmetries:
       Occupied  (A') (A') (A') (A') (A') (A') (A') (A') (A') (A')
                 (A') (A') (A') (A') (A") (A') (A") (A")
       Virtual   (A") (A") (A') (A') (A') (A') (A') (A') (A') (A')
                 (A')
 The electronic state of the initial guess is 1-A'.
 Requested convergence on RMS density matrix=1.00D-08 within 128 cycles.
 Requested convergence on MAX density matrix=1.00D-06.
 Requested convergence on             energy=1.00D-06.
 No special actions if energy rises.
 Keep R1 integrals in memory in canonical form, NReq=      600408.
 Integral accuracy reduced to 1.0D-05 until final iterations.
 Initial convergence to 1.0D-05 achieved.  Increase integral accuracy.
 SCF Done:  E(RB+HF-PW91) =  -223.262312623     A.U. after   13 cycles
             Convg  =    0.5350D-08             -V/T =  2.0161
             S**2   =   0.0000

 **********************************************************************

            Population analysis using the SCF density.

 **********************************************************************

 Orbital symmetries:
       Occupied  (A') (A') (A') (A') (A') (A') (A') (A') (A') (A')
                 (A') (A') (A') (A") (A') (A") (A') (A")
       Virtual   (A") (A") (A') (A') (A') (A') (A') (A') (A') (A')
                 (A')
 The electronic state is 1-A'.
 Alpha  occ. eigenvalues --  -14.23845 -14.12999 -10.02749  -9.99785  -9.97288
 Alpha  occ. eigenvalues --   -1.00537  -0.79141  -0.73759  -0.58202  -0.55437
 Alpha  occ. eigenvalues --   -0.50946  -0.40827  -0.38772  -0.38373  -0.35907
 Alpha  occ. eigenvalues --   -0.20539  -0.19865  -0.18674
 Alpha virt. eigenvalues --    0.11150   0.17947   0.30833   0.34155   0.42593
 Alpha virt. eigenvalues --    0.43767   0.47348   0.52145   0.62198   0.65576
 Alpha virt. eigenvalues --    0.80362
          Condensed to atoms (all electrons):
              1          2          3          4          5          6
     1  H    0.540832   0.394366  -0.001467  -0.019226  -0.000024   0.001996
     2  C    0.394366   4.812018  -0.020786   0.547609   0.001579  -0.059745
     3  H   -0.001467  -0.020786   0.550148   0.396687  -0.001211  -0.018127
     4  C   -0.019226   0.547609   0.396687   4.853864  -0.021908   0.474517
     5  H   -0.000024   0.001579  -0.001211  -0.021908   0.548031   0.396467
     6  C    0.001996  -0.059745  -0.018127   0.474517   0.396467   4.851676
     7  N    0.001326  -0.050249   0.001129  -0.041939  -0.024557   0.456638
     8  H   -0.001447  -0.028789  -0.000051   0.002472  -0.000078   0.003730
     9  N   -0.019702   0.422086   0.001498  -0.063632   0.002510  -0.070917
              7          8          9
     1  H    0.001326  -0.001447  -0.019702
     2  C   -0.050249  -0.028789   0.422086
     3  H    0.001129  -0.000051   0.001498
     4  C   -0.041939   0.002472  -0.063632
     5  H   -0.024557  -0.000078   0.002510
     6  C    0.456638   0.003730  -0.070917
     7  N    6.527876  -0.026826   0.321204
     8  H   -0.026826   0.438558   0.353817
     9  N    0.321204   0.353817   6.259094
 Mulliken atomic charges:
              1
     1  H    0.103346
     2  C   -0.018089
     3  H    0.092179
     4  C   -0.128444
     5  H    0.099191
     6  C   -0.036235
     7  N   -0.164603
     8  H    0.258614
     9  N   -0.205959
 Sum of Mulliken charges=   0.00000
 Atomic charges with hydrogens summed into heavy atoms:
              1
     1  H    0.000000
     2  C    0.085257
     3  H    0.000000
     4  C   -0.036265
     5  H    0.000000
     6  C    0.062955
     7  N   -0.164603
     8  H    0.000000
     9  N    0.052655
 Sum of Mulliken charges=   0.00000
 Electronic spatial extent (au):  <R**2>=   281.0232
 Charge=     0.0000 electrons
 Dipole moment (field-independent basis, Debye):
    X=     1.8029    Y=     1.0849    Z=     0.0000  Tot=     2.1041
 Quadrupole moment (field-independent basis, Debye-Ang):
   XX=   -28.0749   YY=   -21.2901   ZZ=   -28.3486
   XY=     1.9715   XZ=     0.0000   YZ=     0.0000
 Traceless Quadrupole moment (field-independent basis, Debye-Ang):
   XX=    -2.1704   YY=     4.6144   ZZ=    -2.4441
   XY=     1.9715   XZ=     0.0000   YZ=     0.0000
 Octapole moment (field-independent basis, Debye-Ang**2):
  XXX=     6.1751  YYY=    11.9251  ZZZ=     0.0000  XYY=    -0.2382
  XXY=    -1.4376  XXZ=     0.0000  XZZ=    -1.2022  YZZ=     1.7162
  YYZ=     0.0000  XYZ=     0.0000
 Hexadecapole moment (field-independent basis, Debye-Ang**3):
 XXXX=  -158.6798 YYYY=  -126.1722 ZZZZ=   -21.2134 XXXY=     6.2070
 XXXZ=     0.0000 YYYX=    -2.9380 YYYZ=     0.0000 ZZZX=     0.0000
 ZZZY=     0.0000 XXYY=   -47.6544 XXZZ=   -31.5780 YYZZ=   -31.4916
 XXYZ=     0.0000 YYXZ=     0.0000 ZZXY=    -0.7785
 N-N= 1.632122889088D+02 E-N=-8.450858900157D+02  KE= 2.197142513635D+02
 Symmetry A'   KE= 2.107351865190D+02
 Symmetry A"   KE= 8.979064844448D+00
 ***** Axes restored to original set *****
 -------------------------------------------------------------------
 Center     Atomic                   Forces (Hartrees/Bohr)
 Number     Number              X              Y              Z
 -------------------------------------------------------------------
    1          1           0.023918767    0.010918076    0.000000000
    2          6           0.026725641   -0.010444738    0.000000000
    3          1           0.014322306   -0.019263640    0.000000000
    4          6          -0.009190762   -0.007607912    0.000000000
    5          1          -0.017953232   -0.019603584    0.000000000
    6          6           0.037268914   -0.039731782    0.000000000
    7          7          -0.069055844    0.055179492    0.000000000
    8          1          -0.002120621    0.056175884    0.000000000
    9          7          -0.003915168   -0.025621797    0.000000000
 -------------------------------------------------------------------
 Cartesian Forces:  Max     0.069055844 RMS     0.025497243

 GradGradGradGradGradGradGradGradGradGradGradGradGradGradGradGradGradGrad
 Berny optimization.
 Internal  Forces:  Max     0.071130957 RMS     0.019773452
 Search for a local minimum.
 Step number   1 out of a maximum of  48
 All quantities printed in internal units (Hartrees-Bohrs-Radians)
 Second derivative matrix not updated -- first step.
     Eigenvalues ---    0.01994   0.02072   0.02122   0.02269   0.02364
     Eigenvalues ---    0.02460   0.16000   0.16000   0.16000   0.16000
     Eigenvalues ---    0.22000   0.22915   0.37929   0.37960   0.38084
     Eigenvalues ---    0.39349   0.46543   0.49033   0.49225   0.52023
     Eigenvalues ---    0.613711000.000001000.000001000.000001000.00000
     Eigenvalues --- 1000.000001000.000001000.000001000.000001000.00000
     Eigenvalues --- 1000.000001000.000001000.000001000.000001000.00000
     Eigenvalues --- 1000.000001000.000001000.00000
 RFO step:  Lambda=-2.81592435D-02.
 Linear search not attempted -- first point.
 Iteration  1 RMS(Cart)=  0.04442498 RMS(Int)=  0.00055489
 Iteration  2 RMS(Cart)=  0.00061732 RMS(Int)=  0.00020262
 Iteration  3 RMS(Cart)=  0.00000023 RMS(Int)=  0.00020262
 Variable       Old X    -DE/DX   Delta X   Delta X   Delta X     New X
                                 (Linear)    (Quad)   (Total)
    R1        2.01169   0.02627   0.00000   0.06448   0.06448   2.07617
    R2        2.57456   0.02520   0.00000   0.04194   0.04161   2.61618
    R3        2.56356   0.04552   0.00000   0.07986   0.07990   2.64345
    R4        2.00943   0.02398   0.00000   0.05863   0.05863   2.06807
    R5        2.68319   0.01612   0.00000   0.03407   0.03386   2.71705
    R6        2.01124   0.02658   0.00000   0.06518   0.06518   2.07641
    R7        2.48043   0.07113   0.00000   0.10902   0.10919   2.58962
    R8        2.60538   0.03275   0.00000   0.06601   0.06635   2.67173
    R9        1.87554   0.05620   0.00000   0.10838   0.10838   1.98392
    A1        2.28078   0.00109   0.00000   0.01155   0.01172   2.29250
    A2        2.13346  -0.00098   0.00000   0.00055   0.00072   2.13418
    A3        1.86895  -0.00010   0.00000  -0.01210  -0.01244   1.85651
    A4        2.22641  -0.00289   0.00000  -0.00660  -0.00632   2.22009
    A5        1.83262   0.00361   0.00000   0.00166   0.00109   1.83371
    A6        2.22416  -0.00072   0.00000   0.00495   0.00523   2.22939
    A7        2.23015  -0.00367   0.00000  -0.01441  -0.01437   2.21578
    A8        1.95087   0.00857   0.00000   0.03535   0.03529   1.98616
    A9        2.10216  -0.00490   0.00000  -0.02094  -0.02091   2.08125
   A10        1.82554  -0.01994   0.00000  -0.05857  -0.05787   1.76767
   A11        1.94679   0.00787   0.00000   0.03366   0.03394   1.98073
   A12        2.25343  -0.00531   0.00000  -0.02413  -0.02426   2.22917
   A13        2.08296  -0.00256   0.00000  -0.00954  -0.00967   2.07329
    D1        0.00000   0.00000   0.00000   0.00000   0.00000   0.00000
    D2        3.14159   0.00000   0.00000   0.00000   0.00000   3.14159
    D3        3.14159   0.00000   0.00000   0.00000   0.00000   3.14159
    D4        0.00000   0.00000   0.00000   0.00000   0.00000   0.00000
    D5        3.14159   0.00000   0.00000   0.00000   0.00000   3.14159
    D6        0.00000   0.00000   0.00000   0.00000   0.00000   0.00000
    D7        0.00000   0.00000   0.00000   0.00000   0.00000   0.00000
    D8        3.14159   0.00000   0.00000   0.00000   0.00000   3.14159
    D9        3.14159   0.00000   0.00000   0.00000   0.00000   3.14159
   D10        0.00000   0.00000   0.00000   0.00000   0.00000   0.00000
   D11        0.00000   0.00000   0.00000   0.00000   0.00000   0.00000
   D12        3.14159   0.00000   0.00000   0.00000   0.00000   3.14159
   D13        0.00000   0.00000   0.00000   0.00000   0.00000   0.00000
   D14        3.14159   0.00000   0.00000   0.00000   0.00000   3.14159
   D15        0.00000   0.00000   0.00000   0.00000   0.00000   0.00000
   D16        3.14159   0.00000   0.00000   0.00000   0.00000   3.14159
         Item               Value     Threshold  Converged?
 Maximum Force            0.071131     0.000450     NO 
 RMS     Force            0.019773     0.000300     NO 
 Maximum Displacement     0.136895     0.001800     NO 
 RMS     Displacement     0.044203     0.001200     NO 
 Predicted change in Energy=-1.486787D-02
 GradGradGradGradGradGradGradGradGradGradGradGradGradGradGradGradGradGrad

                          Input orientation:                          
 ---------------------------------------------------------------------
 Center     Atomic     Atomic              Coordinates (Angstroms)
 Number     Number      Type              X           Y           Z
 ---------------------------------------------------------------------
    1          1             0        2.143242    0.732566    0.000000
    2          6             0        1.129203    0.309732    0.000000
    3          1             0        1.298272   -1.907876    0.000000
    4          6             0        0.684992   -1.001487    0.000000
    5          1             0       -1.465044   -1.744120    0.000000
    6          6             0       -0.749889   -0.909917    0.000000
    7          7             0       -1.221888    0.376601    0.000000
    8          1             0       -0.063768    2.162525    0.000000
    9          7             0       -0.015474    1.113790    0.000000
 ---------------------------------------------------------------------
                    Distance matrix (angstroms):
                    1          2          3          4          5
     1  H    0.000000
     2  C    1.098664   0.000000
     3  H    2.772348   2.224044   0.000000
     4  C    2.265709   1.384421   1.094373   0.000000
     5  H    4.376494   3.308841   2.768163   2.274677   0.000000
     6  C    3.326854   2.240208   2.278352   1.437800   1.098791
     7  N    3.383904   2.352042   3.401476   2.352725   2.134616
     8  H    2.629767   2.203638   4.292239   3.251402   4.150355
     9  N    2.192119   1.398855   3.294904   2.228239   3.204512
                    6          7          8          9
     6  C    0.000000
     7  N    1.370369   0.000000
     8  H    3.148120   2.128559   0.000000
     9  N    2.152847   1.413817   1.049846   0.000000
 Stoichiometry    C3H4N2
 Framework group  CS[SG(C3H4N2)]
 Deg. of freedom    15
 Full point group                 CS      NOp   2
 Largest Abelian subgroup         CS      NOp   2
 Largest concise Abelian subgroup C1      NOp   1
                         Standard orientation:                         
 ---------------------------------------------------------------------
 Center     Atomic     Atomic              Coordinates (Angstroms)
 Number     Number      Type              X           Y           Z
 ---------------------------------------------------------------------
    1          1             0        2.156843    0.720290    0.000000
    2          6             0        1.140766    0.302377    0.000000
    3          1             0        1.299081   -1.916025    0.000000
    4          6             0        0.690202   -1.006673    0.000000
    5          1             0       -1.463408   -1.738873    0.000000
    6          6             0       -0.744218   -0.908147    0.000000
    7          7             0       -1.209973    0.380644    0.000000
    8          1             0       -0.043209    2.160932    0.000000
    9          7             0        0.000000    1.111975    0.000000
 ---------------------------------------------------------------------
 Rotational constants (GHZ):      9.3375327      8.8173366      4.5349910
 Standard basis: STO-3G (5D, 7F)
 There are    24 symmetry adapted basis functions of A'  symmetry.
 There are     5 symmetry adapted basis functions of A"  symmetry.
 Integral buffers will be    262144 words long.
 Raffenetti 2 integral format.
 Two-electron integral symmetry is turned on.
    29 basis functions,    87 primitive gaussians,    29 cartesian basis functions
    18 alpha electrons       18 beta electrons
       nuclear repulsion energy       158.9070150624 Hartrees.
 NAtoms=    9 NActive=    9 NUniq=    9 SFac= 1.00D+00 NAtFMM=   60 Big=F
 One-electron integrals computed using PRISM.
 NBasis=    29 RedAO= T  NBF=    24     5
 NBsUse=    29 1.00D-06 NBFU=    24     5
 Initial guess read from the read-write file:
 Initial guess orbital symmetries:
       Occupied  (A') (A') (A') (A') (A') (A') (A') (A') (A') (A')
                 (A') (A') (A') (A") (A') (A") (A') (A")
       Virtual   (A") (A") (A') (A') (A') (A') (A') (A') (A') (A')
                 (A')
 Harris functional with IExCor=  408 diagonalized for initial guess.
 ExpMin= 1.69D-01 ExpMax= 9.91D+01 ExpMxC= 9.91D+01 IAcc=1 IRadAn=         1 AccDes= 1.00D-06
 HarFok:  IExCor= 408 AccDes= 1.00D-06 IRadAn=         1 IDoV=1
 ScaDFX=  1.000000  1.000000  1.000000  1.000000
 Requested convergence on RMS density matrix=1.00D-08 within 128 cycles.
 Requested convergence on MAX density matrix=1.00D-06.
 Requested convergence on             energy=1.00D-06.
 No special actions if energy rises.
 Keep R1 integrals in memory in canonical form, NReq=      600413.
 Integral accuracy reduced to 1.0D-05 until final iterations.
 Initial convergence to 1.0D-05 achieved.  Increase integral accuracy.
 SCF Done:  E(RB+HF-PW91) =  -223.275153208     A.U. after   13 cycles
             Convg  =    0.5313D-08             -V/T =  2.0177
             S**2   =   0.0000
 ***** Axes restored to original set *****
 -------------------------------------------------------------------
 Center     Atomic                   Forces (Hartrees/Bohr)
 Number     Number              X              Y              Z
 -------------------------------------------------------------------
    1          1          -0.003743291    0.000460342    0.000000000
    2          6           0.001897657    0.002656688    0.000000000
    3          1          -0.001855597    0.002312439    0.000000000
    4          6          -0.011189411    0.001974631    0.000000000
    5          1           0.001301441    0.002626150    0.000000000
    6          6           0.008997237   -0.012528353    0.000000000
    7          7          -0.002942653    0.002439358    0.000000000
    8          1           0.001765644   -0.005294130    0.000000000
    9          7           0.005768972    0.005352875    0.000000000
 -------------------------------------------------------------------
 Cartesian Forces:  Max     0.012528353 RMS     0.004375714

 GradGradGradGradGradGradGradGradGradGradGradGradGradGradGradGradGradGrad
 Berny optimization.
 Internal  Forces:  Max     0.009933220 RMS     0.002714930
 Search for a local minimum.
 Step number   2 out of a maximum of  48
 All quantities printed in internal units (Hartrees-Bohrs-Radians)
 Update second derivatives using D2CorX and points  1  2
 Trust test= 8.64D-01 RLast= 2.38D-01 DXMaxT set to 4.24D-01
     Eigenvalues ---    0.01999   0.02068   0.02119   0.02262   0.02363
     Eigenvalues ---    0.02461   0.15932   0.16000   0.16000   0.16005
     Eigenvalues ---    0.21910   0.23414   0.37941   0.38026   0.38250
     Eigenvalues ---    0.40071   0.46540   0.49128   0.50910   0.54752
     Eigenvalues ---    0.604131000.000001000.000001000.000001000.00000
     Eigenvalues --- 1000.000001000.000001000.000001000.000001000.00000
     Eigenvalues --- 1000.000001000.000001000.000001000.000001000.00000
     Eigenvalues --- 1000.000001000.000001000.00000
 RFO step:  Lambda=-6.12023659D-04.
 Quartic linear search produced a step of -0.04803.
 Iteration  1 RMS(Cart)=  0.00845426 RMS(Int)=  0.00003804
 Iteration  2 RMS(Cart)=  0.00003766 RMS(Int)=  0.00002197
 Iteration  3 RMS(Cart)=  0.00000000 RMS(Int)=  0.00002197
 Variable       Old X    -DE/DX   Delta X   Delta X   Delta X     New X
                                 (Linear)    (Quad)   (Total)
    R1        2.07617  -0.00328  -0.00310  -0.00392  -0.00702   2.06916
    R2        2.61618   0.00138  -0.00200   0.00443   0.00246   2.61864
    R3        2.64345  -0.00590  -0.00384  -0.00520  -0.00904   2.63441
    R4        2.06807  -0.00295  -0.00282  -0.00347  -0.00629   2.06178
    R5        2.71705  -0.00993  -0.00163  -0.02033  -0.02194   2.69511
    R6        2.07641  -0.00284  -0.00313  -0.00277  -0.00590   2.07051
    R7        2.58962   0.00521  -0.00524   0.01574   0.01047   2.60009
    R8        2.67173   0.00346  -0.00319   0.01192   0.00870   2.68042
    R9        1.98392  -0.00537  -0.00521  -0.00309  -0.00830   1.97562
    A1        2.29250   0.00208  -0.00056   0.01421   0.01362   2.30612
    A2        2.13418  -0.00181  -0.00003  -0.00952  -0.00957   2.12460
    A3        1.85651  -0.00027   0.00060  -0.00469  -0.00405   1.85246
    A4        2.22009  -0.00176   0.00030  -0.00605  -0.00577   2.21432
    A5        1.83371   0.00399  -0.00005   0.01424   0.01425   1.84795
    A6        2.22939  -0.00224  -0.00025  -0.00819  -0.00847   2.22091
    A7        2.21578   0.00202   0.00069   0.00869   0.00938   2.22515
    A8        1.98616  -0.00256  -0.00169  -0.00821  -0.00991   1.97625
    A9        2.08125   0.00054   0.00100  -0.00047   0.00053   2.08178
   A10        1.76767   0.00005   0.00278   0.00070   0.00340   1.77108
   A11        1.98073  -0.00120  -0.00163  -0.00204  -0.00369   1.97704
   A12        2.22917  -0.00090   0.00117  -0.00831  -0.00713   2.22204
   A13        2.07329   0.00210   0.00046   0.01035   0.01082   2.08411
    D1        0.00000   0.00000   0.00000   0.00000   0.00000   0.00000
    D2        3.14159   0.00000   0.00000   0.00000   0.00000   3.14159
    D3        3.14159   0.00000   0.00000   0.00000   0.00000   3.14159
    D4        0.00000   0.00000   0.00000   0.00000   0.00000   0.00000
    D5        3.14159   0.00000   0.00000   0.00000   0.00000   3.14159
    D6        0.00000   0.00000   0.00000   0.00000   0.00000   0.00000
    D7        0.00000   0.00000   0.00000   0.00000   0.00000   0.00000
    D8        3.14159   0.00000   0.00000   0.00000   0.00000   3.14159
    D9        3.14159   0.00000   0.00000   0.00000   0.00000   3.14159
   D10        0.00000   0.00000   0.00000   0.00000   0.00000   0.00000
   D11        0.00000   0.00000   0.00000   0.00000   0.00000   0.00000
   D12        3.14159   0.00000   0.00000   0.00000   0.00000   3.14159
   D13        0.00000   0.00000   0.00000   0.00000   0.00000   0.00000
   D14        3.14159   0.00000   0.00000   0.00000   0.00000   3.14159
   D15        0.00000   0.00000   0.00000   0.00000   0.00000   0.00000
   D16        3.14159   0.00000   0.00000   0.00000   0.00000   3.14159
         Item               Value     Threshold  Converged?
 Maximum Force            0.009933     0.000450     NO 
 RMS     Force            0.002715     0.000300     NO 
 Maximum Displacement     0.026848     0.001800     NO 
 RMS     Displacement     0.008451     0.001200     NO 
 Predicted change in Energy=-3.340858D-04
 GradGradGradGradGradGradGradGradGradGradGradGradGradGradGradGradGradGrad

                          Input orientation:                          
 ---------------------------------------------------------------------
 Center     Atomic     Atomic              Coordinates (Angstroms)
 Number     Number      Type              X           Y           Z
 ---------------------------------------------------------------------
    1          1             0        2.135904    0.741135    0.000000
    2          6             0        1.128623    0.311831    0.000000
    3          1             0        1.287789   -1.901674    0.000000
    4          6             0        0.676394   -0.998025    0.000000
    5          1             0       -1.461507   -1.750398    0.000000
    6          6             0       -0.747616   -0.919226    0.000000
    7          7             0       -1.219639    0.373184    0.000000
    8          1             0       -0.049561    2.159861    0.000000
    9          7             0       -0.010741    1.115127    0.000000
 ---------------------------------------------------------------------
                    Distance matrix (angstroms):
                    1          2          3          4          5
     1  H    0.000000
     2  C    1.094950   0.000000
     3  H    2.775561   2.219220   0.000000
     4  C    2.270429   1.385725   1.091047   0.000000
     5  H    4.375969   3.310825   2.753455   2.266426   0.000000
     6  C    3.327384   2.244053   2.260106   1.426189   1.095668
     7  N    3.375656   2.349064   3.385584   2.339906   2.137312
     8  H    2.605578   2.191650   4.276046   3.240255   4.157369
     9  N    2.178980   1.394071   3.284398   2.222064   3.211847
                    6          7          8          9
     6  C    0.000000
     7  N    1.375911   0.000000
     8  H    3.157223   2.135719   0.000000
     9  N    2.163696   1.418420   1.045454   0.000000
 Stoichiometry    C3H4N2
 Framework group  CS[SG(C3H4N2)]
 Deg. of freedom    15
 Full point group                 CS      NOp   2
 Largest Abelian subgroup         CS      NOp   2
 Largest concise Abelian subgroup C1      NOp   1
                         Standard orientation:                         
 ---------------------------------------------------------------------
 Center     Atomic     Atomic              Coordinates (Angstroms)
 Number     Number      Type              X           Y           Z
 ---------------------------------------------------------------------
    1          1             0        2.146354    0.738514    0.000000
    2          6             0        1.138742    0.309989    0.000000
    3          1             0        1.296195   -1.903638    0.000000
    4          6             0        0.685499   -0.999517    0.000000
    5          1             0       -1.452983   -1.750235    0.000000
    6          6             0       -0.738449   -0.919616    0.000000
    7          7             0       -1.209472    0.373160    0.000000
    8          1             0       -0.038012    2.158930    0.000000
    9          7             0        0.000000    1.114167    0.000000
 ---------------------------------------------------------------------
 Rotational constants (GHZ):      9.2790489      8.9016233      4.5432092
 Standard basis: STO-3G (5D, 7F)
 There are    24 symmetry adapted basis functions of A'  symmetry.
 There are     5 symmetry adapted basis functions of A"  symmetry.
 Integral buffers will be    262144 words long.
 Raffenetti 2 integral format.
 Two-electron integral symmetry is turned on.
    29 basis functions,    87 primitive gaussians,    29 cartesian basis functions
    18 alpha electrons       18 beta electrons
       nuclear repulsion energy       159.0364167417 Hartrees.
 NAtoms=    9 NActive=    9 NUniq=    9 SFac= 1.00D+00 NAtFMM=   60 Big=F
 One-electron integrals computed using PRISM.
 NBasis=    29 RedAO= T  NBF=    24     5
 NBsUse=    29 1.00D-06 NBFU=    24     5
 Initial guess read from the read-write file:
 Initial guess orbital symmetries:
       Occupied  (A') (A') (A') (A') (A') (A') (A') (A') (A') (A')
                 (A') (A') (A') (A") (A') (A') (A") (A")
       Virtual   (A") (A") (A') (A') (A') (A') (A') (A') (A') (A')
                 (A')
 Harris functional with IExCor=  408 diagonalized for initial guess.
 ExpMin= 1.69D-01 ExpMax= 9.91D+01 ExpMxC= 9.91D+01 IAcc=1 IRadAn=         1 AccDes= 1.00D-06
 HarFok:  IExCor= 408 AccDes= 1.00D-06 IRadAn=         1 IDoV=1
 ScaDFX=  1.000000  1.000000  1.000000  1.000000
 Requested convergence on RMS density matrix=1.00D-08 within 128 cycles.
 Requested convergence on MAX density matrix=1.00D-06.
 Requested convergence on             energy=1.00D-06.
 No special actions if energy rises.
 Keep R1 integrals in memory in canonical form, NReq=      600413.
 Integral accuracy reduced to 1.0D-05 until final iterations.
 Initial convergence to 1.0D-05 achieved.  Increase integral accuracy.
 SCF Done:  E(RB+HF-PW91) =  -223.275507309     A.U. after   11 cycles
             Convg  =    0.7537D-08             -V/T =  2.0176
             S**2   =   0.0000
 ***** Axes restored to original set *****
 -------------------------------------------------------------------
 Center     Atomic                   Forces (Hartrees/Bohr)
 Number     Number              X              Y              Z
 -------------------------------------------------------------------
    1          1          -0.000395434    0.000065563    0.000000000
    2          6          -0.000224296    0.000628402    0.000000000
    3          1           0.000163766    0.000117774    0.000000000
    4          6          -0.001703928   -0.000653883    0.000000000
    5          1          -0.000065686    0.000874391    0.000000000
    6          6           0.004524907   -0.001105831    0.000000000
    7          7          -0.002696262    0.003086795    0.000000000
    8          1           0.000102418   -0.001218405    0.000000000
    9          7           0.000294514   -0.001794806    0.000000000
 -------------------------------------------------------------------
 Cartesian Forces:  Max     0.004524907 RMS     0.001333961

 GradGradGradGradGradGradGradGradGradGradGradGradGradGradGradGradGradGrad
 Berny optimization.
 Internal  Forces:  Max     0.002315127 RMS     0.000809873
 Search for a local minimum.
 Step number   3 out of a maximum of  48
 All quantities printed in internal units (Hartrees-Bohrs-Radians)
 Update second derivatives using D2CorX and points  1  2  3
 Trust test= 1.06D+00 RLast= 4.39D-02 DXMaxT set to 4.24D-01
     Eigenvalues ---    0.01997   0.02066   0.02118   0.02263   0.02363
     Eigenvalues ---    0.02463   0.14741   0.16000   0.16002   0.16156
     Eigenvalues ---    0.21392   0.26811   0.37386   0.37963   0.38288
     Eigenvalues ---    0.39818   0.46826   0.47694   0.49598   0.52733
     Eigenvalues ---    0.605531000.000001000.000001000.000001000.00000
     Eigenvalues --- 1000.000001000.000001000.000001000.000001000.00000
     Eigenvalues --- 1000.000001000.000001000.000001000.000001000.00000
     Eigenvalues --- 1000.000001000.000001000.00000
 RFO step:  Lambda=-9.10376690D-05.
 Quartic linear search produced a step of  0.05476.
 Iteration  1 RMS(Cart)=  0.00340581 RMS(Int)=  0.00000765
 Iteration  2 RMS(Cart)=  0.00000944 RMS(Int)=  0.00000270
 Iteration  3 RMS(Cart)=  0.00000000 RMS(Int)=  0.00000270
 Variable       Old X    -DE/DX   Delta X   Delta X   Delta X     New X
                                 (Linear)    (Quad)   (Total)
    R1        2.06916  -0.00034  -0.00038  -0.00133  -0.00171   2.06744
    R2        2.61864  -0.00052   0.00013  -0.00082  -0.00069   2.61795
    R3        2.63441  -0.00086  -0.00050  -0.00238  -0.00288   2.63153
    R4        2.06178  -0.00001  -0.00034  -0.00036  -0.00070   2.06108
    R5        2.69511  -0.00184  -0.00120  -0.00620  -0.00741   2.68770
    R6        2.07051  -0.00062  -0.00032  -0.00202  -0.00234   2.06817
    R7        2.60009   0.00200   0.00057   0.00480   0.00537   2.60547
    R8        2.68042  -0.00088   0.00048  -0.00092  -0.00044   2.67998
    R9        1.97562  -0.00122  -0.00045  -0.00297  -0.00343   1.97219
    A1        2.30612   0.00023   0.00075   0.00324   0.00399   2.31011
    A2        2.12460  -0.00023  -0.00052  -0.00183  -0.00235   2.12226
    A3        1.85246   0.00000  -0.00022  -0.00141  -0.00164   1.85082
    A4        2.21432   0.00012  -0.00032  -0.00017  -0.00049   2.21383
    A5        1.84795  -0.00067   0.00078  -0.00232  -0.00154   1.84641
    A6        2.22091   0.00055  -0.00046   0.00249   0.00203   2.22294
    A7        2.22515  -0.00012   0.00051   0.00110   0.00162   2.22677
    A8        1.97625   0.00151  -0.00054   0.00695   0.00641   1.98266
    A9        2.08178  -0.00139   0.00003  -0.00805  -0.00802   2.07376
   A10        1.77108  -0.00232   0.00019  -0.00944  -0.00924   1.76184
   A11        1.97704   0.00148  -0.00020   0.00622   0.00602   1.98306
   A12        2.22204  -0.00079  -0.00039  -0.00421  -0.00460   2.21743
   A13        2.08411  -0.00069   0.00059  -0.00201  -0.00142   2.08269
    D1        0.00000   0.00000   0.00000   0.00000   0.00000   0.00000
    D2        3.14159   0.00000   0.00000   0.00000   0.00000   3.14159
    D3        3.14159   0.00000   0.00000   0.00000   0.00000   3.14159
    D4        0.00000   0.00000   0.00000   0.00000   0.00000   0.00000
    D5        3.14159   0.00000   0.00000   0.00000   0.00000   3.14159
    D6        0.00000   0.00000   0.00000   0.00000   0.00000   0.00000
    D7        0.00000   0.00000   0.00000   0.00000   0.00000   0.00000
    D8        3.14159   0.00000   0.00000   0.00000   0.00000   3.14159
    D9        3.14159   0.00000   0.00000   0.00000   0.00000   3.14159
   D10        0.00000   0.00000   0.00000   0.00000   0.00000   0.00000
   D11        0.00000   0.00000   0.00000   0.00000   0.00000   0.00000
   D12        3.14159   0.00000   0.00000   0.00000   0.00000   3.14159
   D13        0.00000   0.00000   0.00000   0.00000   0.00000   0.00000
   D14        3.14159   0.00000   0.00000   0.00000   0.00000   3.14159
   D15        0.00000   0.00000   0.00000   0.00000   0.00000   0.00000
   D16        3.14159   0.00000   0.00000   0.00000   0.00000   3.14159
         Item               Value     Threshold  Converged?
 Maximum Force            0.002315     0.000450     NO 
 RMS     Force            0.000810     0.000300     NO 
 Maximum Displacement     0.010153     0.001800     NO 
 RMS     Displacement     0.003410     0.001200     NO 
 Predicted change in Energy=-4.649187D-05
 GradGradGradGradGradGradGradGradGradGradGradGradGradGradGradGradGradGrad

                          Input orientation:                          
 ---------------------------------------------------------------------
 Center     Atomic     Atomic              Coordinates (Angstroms)
 Number     Number      Type              X           Y           Z
 ---------------------------------------------------------------------
    1          1             0        2.132856    0.743900    0.000000
    2          6             0        1.128137    0.310924    0.000000
    3          1             0        1.287685   -1.901627    0.000000
    4          6             0        0.676046   -0.998592    0.000000
    5          1             0       -1.459619   -1.745822    0.000000
    6          6             0       -0.743928   -0.917837    0.000000
    7          7             0       -1.223236    0.374922    0.000000
    8          1             0       -0.046988    2.154488    0.000000
    9          7             0       -0.011309    1.111458    0.000000
 ---------------------------------------------------------------------
                    Distance matrix (angstroms):
                    1          2          3          4          5
     1  H    0.000000
     2  C    1.094043   0.000000
     3  H    2.777252   2.218297   0.000000
     4  C    2.271249   1.385358   1.090677   0.000000
     5  H    4.370880   3.305553   2.751718   2.262613   0.000000
     6  C    3.322237   2.239303   2.257275   1.422268   1.094428
     7  N    3.376314   2.352243   3.389306   2.343888   2.133876
     8  H    2.596435   2.186239   4.270061   3.234917   4.148245
     9  N    2.175441   1.392548   3.281168   2.219181   3.203381
                    6          7          8          9
     6  C    0.000000
     7  N    1.378754   0.000000
     8  H    3.150382   2.133170   0.000000
     9  N    2.157491   1.418187   1.043640   0.000000
 Stoichiometry    C3H4N2
 Framework group  CS[SG(C3H4N2)]
 Deg. of freedom    15
 Full point group                 CS      NOp   2
 Largest Abelian subgroup         CS      NOp   2
 Largest concise Abelian subgroup C1      NOp   1
                         Standard orientation:                         
 ---------------------------------------------------------------------
 Center     Atomic     Atomic              Coordinates (Angstroms)
 Number     Number      Type              X           Y           Z
 ---------------------------------------------------------------------
    1          1             0        2.143789    0.741088    0.000000
    2          6             0        1.138629    0.309137    0.000000
    3          1             0        1.295921   -1.903576    0.000000
    4          6             0        0.685203   -0.999917    0.000000
    5          1             0       -1.451222   -1.744970    0.000000
    6          6             0       -0.734687   -0.917716    0.000000
    7          7             0       -1.212677    0.375531    0.000000
    8          1             0       -0.034616    2.153897    0.000000
    9          7             0        0.000000    1.110832    0.000000
 ---------------------------------------------------------------------
 Rotational constants (GHZ):      9.3142297      8.8909441      4.5488330
 Standard basis: STO-3G (5D, 7F)
 There are    24 symmetry adapted basis functions of A'  symmetry.
 There are     5 symmetry adapted basis functions of A"  symmetry.
 Integral buffers will be    262144 words long.
 Raffenetti 2 integral format.
 Two-electron integral symmetry is turned on.
    29 basis functions,    87 primitive gaussians,    29 cartesian basis functions
    18 alpha electrons       18 beta electrons
       nuclear repulsion energy       159.1347649023 Hartrees.
 NAtoms=    9 NActive=    9 NUniq=    9 SFac= 1.00D+00 NAtFMM=   60 Big=F
 One-electron integrals computed using PRISM.
 NBasis=    29 RedAO= T  NBF=    24     5
 NBsUse=    29 1.00D-06 NBFU=    24     5
 Initial guess read from the read-write file:
 Initial guess orbital symmetries:
       Occupied  (A') (A') (A') (A') (A') (A') (A') (A') (A') (A')
                 (A') (A') (A') (A") (A') (A') (A") (A")
       Virtual   (A") (A") (A') (A') (A') (A') (A') (A') (A') (A')
                 (A')
 Requested convergence on RMS density matrix=1.00D-08 within 128 cycles.
 Requested convergence on MAX density matrix=1.00D-06.
 Requested convergence on             energy=1.00D-06.
 No special actions if energy rises.
 Keep R1 integrals in memory in canonical form, NReq=      600413.
 SCF Done:  E(RB+HF-PW91) =  -223.275538065     A.U. after    9 cycles
             Convg  =    0.5458D-08             -V/T =  2.0176
             S**2   =   0.0000
 ***** Axes restored to original set *****
 -------------------------------------------------------------------
 Center     Atomic                   Forces (Hartrees/Bohr)
 Number     Number              X              Y              Z
 -------------------------------------------------------------------
    1          1           0.000364691    0.000099476    0.000000000
    2          6          -0.000461578    0.000973746    0.000000000
    3          1           0.000129330   -0.000194019    0.000000000
    4          6           0.000273297   -0.000908750    0.000000000
    5          1          -0.000333482   -0.000376624    0.000000000
    6          6          -0.001006326   -0.000704917    0.000000000
    7          7           0.001187341    0.000122883    0.000000000
    8          1           0.000045512    0.000682370    0.000000000
    9          7          -0.000198785    0.000305835    0.000000000
 -------------------------------------------------------------------
 Cartesian Forces:  Max     0.001187341 RMS     0.000473259

 GradGradGradGradGradGradGradGradGradGradGradGradGradGradGradGradGradGrad
 Berny optimization.
 Internal  Forces:  Max     0.001445300 RMS     0.000417117
 Search for a local minimum.
 Step number   4 out of a maximum of  48
 All quantities printed in internal units (Hartrees-Bohrs-Radians)
 Update second derivatives using D2CorX and points  1  2  3  4
 Trust test= 6.62D-01 RLast= 1.99D-02 DXMaxT set to 4.24D-01
     Eigenvalues ---    0.01997   0.02065   0.02118   0.02263   0.02362
     Eigenvalues ---    0.02464   0.14266   0.16001   0.16011   0.16181
     Eigenvalues ---    0.22510   0.32162   0.36422   0.37963   0.38402
     Eigenvalues ---    0.39377   0.44975   0.47871   0.49571   0.57799
     Eigenvalues ---    0.612161000.000001000.000001000.000001000.00000
     Eigenvalues --- 1000.000001000.000001000.000001000.000001000.00000
     Eigenvalues --- 1000.000001000.000001000.000001000.000001000.00000
     Eigenvalues --- 1000.000001000.000001000.00000
 RFO step:  Lambda=-5.39455071D-06.
 Quartic linear search produced a step of -0.25314.
 Iteration  1 RMS(Cart)=  0.00112961 RMS(Int)=  0.00000099
 Iteration  2 RMS(Cart)=  0.00000071 RMS(Int)=  0.00000077
 Variable       Old X    -DE/DX   Delta X   Delta X   Delta X     New X
                                 (Linear)    (Quad)   (Total)
    R1        2.06744   0.00037   0.00043   0.00034   0.00078   2.06822
    R2        2.61795   0.00145   0.00018   0.00184   0.00202   2.61996
    R3        2.63153  -0.00005   0.00073  -0.00086  -0.00014   2.63140
    R4        2.06108   0.00023   0.00018   0.00036   0.00054   2.06162
    R5        2.68770   0.00061   0.00188  -0.00057   0.00131   2.68900
    R6        2.06817   0.00050   0.00059   0.00038   0.00097   2.06914
    R7        2.60547   0.00045  -0.00136   0.00189   0.00053   2.60600
    R8        2.67998  -0.00010   0.00011  -0.00065  -0.00054   2.67944
    R9        1.97219   0.00068   0.00087   0.00012   0.00099   1.97318
    A1        2.31011  -0.00022  -0.00101   0.00006  -0.00095   2.30916
    A2        2.12226  -0.00012   0.00059  -0.00090  -0.00031   2.12195
    A3        1.85082   0.00034   0.00042   0.00084   0.00126   1.85208
    A4        2.21383   0.00004   0.00012  -0.00008   0.00004   2.21387
    A5        1.84641  -0.00010   0.00039  -0.00074  -0.00035   1.84606
    A6        2.22294   0.00006  -0.00051   0.00082   0.00031   2.22325
    A7        2.22677   0.00040  -0.00041   0.00150   0.00109   2.22786
    A8        1.98266  -0.00081  -0.00162  -0.00024  -0.00186   1.98080
    A9        2.07376   0.00041   0.00203  -0.00127   0.00076   2.07452
   A10        1.76184   0.00116   0.00234   0.00045   0.00278   1.76462
   A11        1.98306  -0.00059  -0.00152  -0.00032  -0.00184   1.98122
   A12        2.21743   0.00023   0.00117  -0.00039   0.00077   2.21821
   A13        2.08269   0.00035   0.00036   0.00071   0.00107   2.08376
    D1        0.00000   0.00000   0.00000   0.00000   0.00000   0.00000
    D2        3.14159   0.00000   0.00000   0.00000   0.00000   3.14159
    D3        3.14159   0.00000   0.00000   0.00000   0.00000   3.14159
    D4        0.00000   0.00000   0.00000   0.00000   0.00000   0.00000
    D5        3.14159   0.00000   0.00000   0.00000   0.00000   3.14159
    D6        0.00000   0.00000   0.00000   0.00000   0.00000   0.00000
    D7        0.00000   0.00000   0.00000   0.00000   0.00000   0.00000
    D8        3.14159   0.00000   0.00000   0.00000   0.00000   3.14159
    D9        3.14159   0.00000   0.00000   0.00000   0.00000   3.14159
   D10        0.00000   0.00000   0.00000   0.00000   0.00000   0.00000
   D11        0.00000   0.00000   0.00000   0.00000   0.00000   0.00000
   D12        3.14159   0.00000   0.00000   0.00000   0.00000   3.14159
   D13        0.00000   0.00000   0.00000   0.00000   0.00000   0.00000
   D14        3.14159   0.00000   0.00000   0.00000   0.00000   3.14159
   D15        0.00000   0.00000   0.00000   0.00000   0.00000   0.00000
   D16        3.14159   0.00000   0.00000   0.00000   0.00000   3.14159
         Item               Value     Threshold  Converged?
 Maximum Force            0.001445     0.000450     NO 
 RMS     Force            0.000417     0.000300     NO 
 Maximum Displacement     0.003201     0.001800     NO 
 RMS     Displacement     0.001129     0.001200     YES
 Predicted change in Energy=-6.720769D-06
 GradGradGradGradGradGradGradGradGradGradGradGradGradGradGradGradGradGrad

                          Input orientation:                          
 ---------------------------------------------------------------------
 Center     Atomic     Atomic              Coordinates (Angstroms)
 Number     Number      Type              X           Y           Z
 ---------------------------------------------------------------------
    1          1             0        2.132994    0.744258    0.000000
    2          6             0        1.127760    0.311436    0.000000
    3          1             0        1.288502   -1.902283    0.000000
    4          6             0        0.676160   -0.999378    0.000000
    5          1             0       -1.461217   -1.746802    0.000000
    6          6             0       -0.744527   -0.919001    0.000000
    7          7             0       -1.221912    0.374769    0.000000
    8          1             0       -0.046987    2.156181    0.000000
    9          7             0       -0.011129    1.112635    0.000000
 ---------------------------------------------------------------------
                    Distance matrix (angstroms):
                    1          2          3          4          5
     1  H    0.000000
     2  C    1.094454   0.000000
     3  H    2.778011   2.219546   0.000000
     4  C    2.272143   1.386426   1.090962   0.000000
     5  H    4.373069   3.307437   2.754111   2.264292   0.000000
     6  C    3.323637   2.240410   2.258329   1.422959   1.094941
     7  N    3.375191   2.350526   3.389269   2.343279   2.135024
     8  H    2.597277   2.187034   4.272548   3.237360   4.151304
     9  N    2.175538   1.392476   3.283104   2.221028   3.206108
                    6          7          8          9
     6  C    0.000000
     7  N    1.379035   0.000000
     8  H    3.153302   2.133982   0.000000
     9  N    2.159958   1.417900   1.044162   0.000000
 Stoichiometry    C3H4N2
 Framework group  CS[SG(C3H4N2)]
 Deg. of freedom    15
 Full point group                 CS      NOp   2
 Largest Abelian subgroup         CS      NOp   2
 Largest concise Abelian subgroup C1      NOp   1
                         Standard orientation:                         
 ---------------------------------------------------------------------
 Center     Atomic     Atomic              Coordinates (Angstroms)
 Number     Number      Type              X           Y           Z
 ---------------------------------------------------------------------
    1          1             0        2.143763    0.741571    0.000000
    2          6             0        1.138108    0.309729    0.000000
    3          1             0        1.296693   -1.904145    0.000000
    4          6             0        0.685231   -1.000644    0.000000
    5          1             0       -1.452873   -1.745984    0.000000
    6          6             0       -0.735378   -0.918883    0.000000
    7          7             0       -1.211501    0.375352    0.000000
    8          1             0       -0.034841    2.155619    0.000000
    9          7             0        0.000000    1.112038    0.000000
 ---------------------------------------------------------------------
 Rotational constants (GHZ):      9.2965904      8.8972752      4.5462754
 Standard basis: STO-3G (5D, 7F)
 There are    24 symmetry adapted basis functions of A'  symmetry.
 There are     5 symmetry adapted basis functions of A"  symmetry.
 Integral buffers will be    262144 words long.
 Raffenetti 2 integral format.
 Two-electron integral symmetry is turned on.
    29 basis functions,    87 primitive gaussians,    29 cartesian basis functions
    18 alpha electrons       18 beta electrons
       nuclear repulsion energy       159.0893174147 Hartrees.
 NAtoms=    9 NActive=    9 NUniq=    9 SFac= 1.00D+00 NAtFMM=   60 Big=F
 One-electron integrals computed using PRISM.
 NBasis=    29 RedAO= T  NBF=    24     5
 NBsUse=    29 1.00D-06 NBFU=    24     5
 Initial guess read from the read-write file:
 Initial guess orbital symmetries:
       Occupied  (A') (A') (A') (A') (A') (A') (A') (A') (A') (A')
                 (A') (A') (A') (A") (A') (A') (A") (A")
       Virtual   (A") (A") (A') (A') (A') (A') (A') (A') (A') (A')
                 (A')
 Requested convergence on RMS density matrix=1.00D-08 within 128 cycles.
 Requested convergence on MAX density matrix=1.00D-06.
 Requested convergence on             energy=1.00D-06.
 No special actions if energy rises.
 Keep R1 integrals in memory in canonical form, NReq=      600413.
 SCF Done:  E(RB+HF-PW91) =  -223.275544614     A.U. after    8 cycles
             Convg  =    0.9279D-08             -V/T =  2.0176
             S**2   =   0.0000
 ***** Axes restored to original set *****
 -------------------------------------------------------------------
 Center     Atomic                   Forces (Hartrees/Bohr)
 Number     Number              X              Y              Z
 -------------------------------------------------------------------
    1          1           0.000089055   -0.000046669    0.000000000
    2          6           0.000063063    0.000128911    0.000000000
    3          1           0.000045107    0.000016759    0.000000000
    4          6           0.000039136    0.000062102    0.000000000
    5          1          -0.000070733   -0.000003697    0.000000000
    6          6          -0.000088987    0.000043324    0.000000000
    7          7          -0.000000548    0.000084654    0.000000000
    8          1          -0.000001322    0.000137568    0.000000000
    9          7          -0.000074771   -0.000422951    0.000000000
 -------------------------------------------------------------------
 Cartesian Forces:  Max     0.000422951 RMS     0.000098844

 GradGradGradGradGradGradGradGradGradGradGradGradGradGradGradGradGradGrad
 Berny optimization.
 Internal  Forces:  Max     0.000156210 RMS     0.000060698
 Search for a local minimum.
 Step number   5 out of a maximum of  48
 All quantities printed in internal units (Hartrees-Bohrs-Radians)
 Update second derivatives using D2CorX and points  1  2  3  4  5

 Trust test= 9.74D-01 RLast= 5.49D-03 DXMaxT set to 4.24D-01
     Eigenvalues ---    0.01997   0.02065   0.02118   0.02263   0.02362
     Eigenvalues ---    0.02464   0.14446   0.15838   0.16003   0.16069
     Eigenvalues ---    0.23338   0.32081   0.37665   0.37961   0.38603
     Eigenvalues ---    0.39655   0.45037   0.47394   0.49874   0.58940
     Eigenvalues ---    0.608961000.000001000.000001000.000001000.00000
     Eigenvalues --- 1000.000001000.000001000.000001000.000001000.00000
     Eigenvalues --- 1000.000001000.000001000.000001000.000001000.00000
     Eigenvalues --- 1000.000001000.000001000.00000
 RFO step:  Lambda=-4.64145613D-07.
 Quartic linear search produced a step of -0.02120.
 Iteration  1 RMS(Cart)=  0.00028664 RMS(Int)=  0.00000004
 Iteration  2 RMS(Cart)=  0.00000004 RMS(Int)=  0.00000001
 Variable       Old X    -DE/DX   Delta X   Delta X   Delta X     New X
                                 (Linear)    (Quad)   (Total)
    R1        2.06822   0.00006  -0.00002   0.00019   0.00017   2.06839
    R2        2.61996  -0.00004  -0.00004   0.00007   0.00003   2.61999
    R3        2.63140  -0.00002   0.00000  -0.00008  -0.00008   2.63132
    R4        2.06162   0.00001  -0.00001   0.00004   0.00003   2.06165
    R5        2.68900   0.00015  -0.00003   0.00044   0.00041   2.68941
    R6        2.06914   0.00005  -0.00002   0.00017   0.00015   2.06929
    R7        2.60600  -0.00005  -0.00001  -0.00006  -0.00007   2.60592
    R8        2.67944  -0.00007   0.00001  -0.00018  -0.00017   2.67928
    R9        1.97318   0.00014  -0.00002   0.00031   0.00029   1.97347
    A1        2.30916  -0.00002   0.00002  -0.00024  -0.00022   2.30894
    A2        2.12195   0.00013   0.00001   0.00065   0.00066   2.12260
    A3        1.85208  -0.00011  -0.00003  -0.00041  -0.00044   1.85164
    A4        2.21387  -0.00007   0.00000  -0.00046  -0.00046   2.21341
    A5        1.84606   0.00004   0.00001   0.00026   0.00026   1.84633
    A6        2.22325   0.00004  -0.00001   0.00021   0.00020   2.22345
    A7        2.22786   0.00006  -0.00002   0.00039   0.00036   2.22823
    A8        1.98080  -0.00003   0.00004  -0.00027  -0.00023   1.98057
    A9        2.07452  -0.00003  -0.00002  -0.00012  -0.00013   2.07439
   A10        1.76462  -0.00006  -0.00006  -0.00001  -0.00007   1.76455
   A11        1.98122   0.00016   0.00004   0.00044   0.00047   1.98169
   A12        2.21821  -0.00007  -0.00002  -0.00021  -0.00023   2.21798
   A13        2.08376  -0.00008  -0.00002  -0.00023  -0.00025   2.08351
    D1        0.00000   0.00000   0.00000   0.00000   0.00000   0.00000
    D2        3.14159   0.00000   0.00000   0.00000   0.00000   3.14159
    D3        3.14159   0.00000   0.00000   0.00000   0.00000   3.14159
    D4        0.00000   0.00000   0.00000   0.00000   0.00000   0.00000
    D5        3.14159   0.00000   0.00000   0.00000   0.00000   3.14159
    D6        0.00000   0.00000   0.00000   0.00000   0.00000   0.00000
    D7        0.00000   0.00000   0.00000   0.00000   0.00000   0.00000
    D8        3.14159   0.00000   0.00000   0.00000   0.00000   3.14159
    D9        3.14159   0.00000   0.00000   0.00000   0.00000   3.14159
   D10        0.00000   0.00000   0.00000   0.00000   0.00000   0.00000
   D11        0.00000   0.00000   0.00000   0.00000   0.00000   0.00000
   D12        3.14159   0.00000   0.00000   0.00000   0.00000   3.14159
   D13        0.00000   0.00000   0.00000   0.00000   0.00000   0.00000
   D14        3.14159   0.00000   0.00000   0.00000   0.00000   3.14159
   D15        0.00000   0.00000   0.00000   0.00000   0.00000   0.00000
   D16        3.14159   0.00000   0.00000   0.00000   0.00000   3.14159
         Item               Value     Threshold  Converged?
 Maximum Force            0.000156     0.000450     YES
 RMS     Force            0.000061     0.000300     YES
 Maximum Displacement     0.000842     0.001800     YES
 RMS     Displacement     0.000287     0.001200     YES
 Predicted change in Energy=-2.351468D-07
 Optimization completed.
    -- Stationary point found.
                           ----------------------------
                           !   Optimized Parameters   !
                           ! (Angstroms and Degrees)  !
 --------------------------                            --------------------------
 ! Name  Definition              Value          Derivative Info.                !
 --------------------------------------------------------------------------------
 ! R1    R(1,2)                  1.0945         -DE/DX =    0.0001              !
 ! R2    R(2,4)                  1.3864         -DE/DX =    0.0                 !
 ! R3    R(2,9)                  1.3925         -DE/DX =    0.0                 !
 ! R4    R(3,4)                  1.091          -DE/DX =    0.0                 !
 ! R5    R(4,6)                  1.423          -DE/DX =    0.0002              !
 ! R6    R(5,6)                  1.0949         -DE/DX =    0.0                 !
 ! R7    R(6,7)                  1.379          -DE/DX =    0.0                 !
 ! R8    R(7,9)                  1.4179         -DE/DX =   -0.0001              !
 ! R9    R(8,9)                  1.0442         -DE/DX =    0.0001              !
 ! A1    A(1,2,4)              132.305          -DE/DX =    0.0                 !
 ! A2    A(1,2,9)              121.5787         -DE/DX =    0.0001              !
 ! A3    A(4,2,9)              106.1163         -DE/DX =   -0.0001              !
 ! A4    A(2,4,3)              126.8454         -DE/DX =   -0.0001              !
 ! A5    A(2,4,6)              105.7717         -DE/DX =    0.0                 !
 ! A6    A(3,4,6)              127.3829         -DE/DX =    0.0                 !
 ! A7    A(4,6,5)              127.6471         -DE/DX =    0.0001              !
 ! A8    A(4,6,7)              113.4915         -DE/DX =    0.0                 !
 ! A9    A(5,6,7)              118.8614         -DE/DX =    0.0                 !
 ! A10   A(6,7,9)              101.1053         -DE/DX =   -0.0001              !
 ! A11   A(2,9,7)              113.5153         -DE/DX =    0.0002              !
 ! A12   A(2,9,8)              127.0941         -DE/DX =   -0.0001              !
 ! A13   A(7,9,8)              119.3907         -DE/DX =   -0.0001              !
 ! D1    D(1,2,4,3)              0.0            -DE/DX =    0.0                 !
 ! D2    D(1,2,4,6)            180.0            -DE/DX =    0.0                 !
 ! D3    D(9,2,4,3)            180.0            -DE/DX =    0.0                 !
 ! D4    D(9,2,4,6)              0.0            -DE/DX =    0.0                 !
 ! D5    D(1,2,9,7)            180.0            -DE/DX =    0.0                 !
 ! D6    D(1,2,9,8)              0.0            -DE/DX =    0.0                 !
 ! D7    D(4,2,9,7)              0.0            -DE/DX =    0.0                 !
 ! D8    D(4,2,9,8)            180.0            -DE/DX =    0.0                 !
 ! D9    D(2,4,6,5)            180.0            -DE/DX =    0.0                 !
 ! D10   D(2,4,6,7)              0.0            -DE/DX =    0.0                 !
 ! D11   D(3,4,6,5)              0.0            -DE/DX =    0.0                 !
 ! D12   D(3,4,6,7)            180.0            -DE/DX =    0.0                 !
 ! D13   D(4,6,7,9)              0.0            -DE/DX =    0.0                 !
 ! D14   D(5,6,7,9)            180.0            -DE/DX =    0.0                 !
 ! D15   D(6,7,9,2)              0.0            -DE/DX =    0.0                 !
 ! D16   D(6,7,9,8)            180.0            -DE/DX =    0.0                 !
 --------------------------------------------------------------------------------
 GradGradGradGradGradGradGradGradGradGradGradGradGradGradGradGradGradGrad

                          Input orientation:                          
 ---------------------------------------------------------------------
 Center     Atomic     Atomic              Coordinates (Angstroms)
 Number     Number      Type              X           Y           Z
 ---------------------------------------------------------------------
    1          1             0        2.132994    0.744258    0.000000
    2          6             0        1.127760    0.311436    0.000000
    3          1             0        1.288502   -1.902283    0.000000
    4          6             0        0.676160   -0.999378    0.000000
    5          1             0       -1.461217   -1.746802    0.000000
    6          6             0       -0.744527   -0.919001    0.000000
    7          7             0       -1.221912    0.374769    0.000000
    8          1             0       -0.046987    2.156181    0.000000
    9          7             0       -0.011129    1.112635    0.000000
 ---------------------------------------------------------------------
                    Distance matrix (angstroms):
                    1          2          3          4          5
     1  H    0.000000
     2  C    1.094454   0.000000
     3  H    2.778011   2.219546   0.000000
     4  C    2.272143   1.386426   1.090962   0.000000
     5  H    4.373069   3.307437   2.754111   2.264292   0.000000
     6  C    3.323637   2.240410   2.258329   1.422959   1.094941
     7  N    3.375191   2.350526   3.389269   2.343279   2.135024
     8  H    2.597277   2.187034   4.272548   3.237360   4.151304
     9  N    2.175538   1.392476   3.283104   2.221028   3.206108
                    6          7          8          9
     6  C    0.000000
     7  N    1.379035   0.000000
     8  H    3.153302   2.133982   0.000000
     9  N    2.159958   1.417900   1.044162   0.000000
 Stoichiometry    C3H4N2
 Framework group  CS[SG(C3H4N2)]
 Deg. of freedom    15
 Full point group                 CS      NOp   2
 Largest Abelian subgroup         CS      NOp   2
 Largest concise Abelian subgroup C1      NOp   1
                         Standard orientation:                         
 ---------------------------------------------------------------------
 Center     Atomic     Atomic              Coordinates (Angstroms)
 Number     Number      Type              X           Y           Z
 ---------------------------------------------------------------------
    1          1             0        2.143763    0.741571    0.000000
    2          6             0        1.138108    0.309729    0.000000
    3          1             0        1.296693   -1.904145    0.000000
    4          6             0        0.685231   -1.000644    0.000000
    5          1             0       -1.452873   -1.745984    0.000000
    6          6             0       -0.735378   -0.918883    0.000000
    7          7             0       -1.211501    0.375352    0.000000
    8          1             0       -0.034841    2.155619    0.000000
    9          7             0        0.000000    1.112038    0.000000
 ---------------------------------------------------------------------
 Rotational constants (GHZ):      9.2965904      8.8972752      4.5462754

 **********************************************************************

            Population analysis using the SCF density.

 **********************************************************************

 Orbital symmetries:
       Occupied  (A') (A') (A') (A') (A') (A') (A') (A') (A') (A')
                 (A') (A') (A') (A") (A') (A') (A") (A")
       Virtual   (A") (A") (A') (A') (A') (A') (A') (A') (A') (A')
                 (A')
 The electronic state is 1-A'.
 Alpha  occ. eigenvalues --  -14.22653 -14.12726 -10.02562  -9.99298  -9.97589
 Alpha  occ. eigenvalues --   -0.97252  -0.76612  -0.72674  -0.56642  -0.53603
 Alpha  occ. eigenvalues --   -0.49749  -0.39092  -0.37539  -0.36208  -0.35116
 Alpha  occ. eigenvalues --   -0.20905  -0.19375  -0.17927
 Alpha virt. eigenvalues --    0.09739   0.17193   0.26688   0.32278   0.38779
 Alpha virt. eigenvalues --    0.40073   0.44371   0.47836   0.57155   0.61116
 Alpha virt. eigenvalues --    0.76523
          Condensed to atoms (all electrons):
              1          2          3          4          5          6
     1  H    0.548691   0.387192  -0.001135  -0.017821  -0.000022   0.001716
     2  C    0.387192   4.829289  -0.020069   0.530380   0.001492  -0.056206
     3  H   -0.001135  -0.020069   0.558077   0.390147  -0.001200  -0.017609
     4  C   -0.017821   0.530380   0.390147   4.851646  -0.021139   0.479665
     5  H   -0.000022   0.001492  -0.001200  -0.021139   0.560537   0.387992
     6  C    0.001716  -0.056206  -0.017609   0.479665   0.387992   4.882582
     7  N    0.000970  -0.040260   0.000870  -0.033172  -0.021624   0.418316
     8  H   -0.001173  -0.027131  -0.000042   0.002141  -0.000067   0.003107
     9  N   -0.018339   0.411348   0.001297  -0.058045   0.002035  -0.061505
              7          8          9
     1  H    0.000970  -0.001173  -0.018339
     2  C   -0.040260  -0.027131   0.411348
     3  H    0.000870  -0.000042   0.001297
     4  C   -0.033172   0.002141  -0.058045
     5  H   -0.021624  -0.000067   0.002035
     6  C    0.418316   0.003107  -0.061505
     7  N    6.548738  -0.022862   0.300192
     8  H   -0.022862   0.465360   0.339857
     9  N    0.300192   0.339857   6.276485
 Mulliken atomic charges:
              1
     1  H    0.099921
     2  C   -0.016035
     3  H    0.089664
     4  C   -0.123802
     5  H    0.091996
     6  C   -0.038059
     7  N   -0.151169
     8  H    0.240809
     9  N   -0.193325
 Sum of Mulliken charges=   0.00000
 Atomic charges with hydrogens summed into heavy atoms:
              1
     1  H    0.000000
     2  C    0.083886
     3  H    0.000000
     4  C   -0.034138
     5  H    0.000000
     6  C    0.053938
     7  N   -0.151169
     8  H    0.000000
     9  N    0.047484
 Sum of Mulliken charges=   0.00000
 Electronic spatial extent (au):  <R**2>=   292.0610
 Charge=     0.0000 electrons
 Dipole moment (field-independent basis, Debye):
    X=     1.8949    Y=     1.0444    Z=     0.0000  Tot=     2.1637
 Quadrupole moment (field-independent basis, Debye-Ang):
   XX=   -27.9110   YY=   -21.0563   ZZ=   -28.4870
   XY=     2.0899   XZ=     0.0000   YZ=     0.0000
 Traceless Quadrupole moment (field-independent basis, Debye-Ang):
   XX=    -2.0929   YY=     4.7618   ZZ=    -2.6689
   XY=     2.0899   XZ=     0.0000   YZ=     0.0000
 Octapole moment (field-independent basis, Debye-Ang**2):
  XXX=     6.7410  YYY=    12.3173  ZZZ=     0.0000  XYY=     0.1169
  XXY=    -1.4722  XXZ=     0.0000  XZZ=    -1.2079  YZZ=     1.7298
  YYZ=     0.0000  XYZ=     0.0000
 Hexadecapole moment (field-independent basis, Debye-Ang**3):
 XXXX=  -165.1845 YYYY=  -129.2542 ZZZZ=   -21.3654 XXXY=     7.5248
 XXXZ=     0.0000 YYYX=    -2.0654 YYYZ=     0.0000 ZZZX=     0.0000
 ZZZY=     0.0000 XXYY=   -49.4548 XXZZ=   -32.9864 YYZZ=   -32.7529
 XXYZ=     0.0000 YYXZ=     0.0000 ZZXY=    -0.5940
 N-N= 1.590893174147D+02 E-N=-8.370302196993D+02  KE= 2.194171812229D+02
 Symmetry A'   KE= 2.104153942778D+02
 Symmetry A"   KE= 9.001786945155D+00
 1|1|UNPC-UNK|FOpt|RB3PW91|STO-3G|C3H4N2|PCUSER|30-Aug-2004|0||#B3PW91/
 STO-3G OPT FREQ||1hpyraz 1H-Pyrazole casno=288131 method=16 basis=20||
 0,1|H,2.1430397719,0.7436602124,0.|C,1.1378058188,0.3108380021,0.|H,1.
 2985477286,-1.9028802935,0.|C,0.6862054283,-0.999976048,0.|H,-1.451171
 1494,-1.7473992678,0.|C,-0.7344819991,-0.9195990777,0.|N,-1.2118663403
 ,0.3741709291,0.|H,-0.0369415132,2.1555838045,0.|N,-0.0010837062,1.112
 0373975,0.||Version=x86-Win32-G03RevB.05|State=1-A'|HF=-223.2755446|RM
 SD=9.279e-009|RMSF=9.884e-005|Dipole=0.7451271,0.4116302,0.|PG=CS [SG(
 C3H4N2)]||@


 At the touch of love, everyone becomves a poet.
                                -- Plato
 Job cpu time:  0 days  0 hours  1 minutes 47.0 seconds.
 File lengths (MBytes):  RWF=     11 Int=      0 D2E=      0 Chk=      4 Scr=      1
 Normal termination of Gaussian 03 at Mon Aug 30 15:16:39 2004.
 Link1:  Proceeding to internal job step number  2.
 -----------------------------------------------------------------
 #N Geom=AllCheck Guess=Read SCRF=Check GenChk RB3PW91/STO-3G Freq
 -----------------------------------------------------------------
 1/10=4,29=7,30=1,38=1,40=1,46=1/1,3;
 2/40=1/2;
 3/6=3,11=2,16=1,25=1,30=1,70=2,71=2,74=-6/1,2,3;
 4/5=1,7=1/1;
 5/5=2,38=6/2;
 8/6=4,10=90,11=11,27=786432000/1;
 11/6=1,8=1,9=11,15=111,16=1/1,2,10;
 10/6=1/2;
 6/7=2,8=2,9=2,10=2,18=1,28=1/1;
 7/8=1,10=1,25=1/1,2,3,16;
 1/10=4,30=1,46=1/3;
 99//99;
 ---------------------------------------------------
 1hpyraz 1H-Pyrazole casno=288131 method=16 basis=20
 ---------------------------------------------------
 Redundant internal coordinates taken from checkpoint file:
 gxx.chk
 Charge =  0 Multiplicity = 1
 H,0,2.1430397719,0.7436602124,0.
 C,0,1.1378058188,0.3108380021,0.
 H,0,1.2985477286,-1.9028802935,0.
 C,0,0.6862054283,-0.999976048,0.
 H,0,-1.4511711494,-1.7473992678,0.
 C,0,-0.7344819991,-0.9195990777,0.
 N,0,-1.2118663403,0.3741709291,0.
 H,0,-0.0369415132,2.1555838045,0.
 N,0,-0.0010837062,1.1120373975,0.
 Recover connectivity data from disk.

 GradGradGradGradGradGradGradGradGradGradGradGradGradGradGradGradGradGrad
 Berny optimization.
 Initialization pass.
                           ----------------------------
                           !    Initial Parameters    !
                           ! (Angstroms and Degrees)  !
 --------------------------                            --------------------------
 ! Name  Definition              Value          Derivative Info.                !
 --------------------------------------------------------------------------------
 ! R1    R(1,2)                  1.0945         calculate D2E/DX2 analytically  !
 ! R2    R(2,4)                  1.3864         calculate D2E/DX2 analytically  !
 ! R3    R(2,9)                  1.3925         calculate D2E/DX2 analytically  !
 ! R4    R(3,4)                  1.091          calculate D2E/DX2 analytically  !
 ! R5    R(4,6)                  1.423          calculate D2E/DX2 analytically  !
 ! R6    R(5,6)                  1.0949         calculate D2E/DX2 analytically  !
 ! R7    R(6,7)                  1.379          calculate D2E/DX2 analytically  !
 ! R8    R(7,9)                  1.4179         calculate D2E/DX2 analytically  !
 ! R9    R(8,9)                  1.0442         calculate D2E/DX2 analytically  !
 ! A1    A(1,2,4)              132.305          calculate D2E/DX2 analytically  !
 ! A2    A(1,2,9)              121.5787         calculate D2E/DX2 analytically  !
 ! A3    A(4,2,9)              106.1163         calculate D2E/DX2 analytically  !
 ! A4    A(2,4,3)              126.8454         calculate D2E/DX2 analytically  !
 ! A5    A(2,4,6)              105.7717         calculate D2E/DX2 analytically  !
 ! A6    A(3,4,6)              127.3829         calculate D2E/DX2 analytically  !
[...]
   9   7     0.02  -0.04   0.00     0.12   0.07   0.00    -0.14   0.04   0.00
                    16                     17                     18
                    A'                     A'                     A'
 Frequencies --  1567.8274              1670.6326              3513.7530
 Red. masses --     3.2099                 3.6249                 1.0932
 Frc consts  --     4.6488                 5.9608                 7.9525
 IR Inten    --    11.6818                12.5939                 0.0581
 Atom AN      X      Y      Z        X      Y      Z        X      Y      Z
   1   1    -0.06  -0.33   0.00     0.35  -0.30   0.00    -0.41  -0.17   0.00
   2   6    -0.22   0.15   0.00     0.04   0.30   0.00     0.04   0.01   0.00
   3   1    -0.31  -0.33   0.00     0.34  -0.07   0.00     0.26  -0.39   0.00
   4   6     0.18   0.01   0.00    -0.05  -0.26   0.00    -0.02   0.03   0.00
   5   1    -0.02  -0.10   0.00     0.41  -0.29   0.00     0.50   0.58   0.00
   6   6    -0.10   0.01   0.00    -0.14   0.18   0.00    -0.04  -0.05   0.00
   7   7    -0.05   0.01   0.00     0.08  -0.09   0.00     0.00   0.00   0.00
   8   1    -0.68  -0.15   0.00     0.42  -0.04   0.00     0.00   0.02   0.00
   9   7     0.25  -0.08   0.00    -0.06  -0.05   0.00     0.00   0.00   0.00
                    19                     20                     21
                    A'                     A'                     A'
 Frequencies --  3521.8246              3554.4792              3791.0537
 Red. masses --     1.0996                 1.1128                 1.0848
 Frc consts  --     8.0357                 8.2835                 9.1858
 IR Inten    --    28.5988                17.8655                70.1531
 Atom AN      X      Y      Z        X      Y      Z        X      Y      Z
   1   1     0.72   0.31   0.00    -0.40  -0.17   0.00     0.04   0.01   0.00
   2   6    -0.07  -0.03   0.00     0.04   0.02   0.00    -0.01   0.00   0.00
   3   1    -0.12   0.18   0.00    -0.48   0.71   0.00     0.01  -0.01   0.00
   4   6     0.02  -0.01   0.00     0.04  -0.07   0.00     0.00   0.00   0.00
   5   1     0.38   0.44   0.00     0.18   0.20   0.00    -0.01  -0.01   0.00
   6   6    -0.04  -0.04   0.00    -0.02  -0.02   0.00     0.00   0.00   0.00
   7   7     0.00   0.00   0.00     0.00   0.00   0.00     0.00   0.00   0.00
   8   1     0.00  -0.02   0.00     0.00   0.04   0.00    -0.04   1.00   0.00
   9   7     0.00   0.00   0.00     0.00   0.00   0.00     0.00  -0.08   0.00

 -------------------
 - Thermochemistry -
 -------------------
 Temperature   298.150 Kelvin.  Pressure   1.00000 Atm.
 Atom  1 has atomic number  1 and mass   1.00783
 Atom  2 has atomic number  6 and mass  12.00000
 Atom  3 has atomic number  1 and mass   1.00783
 Atom  4 has atomic number  6 and mass  12.00000
 Atom  5 has atomic number  1 and mass   1.00783
 Atom  6 has atomic number  6 and mass  12.00000
 Atom  7 has atomic number  7 and mass  14.00307
 Atom  8 has atomic number  1 and mass   1.00783
 Atom  9 has atomic number  7 and mass  14.00307
 Molecular mass:    68.03745 amu.
 Principal axes and moments of inertia in atomic units:
                           1         2         3
     EIGENVALUES --   194.12937 202.84201 396.97138
           X            0.96199   0.27309   0.00000
           Y           -0.27309   0.96199   0.00000
           Z            0.00000   0.00000   1.00000
 This molecule is an asymmetric top.
 Rotational symmetry number  1.
 Rotational temperatures (Kelvin)      0.44617     0.42700     0.21819
 Rotational constants (GHZ):           9.29659     8.89728     4.54628
 Zero-point vibrational energy     195226.3 (Joules/Mol)
                                   46.66020 (Kcal/Mol)
 Warning -- explicit consideration of   1 degrees of freedom as
           vibrations may cause significant error
 Vibrational temperatures:    622.58   931.14   961.96  1128.98  1267.51
          (Kelvin)           1341.98  1345.42  1354.19  1541.25  1602.38
                             1682.20  1742.95  1853.57  2066.43  2167.45
                             2255.75  2403.66  5055.50  5067.11  5114.10
                             5454.47
 
 Zero-point correction=                           0.074358 (Hartree/Particle)
 Thermal correction to Energy=                    0.078129
 Thermal correction to Enthalpy=                  0.079073
 Thermal correction to Gibbs Free Energy=         0.047989
 Sum of electronic and zero-point Energies=           -223.201187
 Sum of electronic and thermal Energies=              -223.197416
 Sum of electronic and thermal Enthalpies=            -223.196472
 Sum of electronic and thermal Free Energies=         -223.227556
 
                     E (Thermal)             CV                S
                      KCal/Mol        Cal/Mol-Kelvin    Cal/Mol-Kelvin
 Total                   49.026             13.162             65.421
 Electronic               0.000              0.000              0.000
 Translational            0.889              2.981             38.570
 Rotational               0.889              2.981             24.262
 Vibrational             47.249              7.201              2.589
 Vibration  1             0.794              1.399              0.850
                       Q            Log10(Q)             Ln(Q)
 Total Bot       0.844565D-22        -22.073367        -50.825806
 Total V=0       0.134511D+13         12.128758         27.927497
 Vib (Bot)       0.855471D-34        -34.067795        -78.443997
 Vib (Bot)  1    0.401808D+00         -0.395982         -0.911782
 Vib (V=0)       0.136248D+01          0.134330          0.309306
 Vib (V=0)  1    0.114144D+01          0.057454          0.132293
 Electronic      0.100000D+01          0.000000          0.000000
 Translational   0.220586D+08          7.343577         16.909211
 Rotational      0.447559D+05          4.650851         10.708979
 ***** Axes restored to original set *****
 -------------------------------------------------------------------
 Center     Atomic                   Forces (Hartrees/Bohr)
 Number     Number              X              Y              Z
 -------------------------------------------------------------------
    1          1           0.000089058   -0.000046668    0.000000000
    2          6           0.000063045    0.000128929    0.000000000
    3          1           0.000045108    0.000016757    0.000000000
    4          6           0.000039119    0.000062093    0.000000000
    5          1          -0.000070729   -0.000003692    0.000000000
    6          6          -0.000088985    0.000043307    0.000000000
    7          7          -0.000000527    0.000084660    0.000000000
    8          1          -0.000001323    0.000137558    0.000000000
    9          7          -0.000074767   -0.000422944    0.000000000
 -------------------------------------------------------------------
 Cartesian Forces:  Max     0.000422944 RMS     0.000098842

 GradGradGradGradGradGradGradGradGradGradGradGradGradGradGradGradGradGrad
 Berny optimization.
 Internal  Forces:  Max     0.000156204 RMS     0.000060696
 Search for a local minimum.
 Step number   1 out of a maximum of   2
 All quantities printed in internal units (Hartrees-Bohrs-Radians)
 Second derivative matrix not updated -- analytic derivatives used.
     Eigenvalues ---    0.00593   0.01341   0.01786   0.02972   0.05727
     Eigenvalues ---    0.06225   0.10451   0.11414   0.11744   0.12818
     Eigenvalues ---    0.23903   0.29514   0.37738   0.42105   0.43287
     Eigenvalues ---    0.43505   0.43896   0.46246   0.50913   0.53509
     Eigenvalues ---    0.607141000.000001000.000001000.000001000.00000
     Eigenvalues --- 1000.000001000.000001000.000001000.000001000.00000
     Eigenvalues --- 1000.000001000.000001000.000001000.000001000.00000
     Eigenvalues --- 1000.000001000.000001000.00000
 Angle between quadratic step and forces=  34.30 degrees.
 Linear search not attempted -- first point.
 Iteration  1 RMS(Cart)=  0.00031307 RMS(Int)=  0.00000006
 Iteration  2 RMS(Cart)=  0.00000007 RMS(Int)=  0.00000001
 Variable       Old X    -DE/DX   Delta X   Delta X   Delta X     New X
                                 (Linear)    (Quad)   (Total)
    R1        2.06822   0.00006   0.00000   0.00012   0.00012   2.06834
    R2        2.61996  -0.00004   0.00000   0.00002   0.00002   2.61999
    R3        2.63140  -0.00002   0.00000  -0.00005  -0.00005   2.63135
    R4        2.06162   0.00001   0.00000   0.00004   0.00004   2.06166
    R5        2.68900   0.00015   0.00000   0.00027   0.00027   2.68928
    R6        2.06914   0.00005   0.00000   0.00011   0.00011   2.06925
    R7        2.60600  -0.00005   0.00000   0.00001   0.00001   2.60601
    R8        2.67944  -0.00007   0.00000  -0.00028  -0.00028   2.67916
    R9        1.97318   0.00014   0.00000   0.00028   0.00028   1.97346
    A1        2.30916  -0.00002   0.00000  -0.00044  -0.00044   2.30872
    A2        2.12195   0.00013   0.00000   0.00078   0.00078   2.12273
    A3        1.85208  -0.00011   0.00000  -0.00034  -0.00034   1.85174
    A4        2.21387  -0.00007   0.00000  -0.00056  -0.00056   2.21331
    A5        1.84606   0.00004   0.00000   0.00018   0.00018   1.84624
    A6        2.22325   0.00004   0.00000   0.00038   0.00038   2.22363
    A7        2.22786   0.00006   0.00000   0.00040   0.00040   2.22826
    A8        1.98080  -0.00003   0.00000  -0.00017  -0.00017   1.98063
    A9        2.07452  -0.00003   0.00000  -0.00023  -0.00023   2.07429
   A10        1.76462  -0.00006   0.00000  -0.00007  -0.00007   1.76455
   A11        1.98122   0.00016   0.00000   0.00040   0.00040   1.98162
   A12        2.21821  -0.00007   0.00000  -0.00015  -0.00015   2.21806
   A13        2.08376  -0.00008   0.00000  -0.00025  -0.00025   2.08351
    D1        0.00000   0.00000   0.00000   0.00000   0.00000   0.00000
    D2        3.14159   0.00000   0.00000   0.00000   0.00000   3.14159
    D3        3.14159   0.00000   0.00000   0.00000   0.00000   3.14159
    D4        0.00000   0.00000   0.00000   0.00000   0.00000   0.00000
    D5        3.14159   0.00000   0.00000   0.00000   0.00000   3.14159
    D6        0.00000   0.00000   0.00000   0.00000   0.00000   0.00000
    D7        0.00000   0.00000   0.00000   0.00000   0.00000   0.00000
    D8        3.14159   0.00000   0.00000   0.00000   0.00000   3.14159
    D9        3.14159   0.00000   0.00000   0.00000   0.00000   3.14159
   D10        0.00000   0.00000   0.00000   0.00000   0.00000   0.00000
   D11        0.00000   0.00000   0.00000   0.00000   0.00000   0.00000
   D12        3.14159   0.00000   0.00000   0.00000   0.00000   3.14159
   D13        0.00000   0.00000   0.00000   0.00000   0.00000   0.00000
   D14        3.14159   0.00000   0.00000   0.00000   0.00000   3.14159
   D15        0.00000   0.00000   0.00000   0.00000   0.00000   0.00000
   D16        3.14159   0.00000   0.00000   0.00000   0.00000   3.14159
         Item               Value     Threshold  Converged?
 Maximum Force            0.000156     0.000450     YES
 RMS     Force            0.000061     0.000300     YES
 Maximum Displacement     0.000870     0.001800     YES
 RMS     Displacement     0.000313     0.001200     YES
 Predicted change in Energy=-2.272386D-07
 Optimization completed.
    -- Stationary point found.
                           ----------------------------
                           !   Optimized Parameters   !
                           ! (Angstroms and Degrees)  !
 --------------------------                            --------------------------
 ! Name  Definition              Value          Derivative Info.                !
 --------------------------------------------------------------------------------
 ! R1    R(1,2)                  1.0945         -DE/DX =    0.0001              !
 ! R2    R(2,4)                  1.3864         -DE/DX =    0.0                 !
 ! R3    R(2,9)                  1.3925         -DE/DX =    0.0                 !
 ! R4    R(3,4)                  1.091          -DE/DX =    0.0                 !
 ! R5    R(4,6)                  1.423          -DE/DX =    0.0002              !
 ! R6    R(5,6)                  1.0949         -DE/DX =    0.0                 !
 ! R7    R(6,7)                  1.379          -DE/DX =    0.0                 !
 ! R8    R(7,9)                  1.4179         -DE/DX =   -0.0001              !
 ! R9    R(8,9)                  1.0442         -DE/DX =    0.0001              !
 ! A1    A(1,2,4)              132.305          -DE/DX =    0.0                 !
 ! A2    A(1,2,9)              121.5787         -DE/DX =    0.0001              !
 ! A3    A(4,2,9)              106.1163         -DE/DX =   -0.0001              !
 ! A4    A(2,4,3)              126.8454         -DE/DX =   -0.0001              !
 ! A5    A(2,4,6)              105.7717         -DE/DX =    0.0                 !
 ! A6    A(3,4,6)              127.3829         -DE/DX =    0.0                 !
 ! A7    A(4,6,5)              127.6471         -DE/DX =    0.0001              !
 ! A8    A(4,6,7)              113.4915         -DE/DX =    0.0                 !
 ! A9    A(5,6,7)              118.8614         -DE/DX =    0.0                 !
 ! A10   A(6,7,9)              101.1053         -DE/DX =   -0.0001              !
 ! A11   A(2,9,7)              113.5153         -DE/DX =    0.0002              !
 ! A12   A(2,9,8)              127.0941         -DE/DX =   -0.0001              !
 ! A13   A(7,9,8)              119.3907         -DE/DX =   -0.0001              !
 ! D1    D(1,2,4,3)              0.0            -DE/DX =    0.0                 !
 ! D2    D(1,2,4,6)            180.0            -DE/DX =    0.0                 !
 ! D3    D(9,2,4,3)            180.0            -DE/DX =    0.0                 !
 ! D4    D(9,2,4,6)              0.0            -DE/DX =    0.0                 !
 ! D5    D(1,2,9,7)            180.0            -DE/DX =    0.0                 !
 ! D6    D(1,2,9,8)              0.0            -DE/DX =    0.0                 !
 ! D7    D(4,2,9,7)              0.0            -DE/DX =    0.0                 !
 ! D8    D(4,2,9,8)            180.0            -DE/DX =    0.0                 !
 ! D9    D(2,4,6,5)            180.0            -DE/DX =    0.0                 !
 ! D10   D(2,4,6,7)              0.0            -DE/DX =    0.0                 !
 ! D11   D(3,4,6,5)              0.0            -DE/DX =    0.0                 !
 ! D12   D(3,4,6,7)            180.0            -DE/DX =    0.0                 !
 ! D13   D(4,6,7,9)              0.0            -DE/DX =    0.0                 !
 ! D14   D(5,6,7,9)            180.0            -DE/DX =    0.0                 !
 ! D15   D(6,7,9,2)              0.0            -DE/DX =    0.0                 !
 ! D16   D(6,7,9,8)            180.0            -DE/DX =    0.0                 !
 --------------------------------------------------------------------------------
 GradGradGradGradGradGradGradGradGradGradGradGradGradGradGradGradGradGrad

 1|1|UNPC-UNK|Freq|RB3PW91|STO-3G|C3H4N2|PCUSER|30-Aug-2004|0||#N GEOM=
 ALLCHECK GUESS=READ SCRF=CHECK GENCHK RB3PW91/STO-3G FREQ||1hpyraz 1H-
 Pyrazole casno=288131 method=16 basis=20||0,1|H,2.1430397719,0.7436602
 124,0.|C,1.1378058188,0.3108380021,0.|H,1.2985477286,-1.9028802935,0.|
 C,0.6862054283,-0.999976048,0.|H,-1.4511711494,-1.7473992678,0.|C,-0.7
 344819991,-0.9195990777,0.|N,-1.2118663403,0.3741709291,0.|H,-0.036941
 5132,2.1555838045,0.|N,-0.0010837062,1.1120373975,0.||Version=x86-Win3
 2-G03RevB.05|State=1-A'|HF=-223.2755446|RMSD=3.716e-009|RMSF=9.884e-00
 5|Dipole=0.7451272,0.4116302,0.|DipoleDeriv=0.1418048,0.0357118,0.,0.0
 140352,0.0759743,0.,0.,0.,0.1283202,-0.1102103,-0.2123327,0.,0.0193994
 ,0.2584761,0.,0.,0.,-0.0070981,0.0832936,-0.011068,0.,-0.0099306,0.122
 215,0.,0.,0.,0.0986826,-0.1943102,-0.1821864,0.,-0.1027911,-0.2391573,
 0.,0.,0.,-0.1340534,0.0765175,0.0229786,0.,0.0180421,0.1050724,0.,0.,0
 .,0.0860629,0.128761,0.1684162,0.,0.1058723,-0.1625335,0.,0.,0.,-0.043
 6095,-0.1597778,0.228444,0.,0.0582919,0.0379741,0.,0.,0.,-0.1608102,0.
 1720186,-0.0280224,0.,-0.006332,0.245124,0.,0.,0.,0.299614,-0.1380971,
 -0.0219411,0.,-0.0965872,-0.443145,0.,0.,0.,-0.2671085|Polar=29.143225
 1,1.9890272,33.0170793,0.,0.,5.2860396|PG=CS [SG(C3H4N2)]|NImag=0||0.3
 7568371,0.13751072,0.11246933,0.,0.,0.02202145,-0.36742710,-0.14045244
 ,0.,0.93635181,-0.13226955,-0.12422728,0.,0.14875435,0.78469809,0.,0.,
 -0.02735037,0.,0.,0.11745614,0.00052340,0.00074844,0.,0.01177149,-0.01
 592458,0.,0.17316020,-0.00077548,0.00073415,0.,0.02272485,-0.00871880,
 0.,-0.17899649,0.31813256,0.,0.,-0.00325694,0.,0.,-0.00122194,0.,0.,0.
 02485608,0.00457153,-0.02391476,0.,-0.15645218,-0.07019675,0.,-0.17816
 934,0.17028754,0.,0.72174689,0.00745769,0.00638780,0.,-0.12060131,-0.4
 2727174,0.,0.17377862,-0.31624149,0.,-0.15006815,0.95374948,0.,0.,0.00
 109289,0.,0.,-0.06437368,0.,0.,-0.03051147,0.,0.,0.12576395,0.00031803
 ,-0.00144883,0.,-0.00535229,0.00327934,0.,0.00110221,0.00051507,0.,-0.
 00365104,-0.02399597,0.,0.21731208,-0.00022907,0.00076869,0.,0.0035549
 8,-0.00137592,0.,-0.00062389,0.00050695,0.,0.01074349,0.00941965,0.,0.
 18564769,0.27413259,0.,0.,0.00074865,0.,0.,0.00524091,0.,0.,-0.0023588
 1,0.,0.,0.00003458,0.,0.,0.02608200,-0.00001765,-0.00053471,0.,-0.0404
 1809,-0.10879797,0.,-0.00244928,-0.00816963,0.,-0.34749006,0.04315516,
 0.,-0.22473741,-0.17622058,0.,0.79595465,0.00113594,-0.00703568,0.,-0.
 01487853,0.02054661,0.,0.02676250,0.00676876,0.,-0.02675798,-0.1293246
 4,0.,-0.18014901,-0.26459505,0.,0.15828050,0.84719004,0.,0.,0.00650228
 ,0.,0.,0.01068845,0.,0.,-0.00191979,0.,0.,-0.06579697,0.,0.,-0.0308873
 1,0.,0.,0.13420457,0.00234108,0.00407086,0.,-0.08502900,0.02426459,0.,
 -0.00554786,-0.00241800,0.,-0.03816855,0.00731134,0.,0.01273805,-0.025
 25723,0.,-0.14563070,0.06886057,0.,0.50656010,0.00385135,-0.00241512,0
 .,-0.02682585,-0.02958950,0.,-0.00022835,0.00161973,0.,0.09638208,-0.0
 1054773,0.,0.00961040,-0.01385854,0.,0.11403281,-0.35966774,0.,-0.0361
 7215,0.56514126,0.,0.,0.00560810,0.,0.,0.01185954,0.,0.,0.00643099,0.,
 0.,0.01972959,0.,0.,-0.00887913,0.,0.,-0.06237515,0.,0.,0.08796328,0.0
 0098530,-0.00039113,0.,0.01277020,0.02475736,0.,0.00128301,0.00106529,
 0.,-0.00679262,0.00303556,0.,0.00161654,-0.00169259,0.,-0.01036155,-0.
 00401421,0.,0.01669734,-0.02778358,0.,0.06362475,0.00038229,0.00079064
 ,0.,-0.01294134,-0.00519240,0.,-0.00007780,-0.00041896,0.,0.00594683,0
 .00355164,0.,0.00015776,-0.00055566,0.,-0.00675216,0.00347785,0.,0.006
 45035,-0.00995576,0.,-0.01597214,0.50886156,0.,0.,-0.00169397,0.,0.,-0
 .00983265,0.,0.,0.00239327,0.,0.,0.00317022,0.,0.,0.00259399,0.,0.,0.0
 0443026,0.,0.,-0.01399572,0.,0.,0.01100427,-0.01697830,0.02441186,0.,-
 0.30621484,0.12613319,0.,-0.00167381,-0.00423315,0.,0.00440535,0.05992
 707,0.,0.00065383,0.00407720,0.,-0.02484990,-0.02923978,0.,-0.26396046
 ,-0.13286670,0.,-0.07982296,0.02280623,0.,0.68844109,-0.01706389,0.012
 52748,0.,0.14066530,-0.20886906,0.,-0.00543845,-0.00238289,0.,-0.01242
 230,-0.08972297,0.,0.00638355,-0.00444270,0.,-0.01499341,-0.11736015,0
 .,-0.04711032,-0.14072659,0.,0.02099544,-0.50055891,0.,-0.07101591,1.0
 5153580,0.,0.,-0.00367210,0.,0.,-0.04246640,0.,0.,0.00558861,0.,0.,0.0
 1089088,0.,0.,0.00742512,0.,0.,0.00515366,0.,0.,-0.04634149,0.,0.,0.00
 193032,0.,0.,0.06149140||-0.00008906,0.00004667,0.,-0.00006304,-0.0001
 2893,0.,-0.00004511,-0.00001676,0.,-0.00003912,-0.00006209,0.,0.000070
 73,0.00000369,0.,0.00008898,-0.00004331,0.,0.00000053,-0.00008466,0.,0
 .00000132,-0.00013756,0.,0.00007477,0.00042294,0.|||@


 Democracy is the recurrent suspicion that more than half of the people
 are right more than half of the time.
 -- E. B. White
 Job cpu time:  0 days  0 hours  0 minutes 48.0 seconds.
 File lengths (MBytes):  RWF=     11 Int=      0 D2E=      0 Chk=      4 Scr=      1
 Normal termination of Gaussian 03 at Mon Aug 30 15:17:27 2004.
