 Entering Gaussian System, Link 0=g98
 Initial command:
 /usr/local/apps/g98a6/g98/l1.exe /wrk/rdj3/Gau-46752.inp -scrdir=/wrk/rdj3/
 Entering Link 1 = /usr/local/apps/g98a6/g98/l1.exe PID=     27338.
  
 Copyright (c) 1988,1990,1992,1993,1995,1998 Gaussian, Inc.
                  All Rights Reserved.
  
 This is part of the Gaussian(R) 98 program.  It is based on
 the Gaussian 94(TM) system (copyright 1995 Gaussian, Inc.),
 the Gaussian 92(TM) system (copyright 1992 Gaussian, Inc.),
 the Gaussian 90(TM) system (copyright 1990 Gaussian, Inc.),
 the Gaussian 88(TM) system (copyright 1988 Gaussian, Inc.),
 the Gaussian 86(TM) system (copyright 1986 Carnegie Mellon
 University), and the Gaussian 82(TM) system (copyright 1983
 Carnegie Mellon University). Gaussian is a federally registered
 trademark of Gaussian, Inc.
  
 This software contains proprietary and confidential information,
 including trade secrets, belonging to Gaussian, Inc.
  
 This software is provided under written license and may be
 used, copied, transmitted, or stored only in accord with that
 written license.
  
 The following legend is applicable only to US Government
 contracts under DFARS:
  
                    RESTRICTED RIGHTS LEGEND
  
 Use, duplication or disclosure by the US Government is subject
 to restrictions as set forth in subparagraph (c)(1)(ii) of the
 Rights in Technical Data and Computer Software clause at DFARS
 252.227-7013.
  
 Gaussian, Inc.
 Carnegie Office Park, Building 6, Pittsburgh, PA 15106 USA
  
 The following legend is applicable only to US Government
 contracts under FAR:
  
                    RESTRICTED RIGHTS LEGEND
  
 Use, reproduction and disclosure by the US Government is subject
 to restrictions as set forth in subparagraph (c) of the
 Commercial Computer Software - Restricted Rights clause at FAR
 52.227-19.
  
 Gaussian, Inc.
 Carnegie Office Park, Building 6, Pittsburgh, PA 15106 USA
  
  
 ---------------------------------------------------------------
 Warning -- This program may not be used in any manner that
 competes with the business of Gaussian, Inc. or will provide
 assistance to any competitor of Gaussian, Inc.  The licensee
 of this program is prohibited from giving any competitor of
 Gaussian, Inc. access to this program.  By using this program,
 the user acknowledges that Gaussian, Inc. is engaged in the
 business of creating and licensing software in the field of
 computational chemistry and represents and warrants to the
 licensee that it is not a competitor of Gaussian, Inc. and that
 it will not use this program in any manner prohibited above.
 ---------------------------------------------------------------
  

 Cite this work as:
 Gaussian 98, Revision A.6,
 M. J. Frisch, G. W. Trucks, H. B. Schlegel, G. E. Scuseria, 
 M. A. Robb, J. R. Cheeseman, V. G. Zakrzewski, J. A. Montgomery, Jr., 
 R. E. Stratmann, J. C. Burant, S. Dapprich, J. M. Millam, 
 A. D. Daniels, K. N. Kudin, M. C. Strain, O. Farkas, J. Tomasi, 
 V. Barone, M. Cossi, R. Cammi, B. Mennucci, C. Pomelli, C. Adamo, 
 S. Clifford, J. Ochterski, G. A. Petersson, P. Y. Ayala, Q. Cui, 
 K. Morokuma, D. K. Malick, A. D. Rabuck, K. Raghavachari, 
 J. B. Foresman, J. Cioslowski, J. V. Ortiz, B. B. Stefanov, G. Liu, 
 A. Liashenko, P. Piskorz, I. Komaromi, R. Gomperts, R. L. Martin, 
 D. J. Fox, T. Keith, M. A. Al-Laham, C. Y. Peng, A. Nanayakkara, 
 C. Gonzalez, M. Challacombe, P. M. W. Gill, B. Johnson, W. Chen, 
 M. W. Wong, J. L. Andres, C. Gonzalez, M. Head-Gordon, 
 E. S. Replogle, and J. A. Pople, 
 Gaussian, Inc., Pittsburgh PA, 1998.

 **********************************************
 Gaussian 98:  IBM-RS6000-G98RevA.6 19-Oct-1998
                   5-May-2000 
 **********************************************
 %mem=24000000
 ----------------------
 #B3PW91/3-21G opt freq
 ----------------------
 1/14=-1,18=20,26=3,38=1/1,3;
 2/9=110,17=6,18=5/2;
 3/5=5,11=2,25=1,30=1/1,2,3;
 4//1;
 5/5=2,38=4,42=-6/2;
 6/7=2,8=2,9=2,10=2,28=1/1;
 7//1,2,3,16;
 1/14=-1,18=20/3(1);
 99//99;
 2/9=110/2;
 3/5=5,11=2,25=1,30=1/1,2,3;
 4/5=5,16=2/1;
 5/5=2,38=4,42=-6/2;
 7//1,2,3,16;
 1/14=-1,18=20/3(-5);
 2/9=110/2;
 6/7=2,8=2,9=2,10=2,19=2,28=1/1;
 99/9=1/99;
 -------------------------------
 1H pyrazole C3H4N2 casno=288131
 -------------------------------
 Symbolic Z-matrix:
 Charge =  0 Multiplicity = 1
 H                    -1.9125    0.       -0.75938 
 C                    -1.08438   0.       -0.21875 
 H                     0.43438   0.       -1.63125 
 C                     0.15      0.       -0.68438 
 H                     1.9125    0.        0.37188 
 C                     0.92188   0.        0.375 
 N                     0.18125   0.        1.41875 
 H                    -1.74063   0.        1.63125 
 N                    -1.00313   0.        1.05313 

 GradGradGradGradGradGradGradGradGradGradGradGradGradGradGradGradGradGrad
 Berny optimization.
 Initialization pass.
                         ----------------------------
                         !    Initial Parameters    !
                         ! (Angstroms and Degrees)  !
 ------------------------                            -------------------------
 ! Name  Definition              Value          Derivative Info.             !
 -----------------------------------------------------------------------------
 ! R1    R(1,2)                  0.989          estimate D2E/DX2             !
 ! R2    R(2,4)                  1.3193         estimate D2E/DX2             !
 ! R3    R(2,9)                  1.2745         estimate D2E/DX2             !
 ! R4    R(3,4)                  0.9887         estimate D2E/DX2             !
 ! R5    R(4,6)                  1.3108         estimate D2E/DX2             !
 ! R6    R(5,6)                  0.9906         estimate D2E/DX2             !
 ! R7    R(6,7)                  1.2798         estimate D2E/DX2             !
 ! R8    R(7,9)                  1.2395         estimate D2E/DX2             !
 ! R9    R(8,9)                  0.9371         estimate D2E/DX2             !
 ! A1    A(1,2,4)              126.195          estimate D2E/DX2             !
 ! A2    A(1,2,9)              126.7929         estimate D2E/DX2             !
 ! A3    A(4,2,9)              107.012          estimate D2E/DX2             !
 ! A4    A(2,4,3)              127.3838         estimate D2E/DX2             !
 ! A5    A(2,4,6)              105.4104         estimate D2E/DX2             !
 ! A6    A(3,4,6)              127.2058         estimate D2E/DX2             !
 ! A7    A(4,6,5)              125.8968         estimate D2E/DX2             !
 ! A8    A(4,6,7)              108.5636         estimate D2E/DX2             !
 ! A9    A(5,6,7)              125.5395         estimate D2E/DX2             !
 ! A10   A(6,7,9)              108.203          estimate D2E/DX2             !
 ! A11   A(2,9,7)              110.811          estimate D2E/DX2             !
 ! A12   A(2,9,8)              124.4376         estimate D2E/DX2             !
 ! A13   A(7,9,8)              124.7513         estimate D2E/DX2             !
 ! D1    D(1,2,4,3)              0.             estimate D2E/DX2             !
 ! D2    D(1,2,4,6)            180.             estimate D2E/DX2             !
 ! D3    D(9,2,4,3)            180.             estimate D2E/DX2             !
 ! D4    D(9,2,4,6)              0.             estimate D2E/DX2             !
 ! D5    D(1,2,9,7)            180.             estimate D2E/DX2             !
 ! D6    D(1,2,9,8)              0.             estimate D2E/DX2             !
 ! D7    D(4,2,9,7)              0.             estimate D2E/DX2             !
 ! D8    D(4,2,9,8)            180.             estimate D2E/DX2             !
 ! D9    D(2,4,6,5)            180.             estimate D2E/DX2             !
 ! D10   D(2,4,6,7)              0.             estimate D2E/DX2             !
 ! D11   D(3,4,6,5)              0.             estimate D2E/DX2             !
 ! D12   D(3,4,6,7)            180.             estimate D2E/DX2             !
 ! D13   D(4,6,7,9)              0.             estimate D2E/DX2             !
 ! D14   D(5,6,7,9)            180.             estimate D2E/DX2             !
 ! D15   D(6,7,9,2)              0.             estimate D2E/DX2             !
 ! D16   D(6,7,9,8)            180.             estimate D2E/DX2             !
 -----------------------------------------------------------------------------
 Trust Radius=3.00D-01 FncErr=1.00D-07 GrdErr=1.00D-06
 Number of steps in this run=  48 maximum allowed number of steps= 100.
 GradGradGradGradGradGradGradGradGradGradGradGradGradGradGradGradGradGrad

                          Input orientation:                          
 ---------------------------------------------------------------------
 Center     Atomic     Atomic              Coordinates (Angstroms)
 Number     Number      Type              X           Y           Z
 ---------------------------------------------------------------------
    1          1             0       -1.912500    0.000000   -0.759375
    2          6             0       -1.084375    0.000000   -0.218750
    3          1             0        0.434375    0.000000   -1.631250
    4          6             0        0.150000    0.000000   -0.684375
    5          1             0        1.912500    0.000000    0.371875
    6          6             0        0.921875    0.000000    0.375000
    7          7             0        0.181250    0.000000    1.418750
    8          1             0       -1.740625    0.000000    1.631250
    9          7             0       -1.003125    0.000000    1.053125
 ---------------------------------------------------------------------
                    Distance matrix (angstroms):
                    1          2          3          4          5
     1  H    0.000000
     2  C    0.988972   0.000000
     3  H    2.503595   2.074068   0.000000
     4  C    2.063863   1.319276   0.988656   0.000000
     5  H    3.988778   3.054521   2.489450   2.054768   0.000000
     6  C    3.052947   2.092266   2.064630   1.310750   0.990630
     7  N    3.021261   2.069592   3.060486   2.103357   2.023159
     8  H    2.396796   1.962948   3.921037   2.989412   3.864110
     9  N    2.027836   1.274468   3.045041   2.085331   2.994156
                    6          7          8          9
     6  C    0.000000
     7  N    1.279820   0.000000
     8  H    2.943989   1.933587   0.000000
     9  N    2.040950   1.239526   0.937088   0.000000
 Stoichiometry    C3H4N2
 Framework group  CS[SG(C3H4N2)]
 Deg. of freedom   15
 Full point group                 CS      NOp   2
 Largest Abelian subgroup         CS      NOp   2
 Largest concise Abelian subgroup C1      NOp   1
                         Standard orientation:                         
 ---------------------------------------------------------------------
 Center     Atomic     Atomic              Coordinates (Angstroms)
 Number     Number      Type              X           Y           Z
 ---------------------------------------------------------------------
    1          1             0        1.974407    0.585689    0.000000
    2          6             0        1.028833    0.295936    0.000000
    3          1             0        1.140941   -1.775099    0.000000
    4          6             0        0.595873   -0.950271    0.000000
    5          1             0       -1.344123   -1.627388    0.000000
    6          6             0       -0.712074   -0.864589    0.000000
    7          7             0       -1.039336    0.372682    0.000000
    8          1             0        0.028336    1.984773    0.000000
    9          7             0        0.000000    1.048113    0.000000
 ---------------------------------------------------------------------
 Rotational constants (GHZ):     11.1878032     10.4520048      5.4036973
 Isotopes: H-1,C-12,H-1,C-12,H-1,C-12,N-14,H-1,N-14
 Standard basis: 3-21G (6D, 7F)
 There are    43 symmetry adapted basis functions of A'  symmetry.
 There are    10 symmetry adapted basis functions of A"  symmetry.
 Crude estimate of integral set expansion from redundant integrals=1.000.
 Integral buffers will be    262144 words long.
 Raffenetti 2 integral format.
 Two-electron integral symmetry is turned on.
    53 basis functions       87 primitive gaussians
    18 alpha electrons       18 beta electrons
       nuclear repulsion energy       173.7391879471 Hartrees.
 One-electron integrals computed using PRISM.
 NBasis=    53 RedAO= T  NBF=    43    10
 NBsUse=    53 1.00D-04 NBFU=    43    10
 Projected INDO Guess.
 Initial guess orbital symmetries:
       Occupied  (A') (A') (A') (A') (A') (A') (A') (A') (A') (A')
                 (A') (A") (A') (A') (A') (A") (A') (A")
       Virtual   (A") (A') (A') (A") (A') (A') (A') (A') (A') (A')
                 (A') (A') (A') (A') (A') (A') (A') (A') (A') (A')
                 (A') (A') (A') (A') (A') (A') (A') (A') (A') (A')
                 (A") (A") (A") (A") (A")
 Requested convergence on RMS density matrix=1.00D-08 within  64 cycles.
 Requested convergence on MAX density matrix=1.00D-06.
 Keep R1 and R2 integrals in memory in canonical form, NReq=     2463126.
 Integral accuracy reduced to 1.0D-05 until final iterations.
 Initial convergence to 1.0D-05 achieved.  Increase integral accuracy.
 SCF Done:  E(RB+HF-PW91) =  -224.778850381     A.U. after   14 cycles
             Convg  =    0.5830D-08             -V/T =  1.9995
             S**2   =   0.0000

 **********************************************************************

            Population analysis using the SCF density.

 **********************************************************************

 Orbital Symmetries:
       Occupied  (A') (A') (A') (A') (A') (A') (A') (A') (A') (A')
                 (A') (A") (A') (A') (A') (A") (A') (A")
       Virtual   (A") (A") (A') (A') (A') (A') (A') (A') (A') (A')
                 (A') (A") (A') (A') (A") (A') (A") (A') (A') (A')
                 (A') (A") (A') (A") (A') (A') (A') (A') (A') (A')
                 (A') (A') (A') (A') (A')
  The electronic state is 1-A'.
 Alpha  occ. eigenvalues --  -14.32106 -14.23504 -10.11885 -10.09699 -10.07189
 Alpha  occ. eigenvalues --   -1.14732  -0.86181  -0.81896  -0.65749  -0.63228
 Alpha  occ. eigenvalues --   -0.57439  -0.48805  -0.48751  -0.44419  -0.41081
 Alpha  occ. eigenvalues --   -0.27762  -0.25402  -0.24992
 Alpha virt. eigenvalues --    0.05696   0.11016   0.13489   0.19706   0.21787
 Alpha virt. eigenvalues --    0.24657   0.28271   0.30144   0.38817   0.50385
 Alpha virt. eigenvalues --    0.53921   0.72369   0.74529   0.76493   0.78221
 Alpha virt. eigenvalues --    0.78446   0.84232   0.87536   0.93284   0.99865
 Alpha virt. eigenvalues --    1.05571   1.08828   1.10147   1.20206   1.22571
 Alpha virt. eigenvalues --    1.26316   1.27747   1.32513   1.42020   1.48460
 Alpha virt. eigenvalues --    1.62864   1.81859   1.86120   2.64757   2.87354
          Condensed to atoms (all electrons):
              1          2          3          4          5          6
  1  H    0.441780   0.381023  -0.001756  -0.034787  -0.000059   0.008206
  2  C    0.381023   5.278131  -0.046734   0.441997   0.006121  -0.121161
  3  H   -0.001756  -0.046734   0.469474   0.392204  -0.001785  -0.028293
  4  C   -0.034787   0.441997   0.392204   5.425537  -0.062894   0.370009
  5  H   -0.000059   0.006121  -0.001785  -0.062894   0.451434   0.406467
  6  C    0.008206  -0.121161  -0.028293   0.370009   0.406467   5.048059
  7  N    0.003695  -0.227641   0.008005  -0.063553  -0.041828   0.455760
  8  H   -0.000763  -0.048743   0.000004   0.007029  -0.000006   0.005203
  9  N   -0.046806   0.120252   0.006761  -0.004409   0.004205  -0.261002
              7          8          9
  1  H    0.003695  -0.000763  -0.046806
  2  C   -0.227641  -0.048743   0.120252
  3  H    0.008005   0.000004   0.006761
  4  C   -0.063553   0.007029  -0.004409
  5  H   -0.041828  -0.000006   0.004205
  6  C    0.455760   0.005203  -0.261002
  7  N    6.942391  -0.034425   0.282359
  8  H   -0.034425   0.353212   0.360108
  9  N    0.282359   0.360108   7.124455
 Total atomic charges:
              1
  1  H    0.249468
  2  C    0.216754
  3  H    0.202121
  4  C   -0.471133
  5  H    0.238346
  6  C    0.116752
  7  N   -0.324764
  8  H    0.358381
  9  N   -0.585924
 Sum of Mulliken charges=   0.00000
 Atomic charges with hydrogens summed into heavy atoms:
              1
  1  H    0.000000
  2  C    0.466222
  3  H    0.000000
  4  C   -0.269012
  5  H    0.000000
  6  C    0.355097
  7  N   -0.324764
  8  H    0.000000
  9  N   -0.227543
 Sum of Mulliken charges=   0.00000
 Electronic spatial extent (au):  <R**2>=   258.3467
 Charge=     0.0000 electrons
 Dipole moment (Debye):
    X=     2.1052    Y=     1.0965    Z=     0.0000  Tot=     2.3736
 Quadrupole moment (Debye-Ang):
   XX=   -29.6131   YY=   -21.6881   ZZ=   -30.7351
   XY=     2.4910   XZ=     0.0000   YZ=     0.0000
 Octapole moment (Debye-Ang**2):
  XXX=     7.9973  YYY=    11.3721  ZZZ=     0.0000  XYY=     0.4864
  XXY=    -2.1459  XXZ=     0.0000  XZZ=    -1.1165  YZZ=     2.3999
  YYZ=     0.0000  XYZ=     0.0000
 Hexadecapole moment (Debye-Ang**3):
 XXXX=  -144.8359 YYYY=  -116.0925 ZZZZ=   -28.5172 XXXY=     6.7063
 XXXZ=     0.0000 YYYX=    -0.3240 YYYZ=     0.0000 ZZZX=     0.0000
 ZZZY=     0.0000 XXYY=   -45.0060 XXZZ=   -31.4492 YYZZ=   -31.7360
 XXYZ=     0.0000 YYXZ=     0.0000 ZZXY=    -0.5134
 N-N= 1.737391879471D+02 E-N=-8.712471557088D+02  KE= 2.248829284457D+02
 Symmetry A'   KE= 2.166378480367D+02
 Symmetry A"   KE= 8.245080409001D+00
 ***** Axes restored to original set *****
 -------------------------------------------------------------------
 Center     Atomic                   Forces (Hartrees/Bohr)
 Number     Number              X              Y              Z
 -------------------------------------------------------------------
    1          1          -0.073374701    0.000000000   -0.039582313
    2          6          -0.029388787    0.000000000   -0.068487605
    3          1           0.021509440    0.000000000   -0.079952326
    4          6          -0.012635361    0.000000000   -0.049946974
    5          1           0.080359285    0.000000000    0.009850093
    6          6           0.026177621    0.000000000    0.016042088
    7          7           0.107987819    0.000000000    0.155111086
    8          1          -0.058088735    0.000000000    0.060031043
    9          7          -0.062546583    0.000000000   -0.003065092
 -------------------------------------------------------------------
 Cartesian Forces:  Max     0.155111086 RMS     0.053100817

 GradGradGradGradGradGradGradGradGradGradGradGradGradGradGradGradGradGrad
 Berny optimization.
 Internal  Forces:  Max     0.150942702 RMS     0.051796378
 Search for a local minimum.
 Step number   1 out of a maximum of  48
 All quantities printed in internal units (Hartrees-Bohrs-Radians)
 Second derivative matrix not updated -- first step.
     Eigenvalues ---    0.03204   0.03245   0.03263   0.03273   0.03342
     Eigenvalues ---    0.03375   0.16000   0.16000   0.16000   0.16000
     Eigenvalues ---    0.22000   0.22938   0.49374   0.49681   0.49740
     Eigenvalues ---    0.56490   0.56686   0.60708   0.68179   0.73042
     Eigenvalues ---    0.827791000.000001000.000001000.000001000.00000
     Eigenvalues --- 1000.000001000.000001000.000001000.000001000.00000
     Eigenvalues --- 1000.000001000.000001000.000001000.000001000.00000
     Eigenvalues --- 1000.000001000.000001000.00000
 RFO step:  Lambda=-1.31349572D-01.
 Linear search not attempted -- first point.
 Maximum step size (   0.300) exceeded in Quadratic search.
    -- Step size scaled by   0.709
 Iteration  1 RMS(Cart)=  0.06320253 RMS(Int)=  0.00063793
 Iteration  2 RMS(Cart)=  0.00077684 RMS(Int)=  0.00002793
 Iteration  3 RMS(Cart)=  0.00000039 RMS(Int)=  0.00002793
 Variable       Old X    -DE/DX   Delta X   Delta X   Delta X     New X
                                 (Linear)    (Quad)   (Total)
    R1        1.86889   0.08308   0.00000   0.09380   0.09380   1.96269
    R2        2.49307   0.08712   0.00000   0.07930   0.07925   2.57232
    R3        2.40839   0.12621   0.00000   0.10406   0.10404   2.51244
    R4        1.86829   0.08276   0.00000   0.09335   0.09335   1.96164
    R5        2.47696   0.13670   0.00000   0.12106   0.12106   2.59802
    R6        1.87202   0.08033   0.00000   0.09114   0.09114   1.96316
    R7        2.41851   0.08736   0.00000   0.07208   0.07213   2.49064
    R8        2.34237   0.15094   0.00000   0.11001   0.11004   2.45241
    R9        1.77084   0.08275   0.00000   0.07948   0.07948   1.85032
    A1        2.20252   0.01182   0.00000   0.02750   0.02754   2.23006
    A2        2.21295  -0.00121   0.00000  -0.00422  -0.00418   2.20877
    A3        1.86771  -0.01061   0.00000  -0.02328  -0.02335   1.84436
    A4        2.22327  -0.00590   0.00000  -0.00541  -0.00538   2.21789
    A5        1.83976   0.00731   0.00000  -0.00012  -0.00018   1.83958
    A6        2.22016  -0.00141   0.00000   0.00553   0.00555   2.22572
    A7        2.19731   0.00052   0.00000   0.00935   0.00933   2.20665
    A8        1.89479   0.01785   0.00000   0.02731   0.02734   1.92213
    A9        2.19108  -0.01838   0.00000  -0.03666  -0.03667   2.15440
   A10        1.88850  -0.02815   0.00000  -0.04244  -0.04235   1.84615
   A11        1.93402   0.01361   0.00000   0.03853   0.03854   1.97255
   A12        2.17185   0.00330   0.00000   0.00534   0.00534   2.17718
   A13        2.17732  -0.01691   0.00000  -0.04387  -0.04387   2.13345
    D1        0.00000   0.00000   0.00000   0.00000   0.00000   0.00000
    D2        3.14159   0.00000   0.00000   0.00000   0.00000   3.14159
    D3        3.14159   0.00000   0.00000   0.00000   0.00000   3.14159
    D4        0.00000   0.00000   0.00000   0.00000   0.00000   0.00000
    D5        3.14159   0.00000   0.00000   0.00000   0.00000   3.14159
    D6        0.00000   0.00000   0.00000   0.00000   0.00000   0.00000
    D7        0.00000   0.00000   0.00000   0.00000   0.00000   0.00000
    D8        3.14159   0.00000   0.00000   0.00000   0.00000   3.14159
    D9        3.14159   0.00000   0.00000   0.00000   0.00000   3.14159
   D10        0.00000   0.00000   0.00000   0.00000   0.00000   0.00000
   D11        0.00000   0.00000   0.00000   0.00000   0.00000   0.00000
   D12        3.14159   0.00000   0.00000   0.00000   0.00000   3.14159
   D13        0.00000   0.00000   0.00000   0.00000   0.00000   0.00000
   D14        3.14159   0.00000   0.00000   0.00000   0.00000   3.14159
   D15        0.00000   0.00000   0.00000   0.00000   0.00000   0.00000
   D16        3.14159   0.00000   0.00000   0.00000   0.00000   3.14159
         Item               Value     Threshold  Converged?
 Maximum Force            0.150943     0.000450     NO 
 RMS     Force            0.051796     0.000300     NO 
 Maximum Displacement     0.170384     0.001800     NO 
 RMS     Displacement     0.063152     0.001200     NO 
 Predicted change in Energy=-2.712420D-02
 GradGradGradGradGradGradGradGradGradGradGradGradGradGradGradGradGradGrad

                          Input orientation:                          
 ---------------------------------------------------------------------
 Center     Atomic     Atomic              Coordinates (Angstroms)
 Number     Number      Type              X           Y           Z
 ---------------------------------------------------------------------
    1          1             0       -1.804486    0.000000   -1.185547
    2          6             0       -0.923895    0.000000   -0.634850
    3          1             0        0.654772    0.000000   -2.098407
    4          6             0        0.353540    0.000000   -1.105018
    5          1             0        2.192731    0.000000    0.027706
    6          6             0        1.153979    0.000000    0.012749
    7          7             0        0.411958    0.000000    1.102013
    8          1             0       -1.576797    0.000000    1.310369
    9          7             0       -0.818833    0.000000    0.690517
 ---------------------------------------------------------------------
                    Distance matrix (angstroms):
                    1          2          3          4          5
     1  H    0.000000
     2  C    1.038609   0.000000
     3  H    2.623217   2.152717   0.000000
     4  C    2.159528   1.361212   1.038057   0.000000
     5  H    4.177287   3.186273   2.624056   2.160020   0.000000
     6  C    3.191933   2.176453   2.169375   1.374812   1.038859
     7  N    3.185210   2.191164   3.209618   2.207804   2.079732
     8  H    2.506280   2.051866   4.074267   3.091973   3.981779
     9  N    2.119228   1.329524   3.154300   2.144388   3.083639
                    6          7          8          9
     6  C    0.000000
     7  N    1.317988   0.000000
     8  H    3.023402   1.999640   0.000000
     9  N    2.085990   1.297758   0.979146   0.000000
 Stoichiometry    C3H4N2
 Framework group  CS[SG(C3H4N2)]
 Deg. of freedom   15
 Full point group                 CS      NOp   2
 Largest Abelian subgroup         CS      NOp   2
 Largest concise Abelian subgroup C1      NOp   1
                         Standard orientation:                         
 ---------------------------------------------------------------------
 Center     Atomic     Atomic              Coordinates (Angstroms)
 Number     Number      Type              X           Y           Z
 ---------------------------------------------------------------------
    1          1             0        2.072633    0.627458    0.000000
    2          6             0        1.086129    0.302624    0.000000
    3          1             0        1.201772   -1.846985    0.000000
    4          6             0        0.630689   -0.980136    0.000000
    5          1             0       -1.416291   -1.669743    0.000000
    6          6             0       -0.740523   -0.880715    0.000000
    7          7             0       -1.103436    0.386323    0.000000
    8          1             0        0.008167    2.048520    0.000000
    9          7             0        0.000000    1.069408    0.000000
 ---------------------------------------------------------------------
 Rotational constants (GHZ):     10.0488869      9.9237229      4.9929564
 Isotopes: H-1,C-12,H-1,C-12,H-1,C-12,N-14,H-1,N-14
 Standard basis: 3-21G (6D, 7F)
 There are    43 symmetry adapted basis functions of A'  symmetry.
 There are    10 symmetry adapted basis functions of A"  symmetry.
 Crude estimate of integral set expansion from redundant integrals=1.000.
 Integral buffers will be    262144 words long.
 Raffenetti 2 integral format.
 Two-electron integral symmetry is turned on.
    53 basis functions       87 primitive gaussians
    18 alpha electrons       18 beta electrons
       nuclear repulsion energy       166.9218575922 Hartrees.
 One-electron integrals computed using PRISM.
 NBasis=    53 RedAO= T  NBF=    43    10
 NBsUse=    53 1.00D-04 NBFU=    43    10
 Initial guess read from the read-write file:
 Initial guess orbital symmetries:
       Occupied  (A') (A') (A') (A') (A') (A') (A') (A') (A') (A')
                 (A') (A") (A') (A') (A') (A") (A') (A")
       Virtual   (A") (A") (A') (A') (A') (A') (A') (A') (A') (A')
                 (A') (A") (A') (A') (A") (A') (A") (A') (A') (A')
                 (A') (A") (A') (A") (A') (A') (A') (A') (A') (A')
                 (A') (A') (A') (A') (A')
 Requested convergence on RMS density matrix=1.00D-08 within  64 cycles.
 Requested convergence on MAX density matrix=1.00D-06.
 Keep R1 and R2 integrals in memory in canonical form, NReq=     2463126.
 Integral accuracy reduced to 1.0D-05 until final iterations.
 Initial convergence to 1.0D-05 achieved.  Increase integral accuracy.
 SCF Done:  E(RB+HF-PW91) =  -224.841836392     A.U. after   14 cycles
             Convg  =    0.3974D-08             -V/T =  2.0050
             S**2   =   0.0000
 ***** Axes restored to original set *****
 -------------------------------------------------------------------
 Center     Atomic                   Forces (Hartrees/Bohr)
 Number     Number              X              Y              Z
 -------------------------------------------------------------------
    1          1          -0.029299366    0.000000000   -0.011294764
    2          6           0.000605279    0.000000000   -0.027442099
    3          1           0.008527128    0.000000000   -0.029977832
    4          6          -0.004023962    0.000000000   -0.014696839
    5          1           0.030340480    0.000000000    0.006211984
    6          6           0.006767538    0.000000000   -0.003809602
    7          7           0.055488795    0.000000000    0.064260865
    8          1          -0.019198921    0.000000000    0.024994332
    9          7          -0.049206970    0.000000000   -0.008246044
 -------------------------------------------------------------------
 Cartesian Forces:  Max     0.064260865 RMS     0.023296464

 GradGradGradGradGradGradGradGradGradGradGradGradGradGradGradGradGradGrad
 Berny optimization.
 Internal  Forces:  Max     0.071486145 RMS     0.020394167
 Search for a local minimum.
 Step number   2 out of a maximum of  48
 All quantities printed in internal units (Hartrees-Bohrs-Radians)
 Update second derivatives using information from points  1  2
 Trust test= 2.32D+00 RLast= 3.00D-01 DXMaxT set to 4.24D-01
     Eigenvalues ---    0.03204   0.03246   0.03261   0.03273   0.03342
     Eigenvalues ---    0.03374   0.15923   0.16000   0.16000   0.16019
     Eigenvalues ---    0.22043   0.23508   0.49457   0.49711   0.50945
     Eigenvalues ---    0.57236   0.58447   0.61718   0.68373   0.72705
     Eigenvalues ---    0.804101000.000001000.000001000.000001000.00000
     Eigenvalues --- 1000.000001000.000001000.000001000.000001000.00000
     Eigenvalues --- 1000.000001000.000001000.000001000.000001000.00000
     Eigenvalues --- 1000.000001000.000001000.00000
 RFO step:  Lambda=-3.30385611D-03.
 Quartic linear search produced a step of  0.84059.
 Iteration  1 RMS(Cart)=  0.05809005 RMS(Int)=  0.00119813
 Iteration  2 RMS(Cart)=  0.00145315 RMS(Int)=  0.00012123
 Iteration  3 RMS(Cart)=  0.00000192 RMS(Int)=  0.00012121
 Iteration  4 RMS(Cart)=  0.00000000 RMS(Int)=  0.00012121
 Variable       Old X    -DE/DX   Delta X   Delta X   Delta X     New X
                                 (Linear)    (Quad)   (Total)
    R1        1.96269   0.03083   0.07885   0.00246   0.08130   2.04399
    R2        2.57232   0.03177   0.06662  -0.00649   0.05991   2.63223
    R3        2.51244   0.04519   0.08746  -0.00726   0.08015   2.59258
    R4        1.96164   0.03116   0.07847   0.00408   0.08255   2.04419
    R5        2.59802   0.04642   0.10176  -0.01904   0.08266   2.68068
    R6        1.96316   0.03043   0.07661   0.00480   0.08141   2.04457
    R7        2.49064   0.03510   0.06063   0.00429   0.06508   2.55572
    R8        2.45241   0.07149   0.09250   0.02825   0.12092   2.57332
    R9        1.85032   0.03068   0.06681  -0.00118   0.06563   1.91595
    A1        2.23006   0.00550   0.02315   0.03331   0.05660   2.28666
    A2        2.20877  -0.00621  -0.00352  -0.05954  -0.06292   2.14585
    A3        1.84436   0.00071  -0.01963   0.02623   0.00631   1.85067
    A4        2.21789  -0.00256  -0.00452   0.00536   0.00098   2.21887
    A5        1.83958   0.00405  -0.00015  -0.00933  -0.00977   1.82981
    A6        2.22572  -0.00149   0.00467   0.00397   0.00879   2.23450
    A7        2.20665   0.00174   0.00785   0.03059   0.03841   2.24505
    A8        1.92213   0.00783   0.02298   0.00959   0.03264   1.95478
    A9        2.15440  -0.00958  -0.03083  -0.04019  -0.07105   2.08335
   A10        1.84615  -0.01122  -0.03560   0.00066  -0.03450   1.81165
   A11        1.97255  -0.00138   0.03239  -0.02715   0.00532   1.97787
   A12        2.17718   0.00735   0.00449   0.05832   0.06277   2.23996
   A13        2.13345  -0.00597  -0.03688  -0.03117  -0.06809   2.06536
    D1        0.00000   0.00000   0.00000   0.00000   0.00000   0.00000
    D2        3.14159   0.00000   0.00000   0.00000   0.00000   3.14159
    D3        3.14159   0.00000   0.00000   0.00000   0.00000   3.14159
    D4        0.00000   0.00000   0.00000   0.00000   0.00000   0.00000
    D5        3.14159   0.00000   0.00000   0.00000   0.00000   3.14159
    D6        0.00000   0.00000   0.00000   0.00000   0.00000   0.00000
    D7        0.00000   0.00000   0.00000   0.00000   0.00000   0.00000
    D8        3.14159   0.00000   0.00000   0.00000   0.00000   3.14159
    D9        3.14159   0.00000   0.00000   0.00000   0.00000   3.14159
   D10        0.00000   0.00000   0.00000   0.00000   0.00000   0.00000
   D11        0.00000   0.00000   0.00000   0.00000   0.00000   0.00000
   D12        3.14159   0.00000   0.00000   0.00000   0.00000   3.14159
   D13        0.00000   0.00000   0.00000   0.00000   0.00000   0.00000
   D14        3.14159   0.00000   0.00000   0.00000   0.00000   3.14159
   D15        0.00000   0.00000   0.00000   0.00000   0.00000   0.00000
   D16        3.14159   0.00000   0.00000   0.00000   0.00000   3.14159
         Item               Value     Threshold  Converged?
 Maximum Force            0.071486     0.000450     NO 
 RMS     Force            0.020394     0.000300     NO 
 Maximum Displacement     0.160463     0.001800     NO 
 RMS     Displacement     0.058009     0.001200     NO 
 Predicted change in Energy=-2.191209D-02
 GradGradGradGradGradGradGradGradGradGradGradGradGradGradGradGradGradGrad

                          Input orientation:                          
 ---------------------------------------------------------------------
 Center     Atomic     Atomic              Coordinates (Angstroms)
 Number     Number      Type              X           Y           Z
 ---------------------------------------------------------------------
    1          1             0       -1.892530    0.000000   -1.203263
    2          6             0       -0.946229    0.000000   -0.679387
    3          1             0        0.680940    0.000000   -2.189963
    4          6             0        0.362559    0.000000   -1.156136
    5          1             0        2.252866    0.000000    0.079185
    6          6             0        1.173275    0.000000    0.007923
    7          7             0        0.433842    0.000000    1.140310
    8          1             0       -1.600689    0.000000    1.371842
    9          7             0       -0.851025    0.000000    0.689240
 ---------------------------------------------------------------------
                    Distance matrix (angstroms):
                    1          2          3          4          5
     1  H    0.000000
     2  C    1.081634   0.000000
     3  H    2.756143   2.220252   0.000000
     4  C    2.255582   1.392917   1.081741   0.000000
     5  H    4.339238   3.287802   2.760431   2.258158   0.000000
     6  C    3.296382   2.228159   2.252353   1.418553   1.081941
     7  N    3.302172   2.283834   3.339427   2.297552   2.105905
     8  H    2.591590   2.153105   4.229927   3.200784   4.064585
     9  N    2.160163   1.371935   3.261399   2.208665   3.163274
                    6          7          8          9
     6  C    0.000000
     7  N    1.352428   0.000000
     8  H    3.091141   2.047663   0.000000
     9  N    2.135880   1.361744   1.013875   0.000000
 Stoichiometry    C3H4N2
 Framework group  CS[SG(C3H4N2)]
 Deg. of freedom   15
 Full point group                 CS      NOp   2
 Largest Abelian subgroup         CS      NOp   2
 Largest concise Abelian subgroup C1      NOp   1
                         Standard orientation:                         
 ---------------------------------------------------------------------
 Center     Atomic     Atomic              Coordinates (Angstroms)
 Number     Number      Type              X           Y           Z
 ---------------------------------------------------------------------
    1          1             0        2.125760    0.714150    0.000000
    2          6             0        1.122648    0.309554    0.000000
    3          1             0        1.270074   -1.905798    0.000000
    4          6             0        0.668018   -1.007081    0.000000
    5          1             0       -1.482395   -1.696285    0.000000
    6          6             0       -0.746709   -0.902962    0.000000
    7          7             0       -1.159946    0.384787    0.000000
    8          1             0       -0.057559    2.110379    0.000000
    9          7             0        0.000000    1.098139    0.000000
 ---------------------------------------------------------------------
 Rotational constants (GHZ):      9.4755276      9.2489442      4.6804325
 Isotopes: H-1,C-12,H-1,C-12,H-1,C-12,N-14,H-1,N-14
 Standard basis: 3-21G (6D, 7F)
 There are    43 symmetry adapted basis functions of A'  symmetry.
 There are    10 symmetry adapted basis functions of A"  symmetry.
 Crude estimate of integral set expansion from redundant integrals=1.000.
 Integral buffers will be    262144 words long.
 Raffenetti 2 integral format.
 Two-electron integral symmetry is turned on.
    53 basis functions       87 primitive gaussians
    18 alpha electrons       18 beta electrons
       nuclear repulsion energy       161.5254993297 Hartrees.
 One-electron integrals computed using PRISM.
 NBasis=    53 RedAO= T  NBF=    43    10
 NBsUse=    53 1.00D-04 NBFU=    43    10
 Initial guess read from the read-write file:
 Initial guess orbital symmetries:
       Occupied  (A') (A') (A') (A') (A') (A') (A') (A') (A') (A')
                 (A') (A') (A") (A') (A') (A") (A') (A")
       Virtual   (A") (A") (A') (A') (A') (A') (A') (A') (A') (A')
                 (A') (A') (A") (A') (A') (A") (A") (A') (A') (A')
                 (A') (A') (A") (A') (A") (A') (A') (A') (A') (A')
                 (A') (A') (A') (A') (A')
 Requested convergence on RMS density matrix=1.00D-08 within  64 cycles.
 Requested convergence on MAX density matrix=1.00D-06.
 Keep R1 and R2 integrals in memory in canonical form, NReq=     2463126.
 Integral accuracy reduced to 1.0D-05 until final iterations.
 Initial convergence to 1.0D-05 achieved.  Increase integral accuracy.
 SCF Done:  E(RB+HF-PW91) =  -224.857494814     A.U. after   14 cycles
             Convg  =    0.3558D-08             -V/T =  2.0088
             S**2   =   0.0000
 ***** Axes restored to original set *****
 -------------------------------------------------------------------
 Center     Atomic                   Forces (Hartrees/Bohr)
 Number     Number              X              Y              Z
 -------------------------------------------------------------------
    1          1           0.002920050    0.000000000    0.001738300
    2          6           0.003318522    0.000000000   -0.003006849
    3          1          -0.001126629    0.000000000    0.004033346
    4          6          -0.004902067    0.000000000    0.001857613
    5          1          -0.003422389    0.000000000   -0.001123532
    6          6           0.002938385    0.000000000    0.001559953
    7          7           0.019602374    0.000000000    0.002628925
    8          1           0.001691311    0.000000000   -0.003281384
    9          7          -0.021019557    0.000000000   -0.004406372
 -------------------------------------------------------------------
 Cartesian Forces:  Max     0.021019557 RMS     0.005983598

 GradGradGradGradGradGradGradGradGradGradGradGradGradGradGradGradGradGrad
 Berny optimization.
 Internal  Forces:  Max     0.018083590 RMS     0.003581274
 Search for a local minimum.
 Step number   3 out of a maximum of  48
 All quantities printed in internal units (Hartrees-Bohrs-Radians)
 Update second derivatives using information from points  1  2  3
 Trust test= 7.15D-01 RLast= 2.91D-01 DXMaxT set to 4.24D-01
     Eigenvalues ---    0.03203   0.03247   0.03253   0.03273   0.03342
     Eigenvalues ---    0.03372   0.15473   0.16000   0.16004   0.16015
     Eigenvalues ---    0.22154   0.23291   0.46128   0.49498   0.49717
     Eigenvalues ---    0.57397   0.58320   0.59862   0.63810   0.68727
     Eigenvalues ---    0.817731000.000001000.000001000.000001000.00000
     Eigenvalues --- 1000.000001000.000001000.000001000.000001000.00000
     Eigenvalues --- 1000.000001000.000001000.000001000.000001000.00000
     Eigenvalues --- 1000.000001000.000001000.00000
 RFO step:  Lambda=-7.05011183D-04.
 Quartic linear search produced a step of -0.00020.
 Iteration  1 RMS(Cart)=  0.00690425 RMS(Int)=  0.00002152
 Iteration  2 RMS(Cart)=  0.00002343 RMS(Int)=  0.00000393
 Iteration  3 RMS(Cart)=  0.00000000 RMS(Int)=  0.00000393
 Variable       Old X    -DE/DX   Delta X   Delta X   Delta X     New X
                                 (Linear)    (Quad)   (Total)
    R1        2.04399  -0.00340  -0.00002  -0.00461  -0.00463   2.03936
    R2        2.63223  -0.00548  -0.00001  -0.00892  -0.00893   2.62330
    R3        2.59258  -0.00291  -0.00002  -0.00078  -0.00080   2.59178
    R4        2.04419  -0.00419  -0.00002  -0.00618  -0.00620   2.03799
    R5        2.68068  -0.00055  -0.00002  -0.00015  -0.00016   2.68051
    R6        2.04457  -0.00349  -0.00002  -0.00489  -0.00490   2.03967
    R7        2.55572  -0.00308  -0.00001  -0.00206  -0.00207   2.55365
    R8        2.57332   0.01808  -0.00002   0.02500   0.02497   2.59829
    R9        1.91595  -0.00346  -0.00001  -0.00387  -0.00389   1.91206
    A1        2.28666  -0.00026  -0.00001   0.00175   0.00174   2.28840
    A2        2.14585  -0.00049   0.00001  -0.00116  -0.00115   2.14470
    A3        1.85067   0.00075   0.00000  -0.00059  -0.00059   1.85009
    A4        2.21887  -0.00229   0.00000  -0.00467  -0.00468   2.21419
    A5        1.82981   0.00478   0.00000   0.01033   0.01034   1.84015
    A6        2.23450  -0.00250   0.00000  -0.00565  -0.00566   2.22884
    A7        2.24505  -0.00087  -0.00001  -0.00302  -0.00303   2.24202
    A8        1.95478  -0.00011  -0.00001  -0.00371  -0.00371   1.95107
    A9        2.08335   0.00098   0.00001   0.00673   0.00674   2.09010
   A10        1.81165  -0.00255   0.00001  -0.00136  -0.00137   1.81028
   A11        1.97787  -0.00288   0.00000  -0.00467  -0.00468   1.97319
   A12        2.23996   0.00021  -0.00001  -0.00430  -0.00430   2.23565
   A13        2.06536   0.00266   0.00001   0.00896   0.00898   2.07434
    D1        0.00000   0.00000   0.00000   0.00000   0.00000   0.00000
    D2        3.14159   0.00000   0.00000   0.00000   0.00000   3.14159
    D3        3.14159   0.00000   0.00000   0.00000   0.00000   3.14159
    D4        0.00000   0.00000   0.00000   0.00000   0.00000   0.00000
    D5        3.14159   0.00000   0.00000   0.00000   0.00000   3.14159
    D6        0.00000   0.00000   0.00000   0.00000   0.00000   0.00000
    D7        0.00000   0.00000   0.00000   0.00000   0.00000   0.00000
    D8        3.14159   0.00000   0.00000   0.00000   0.00000   3.14159
    D9        3.14159   0.00000   0.00000   0.00000   0.00000   3.14159
   D10        0.00000   0.00000   0.00000   0.00000   0.00000   0.00000
   D11        0.00000   0.00000   0.00000   0.00000   0.00000   0.00000
   D12        3.14159   0.00000   0.00000   0.00000   0.00000   3.14159
   D13        0.00000   0.00000   0.00000   0.00000   0.00000   0.00000
   D14        3.14159   0.00000   0.00000   0.00000   0.00000   3.14159
   D15        0.00000   0.00000   0.00000   0.00000   0.00000   0.00000
   D16        3.14159   0.00000   0.00000   0.00000   0.00000   3.14159
         Item               Value     Threshold  Converged?
 Maximum Force            0.018084     0.000450     NO 
 RMS     Force            0.003581     0.000300     NO 
 Maximum Displacement     0.017725     0.001800     NO 
 RMS     Displacement     0.006900     0.001200     NO 
 Predicted change in Energy=-3.519706D-04
 GradGradGradGradGradGradGradGradGradGradGradGradGradGradGradGradGradGrad

                          Input orientation:                          
 ---------------------------------------------------------------------
 Center     Atomic     Atomic              Coordinates (Angstroms)
 Number     Number      Type              X           Y           Z
 ---------------------------------------------------------------------
    1          1             0       -1.890865    0.000000   -1.201601
    2          6             0       -0.947825    0.000000   -0.676896
    3          1             0        0.674940    0.000000   -2.177915
    4          6             0        0.358354    0.000000   -1.146970
    5          1             0        2.254159    0.000000    0.072610
    6          6             0        1.176529    0.000000    0.011753
    7          7             0        0.440818    0.000000    1.145257
    8          1             0       -1.610439    0.000000    1.367135
    9          7             0       -0.857146    0.000000    0.691616
 ---------------------------------------------------------------------
                    Distance matrix (angstroms):
                    1          2          3          4          5
     1  H    0.000000
     2  C    1.079184   0.000000
     3  H    2.745277   2.210526   0.000000
     4  C    2.249883   1.388191   1.078460   0.000000
     5  H    4.336454   3.288535   2.749326   2.254207   0.000000
     6  C    3.298656   2.233185   2.246383   1.418466   1.079347
     7  N    3.308245   2.290976   3.331409   2.293709   2.106840
     8  H    2.583997   2.148749   4.217860   3.193254   4.075649
     9  N    2.157045   1.371512   3.252921   2.204050   3.172284
                    6          7          8          9
     6  C    0.000000
     7  N    1.351334   0.000000
     8  H    3.099073   2.063222   0.000000
     9  N    2.144306   1.374955   1.011819   0.000000
 Stoichiometry    C3H4N2
 Framework group  CS[SG(C3H4N2)]
 Deg. of freedom   15
 Full point group                 CS      NOp   2
 Largest Abelian subgroup         CS      NOp   2
 Largest concise Abelian subgroup C1      NOp   1
                         Standard orientation:                         
 ---------------------------------------------------------------------
 Center     Atomic     Atomic              Coordinates (Angstroms)
 Number     Number      Type              X           Y           Z
 ---------------------------------------------------------------------
    1          1             0        2.123084    0.720100    0.000000
    2          6             0        1.123139    0.314207    0.000000
    3          1             0        1.275511   -1.891061    0.000000
    4          6             0        0.670672   -0.998175    0.000000
    5          1             0       -1.467904   -1.710874    0.000000
    6          6             0       -0.745011   -0.909366    0.000000
    7          7             0       -1.167046    0.374374    0.000000
    8          1             0       -0.054168    2.111725    0.000000
    9          7             0        0.000000    1.101357    0.000000
 ---------------------------------------------------------------------
 Rotational constants (GHZ):      9.4428050      9.2512578      4.6730250
 Isotopes: H-1,C-12,H-1,C-12,H-1,C-12,N-14,H-1,N-14
 Standard basis: 3-21G (6D, 7F)
 There are    43 symmetry adapted basis functions of A'  symmetry.
 There are    10 symmetry adapted basis functions of A"  symmetry.
 Crude estimate of integral set expansion from redundant integrals=1.000.
 Integral buffers will be    262144 words long.
 Raffenetti 2 integral format.
 Two-electron integral symmetry is turned on.
    53 basis functions       87 primitive gaussians
    18 alpha electrons       18 beta electrons
       nuclear repulsion energy       161.3935042976 Hartrees.
 One-electron integrals computed using PRISM.
 NBasis=    53 RedAO= T  NBF=    43    10
 NBsUse=    53 1.00D-04 NBFU=    43    10
 Initial guess read from the read-write file:
 Initial guess orbital symmetries:
       Occupied  (A') (A') (A') (A') (A') (A') (A') (A') (A') (A')
                 (A') (A') (A") (A') (A') (A') (A") (A")
       Virtual   (A") (A") (A') (A') (A') (A') (A') (A') (A') (A')
                 (A') (A') (A") (A') (A') (A") (A') (A") (A') (A')
                 (A') (A') (A") (A') (A") (A') (A') (A') (A') (A')
                 (A') (A') (A') (A') (A')
 Requested convergence on RMS density matrix=1.00D-08 within  64 cycles.
 Requested convergence on MAX density matrix=1.00D-06.
 Keep R1 and R2 integrals in memory in canonical form, NReq=     2463126.
 SCF Done:  E(RB+HF-PW91) =  -224.857994946     A.U. after   10 cycles
             Convg  =    0.8897D-08             -V/T =  2.0088
             S**2   =   0.0000
 ***** Axes restored to original set *****
 -------------------------------------------------------------------
 Center     Atomic                   Forces (Hartrees/Bohr)
 Number     Number              X              Y              Z
 -------------------------------------------------------------------
    1          1           0.001480592    0.000000000    0.000693550
    2          6           0.003802361    0.000000000    0.000562322
    3          1          -0.000293158    0.000000000    0.001537298
    4          6          -0.001805752    0.000000000   -0.000953895
    5          1          -0.001681931    0.000000000   -0.000402446
    6          6          -0.002588898    0.000000000    0.001068729
    7          7           0.011369443    0.000000000    0.002393461
    8          1           0.001536465    0.000000000   -0.001062004
    9          7          -0.011819123    0.000000000   -0.003837016
 -------------------------------------------------------------------
 Cartesian Forces:  Max     0.011819123 RMS     0.003484348

 GradGradGradGradGradGradGradGradGradGradGradGradGradGradGradGradGradGrad
 Berny optimization.
 Internal  Forces:  Max     0.008917506 RMS     0.001866305
 Search for a local minimum.
 Step number   4 out of a maximum of  48
 All quantities printed in internal units (Hartrees-Bohrs-Radians)
 Update second derivatives using information from points  1  2  3  4
 Trust test= 1.42D+00 RLast= 3.41D-02 DXMaxT set to 4.24D-01
     Eigenvalues ---    0.03203   0.03247   0.03252   0.03273   0.03341
     Eigenvalues ---    0.03372   0.15428   0.15797   0.16002   0.16252
     Eigenvalues ---    0.22648   0.23777   0.37352   0.46701   0.49522
     Eigenvalues ---    0.49789   0.57681   0.59751   0.61380   0.68758
     Eigenvalues ---    0.721081000.000001000.000001000.000001000.00000
     Eigenvalues --- 1000.000001000.000001000.000001000.000001000.00000
     Eigenvalues --- 1000.000001000.000001000.000001000.000001000.00000
     Eigenvalues --- 1000.000001000.000001000.00000
 RFO step:  Lambda=-2.48799853D-04.
 Quartic linear search produced a step of  0.79227.
 Iteration  1 RMS(Cart)=  0.00688067 RMS(Int)=  0.00003385
 Iteration  2 RMS(Cart)=  0.00003751 RMS(Int)=  0.00000655
 Iteration  3 RMS(Cart)=  0.00000000 RMS(Int)=  0.00000655
 Variable       Old X    -DE/DX   Delta X   Delta X   Delta X     New X
                                 (Linear)    (Quad)   (Total)
    R1        2.03936  -0.00163  -0.00367  -0.00154  -0.00521   2.03415
    R2        2.62330  -0.00331  -0.00708  -0.00565  -0.01273   2.61057
    R3        2.59178  -0.00186  -0.00063  -0.00077  -0.00142   2.59037
    R4        2.03799  -0.00156  -0.00491  -0.00063  -0.00554   2.03245
    R5        2.68051  -0.00080  -0.00013  -0.00115  -0.00127   2.67924
    R6        2.03967  -0.00170  -0.00388  -0.00178  -0.00566   2.03401
    R7        2.55365  -0.00229  -0.00164  -0.00259  -0.00422   2.54943
    R8        2.59829   0.00892   0.01978   0.01245   0.03222   2.63051
    R9        1.91206  -0.00185  -0.00308  -0.00188  -0.00496   1.90710
    A1        2.28840  -0.00087   0.00138  -0.00534  -0.00395   2.28444
    A2        2.14470  -0.00066  -0.00091  -0.00384  -0.00474   2.13996
    A3        1.85009   0.00153  -0.00047   0.00918   0.00870   1.85878
    A4        2.21419  -0.00009  -0.00371   0.00671   0.00300   2.21719
    A5        1.84015   0.00050   0.00819  -0.01041  -0.00221   1.83794
    A6        2.22884  -0.00042  -0.00448   0.00370  -0.00079   2.22805
    A7        2.24202  -0.00137  -0.00240  -0.00835  -0.01076   2.23126
    A8        1.95107   0.00210  -0.00294   0.01491   0.01199   1.96306
    A9        2.09010  -0.00073   0.00534  -0.00657  -0.00123   2.08886
   A10        1.81028  -0.00261  -0.00108  -0.01113  -0.01220   1.79808
   A11        1.97319  -0.00151  -0.00371  -0.00256  -0.00628   1.96691
   A12        2.23565   0.00099  -0.00341   0.00734   0.00393   2.23959
   A13        2.07434   0.00052   0.00711  -0.00478   0.00234   2.07668
    D1        0.00000   0.00000   0.00000   0.00000   0.00000   0.00000
    D2        3.14159   0.00000   0.00000   0.00000   0.00000   3.14159
    D3        3.14159   0.00000   0.00000   0.00000   0.00000   3.14159
    D4        0.00000   0.00000   0.00000   0.00000   0.00000   0.00000
    D5        3.14159   0.00000   0.00000   0.00000   0.00000   3.14159
    D6        0.00000   0.00000   0.00000   0.00000   0.00000   0.00000
    D7        0.00000   0.00000   0.00000   0.00000   0.00000   0.00000
    D8        3.14159   0.00000   0.00000   0.00000   0.00000   3.14159
    D9        3.14159   0.00000   0.00000   0.00000   0.00000   3.14159
   D10        0.00000   0.00000   0.00000   0.00000   0.00000   0.00000
   D11        0.00000   0.00000   0.00000   0.00000   0.00000   0.00000
   D12        3.14159   0.00000   0.00000   0.00000   0.00000   3.14159
   D13        0.00000   0.00000   0.00000   0.00000   0.00000   0.00000
   D14        3.14159   0.00000   0.00000   0.00000   0.00000   3.14159
   D15        0.00000   0.00000   0.00000   0.00000   0.00000   0.00000
   D16        3.14159   0.00000   0.00000   0.00000   0.00000   3.14159
         Item               Value     Threshold  Converged?
 Maximum Force            0.008918     0.000450     NO 
 RMS     Force            0.001866     0.000300     NO 
 Maximum Displacement     0.019660     0.001800     NO 
 RMS     Displacement     0.006875     0.001200     NO 
 Predicted change in Energy=-2.513015D-04
 GradGradGradGradGradGradGradGradGradGradGradGradGradGradGradGradGradGrad

                          Input orientation:                          
 ---------------------------------------------------------------------
 Center     Atomic     Atomic              Coordinates (Angstroms)
 Number     Number      Type              X           Y           Z
 ---------------------------------------------------------------------
    1          1             0       -1.883296    0.000000   -1.203462
    2          6             0       -0.944007    0.000000   -0.677696
    3          1             0        0.672551    0.000000   -2.174943
    4          6             0        0.355180    0.000000   -1.147306
    5          1             0        2.247215    0.000000    0.061528
    6          6             0        1.172025    0.000000    0.011530
    7          7             0        0.450226    0.000000    1.151302
    8          1             0       -1.616966    0.000000    1.361928
    9          7             0       -0.863364    0.000000    0.690693
 ---------------------------------------------------------------------
                    Distance matrix (angstroms):
                    1          2          3          4          5
     1  H    0.000000
     2  C    1.076427   0.000000
     3  H    2.734251   2.203409   0.000000
     4  C    2.239181   1.381456   1.075529   0.000000
     5  H    4.319875   3.275722   2.735209   2.245234   0.000000
     6  C    3.288038   2.225449   2.242797   1.417793   1.076352
     7  N    3.315153   2.299808   3.333667   2.300572   2.101613
     8  H    2.579178   2.147775   4.213234   3.191491   4.077123
     9  N    2.151298   1.370762   3.251292   2.205241   3.173571
                    6          7          8          9
     6  C    0.000000
     7  N    1.349101   0.000000
     8  H    3.098716   2.077894   0.000000
     9  N    2.145710   1.392006   1.009194   0.000000
 Stoichiometry    C3H4N2
 Framework group  CS[SG(C3H4N2)]
 Deg. of freedom   15
 Full point group                 CS      NOp   2
 Largest Abelian subgroup         CS      NOp   2
 Largest concise Abelian subgroup C1      NOp   1
                         Standard orientation:                         
 ---------------------------------------------------------------------
 Center     Atomic     Atomic              Coordinates (Angstroms)
 Number     Number      Type              X           Y           Z
 ---------------------------------------------------------------------
    1          1             0        2.116834    0.721685    0.000000
    2          6             0        1.120143    0.315111    0.000000
    3          1             0        1.282871   -1.882280    0.000000
    4          6             0        0.677293   -0.993440    0.000000
    5          1             0       -1.447463   -1.719035    0.000000
    6          6             0       -0.738018   -0.909578    0.000000
    7          7             0       -1.179116    0.365376    0.000000
    8          1             0       -0.054948    2.112915    0.000000
    9          7             0        0.000000    1.105218    0.000000
 ---------------------------------------------------------------------
 Rotational constants (GHZ):      9.4575824      9.2108096      4.6662825
 Isotopes: H-1,C-12,H-1,C-12,H-1,C-12,N-14,H-1,N-14
 Standard basis: 3-21G (6D, 7F)
 There are    43 symmetry adapted basis functions of A'  symmetry.
 There are    10 symmetry adapted basis functions of A"  symmetry.
 Crude estimate of integral set expansion from redundant integrals=1.000.
 Integral buffers will be    262144 words long.
 Raffenetti 2 integral format.
 Two-electron integral symmetry is turned on.
    53 basis functions       87 primitive gaussians
    18 alpha electrons       18 beta electrons
       nuclear repulsion energy       161.2799019217 Hartrees.
 One-electron integrals computed using PRISM.
 NBasis=    53 RedAO= T  NBF=    43    10
 NBsUse=    53 1.00D-04 NBFU=    43    10
 Initial guess read from the read-write file:
 Initial guess orbital symmetries:
       Occupied  (A') (A') (A') (A') (A') (A') (A') (A') (A') (A')
                 (A') (A') (A") (A') (A') (A') (A") (A")
       Virtual   (A") (A") (A') (A') (A') (A') (A') (A') (A') (A')
                 (A') (A') (A") (A') (A') (A") (A') (A") (A') (A')
                 (A') (A') (A") (A') (A") (A') (A') (A') (A') (A')
                 (A') (A') (A') (A') (A')
 Requested convergence on RMS density matrix=1.00D-08 within  64 cycles.
 Requested convergence on MAX density matrix=1.00D-06.
 Keep R1 and R2 integrals in memory in canonical form, NReq=     2463126.
 SCF Done:  E(RB+HF-PW91) =  -224.858226206     A.U. after   11 cycles
             Convg  =    0.1650D-08             -V/T =  2.0088
             S**2   =   0.0000
 ***** Axes restored to original set *****
 -------------------------------------------------------------------
 Center     Atomic                   Forces (Hartrees/Bohr)
 Number     Number              X              Y              Z
 -------------------------------------------------------------------
    1          1          -0.000504099    0.000000000   -0.000372041
    2          6          -0.000583514    0.000000000    0.003299400
    3          1           0.000329817    0.000000000   -0.000405141
    4          6           0.001180344    0.000000000    0.000274403
    5          1           0.000806692    0.000000000    0.000180131
    6          6          -0.000590116    0.000000000    0.000875553
    7          7           0.001159436    0.000000000   -0.001872854
    8          1           0.000175950    0.000000000    0.000579277
    9          7          -0.001974509    0.000000000   -0.002558728
 -------------------------------------------------------------------
 Cartesian Forces:  Max     0.003299400 RMS     0.001068448

 GradGradGradGradGradGradGradGradGradGradGradGradGradGradGradGradGradGrad
 Berny optimization.
 Internal  Forces:  Max     0.002226290 RMS     0.000658870
 Search for a local minimum.
 Step number   5 out of a maximum of  48
 All quantities printed in internal units (Hartrees-Bohrs-Radians)
 Update second derivatives using information from points  1  2  3  4  5

 Trust test= 9.20D-01 RLast= 4.40D-02 DXMaxT set to 4.24D-01
     Eigenvalues ---    0.03203   0.03247   0.03252   0.03273   0.03341
     Eigenvalues ---    0.03372   0.15417   0.15536   0.16005   0.16378
     Eigenvalues ---    0.21191   0.26795   0.34016   0.46972   0.49520
     Eigenvalues ---    0.49792   0.57864   0.59351   0.60756   0.68785
     Eigenvalues ---    0.727071000.000001000.000001000.000001000.00000
     Eigenvalues --- 1000.000001000.000001000.000001000.000001000.00000
     Eigenvalues --- 1000.000001000.000001000.000001000.000001000.00000
     Eigenvalues --- 1000.000001000.000001000.00000
 RFO step:  Lambda=-3.25959090D-05.
 Quartic linear search produced a step of -0.03404.
 Iteration  1 RMS(Cart)=  0.00163568 RMS(Int)=  0.00000252
 Iteration  2 RMS(Cart)=  0.00000265 RMS(Int)=  0.00000051
 Iteration  3 RMS(Cart)=  0.00000000 RMS(Int)=  0.00000051
 Variable       Old X    -DE/DX   Delta X   Delta X   Delta X     New X
                                 (Linear)    (Quad)   (Total)
    R1        2.03415   0.00062   0.00018   0.00096   0.00113   2.03528
    R2        2.61057   0.00192   0.00043   0.00214   0.00258   2.61315
    R3        2.59037  -0.00223   0.00005  -0.00285  -0.00280   2.58756
    R4        2.03245   0.00048   0.00019   0.00065   0.00084   2.03330
    R5        2.67924  -0.00034   0.00004  -0.00035  -0.00030   2.67894
    R6        2.03401   0.00081   0.00019   0.00130   0.00149   2.03550
    R7        2.54943  -0.00143   0.00014  -0.00219  -0.00204   2.54739
    R8        2.63051   0.00098  -0.00110   0.00403   0.00293   2.63344
    R9        1.90710   0.00025   0.00017   0.00012   0.00029   1.90739
    A1        2.28444  -0.00010   0.00013  -0.00102  -0.00089   2.28355
    A2        2.13996   0.00004   0.00016  -0.00031  -0.00015   2.13981
    A3        1.85878   0.00006  -0.00030   0.00134   0.00104   1.85983
    A4        2.21719   0.00016  -0.00010   0.00096   0.00086   2.21805
    A5        1.83794   0.00007   0.00008   0.00069   0.00076   1.83870
    A6        2.22805  -0.00022   0.00003  -0.00165  -0.00162   2.22643
    A7        2.23126   0.00051   0.00037   0.00151   0.00188   2.23314
    A8        1.96306  -0.00074  -0.00041  -0.00198  -0.00239   1.96067
    A9        2.08886   0.00023   0.00004   0.00047   0.00051   2.08938
   A10        1.79808   0.00118   0.00042   0.00305   0.00347   1.80154
   A11        1.96691  -0.00057   0.00021  -0.00310  -0.00288   1.96403
   A12        2.23959   0.00082  -0.00013   0.00495   0.00482   2.24440
   A13        2.07668  -0.00024  -0.00008  -0.00185  -0.00193   2.07475
    D1        0.00000   0.00000   0.00000   0.00000   0.00000   0.00000
    D2        3.14159   0.00000   0.00000   0.00000   0.00000   3.14159
    D3        3.14159   0.00000   0.00000   0.00000   0.00000   3.14159
    D4        0.00000   0.00000   0.00000   0.00000   0.00000   0.00000
    D5        3.14159   0.00000   0.00000   0.00000   0.00000   3.14159
    D6        0.00000   0.00000   0.00000   0.00000   0.00000   0.00000
    D7        0.00000   0.00000   0.00000   0.00000   0.00000   0.00000
    D8        3.14159   0.00000   0.00000   0.00000   0.00000   3.14159
    D9        3.14159   0.00000   0.00000   0.00000   0.00000   3.14159
   D10        0.00000   0.00000   0.00000   0.00000   0.00000   0.00000
   D11        0.00000   0.00000   0.00000   0.00000   0.00000   0.00000
   D12        3.14159   0.00000   0.00000   0.00000   0.00000   3.14159
   D13        0.00000   0.00000   0.00000   0.00000   0.00000   0.00000
   D14        3.14159   0.00000   0.00000   0.00000   0.00000   3.14159
   D15        0.00000   0.00000   0.00000   0.00000   0.00000   0.00000
   D16        3.14159   0.00000   0.00000   0.00000   0.00000   3.14159
         Item               Value     Threshold  Converged?
 Maximum Force            0.002226     0.000450     NO 
 RMS     Force            0.000659     0.000300     NO 
 Maximum Displacement     0.004880     0.001800     NO 
 RMS     Displacement     0.001635     0.001200     NO 
 Predicted change in Energy=-1.658497D-05
 GradGradGradGradGradGradGradGradGradGradGradGradGradGradGradGradGradGrad

                          Input orientation:                          
 ---------------------------------------------------------------------
 Center     Atomic     Atomic              Coordinates (Angstroms)
 Number     Number      Type              X           Y           Z
 ---------------------------------------------------------------------
    1          1             0       -1.885061    0.000000   -1.205454
    2          6             0       -0.945711    0.000000   -0.678570
    3          1             0        0.673127    0.000000   -2.176454
    4          6             0        0.354752    0.000000   -1.148660
    5          1             0        2.248325    0.000000    0.060629
    6          6             0        1.172402    0.000000    0.009411
    7          7             0        0.449345    0.000000    1.147103
    8          1             0       -1.617732    0.000000    1.362605
    9          7             0       -0.866563    0.000000    0.688418
 ---------------------------------------------------------------------
                    Distance matrix (angstroms):
                    1          2          3          4          5
     1  H    0.000000
     2  C    1.077026   0.000000
     3  H    2.736269   2.205514   0.000000
     4  C    2.240533   1.382819   1.075975   0.000000
     5  H    4.322945   3.278458   2.736017   2.246776   0.000000
     6  C    3.289982   2.227043   2.242160   1.417632   1.077142
     7  N    3.314208   2.297665   3.331082   2.297712   2.101608
     8  H    2.581936   2.148955   4.215801   3.193297   4.079405
     9  N    2.150370   1.369278   3.252405   2.206007   3.177523
                    6          7          8          9
     6  C    0.000000
     7  N    1.348019   0.000000
     8  H    3.100965   2.078280   0.000000
     9  N    2.149053   1.393559   1.009348   0.000000
 Stoichiometry    C3H4N2
 Framework group  CS[SG(C3H4N2)]
 Deg. of freedom   15
 Full point group                 CS      NOp   2
 Largest Abelian subgroup         CS      NOp   2
 Largest concise Abelian subgroup C1      NOp   1
                         Standard orientation:                         
 ---------------------------------------------------------------------
 Center     Atomic     Atomic              Coordinates (Angstroms)
 Number     Number      Type              X           Y           Z
 ---------------------------------------------------------------------
    1          1             0        2.116221    0.725029    0.000000
    2          6             0        1.119151    0.317798    0.000000
    3          1             0        1.283835   -1.881559    0.000000
    4          6             0        0.677597   -0.992629    0.000000
    5          1             0       -1.447521   -1.721927    0.000000
    6          6             0       -0.737725   -0.911727    0.000000
    7          7             0       -1.178082    0.362338    0.000000
    8          1             0       -0.060092    2.114293    0.000000
    9          7             0        0.000000    1.106736    0.000000
 ---------------------------------------------------------------------
 Rotational constants (GHZ):      9.4370852      9.2266079      4.6653299
 Isotopes: H-1,C-12,H-1,C-12,H-1,C-12,N-14,H-1,N-14
 Standard basis: 3-21G (6D, 7F)
 There are    43 symmetry adapted basis functions of A'  symmetry.
 There are    10 symmetry adapted basis functions of A"  symmetry.
 Crude estimate of integral set expansion from redundant integrals=1.000.
 Integral buffers will be    262144 words long.
 Raffenetti 2 integral format.
 Two-electron integral symmetry is turned on.
    53 basis functions       87 primitive gaussians
    18 alpha electrons       18 beta electrons
       nuclear repulsion energy       161.2603924574 Hartrees.
 One-electron integrals computed using PRISM.
 NBasis=    53 RedAO= T  NBF=    43    10
 NBsUse=    53 1.00D-04 NBFU=    43    10
 Initial guess read from the read-write file:
 Initial guess orbital symmetries:
       Occupied  (A') (A') (A') (A') (A') (A') (A') (A') (A') (A')
                 (A') (A') (A") (A') (A') (A') (A") (A")
       Virtual   (A") (A") (A') (A') (A') (A') (A') (A') (A') (A')
                 (A') (A') (A") (A') (A') (A") (A') (A") (A') (A')
                 (A') (A') (A") (A') (A") (A') (A') (A') (A') (A')
                 (A') (A') (A') (A') (A')
 Requested convergence on RMS density matrix=1.00D-08 within  64 cycles.
 Requested convergence on MAX density matrix=1.00D-06.
 Keep R1 and R2 integrals in memory in canonical form, NReq=     2463126.
 SCF Done:  E(RB+HF-PW91) =  -224.858243468     A.U. after    9 cycles
             Convg  =    0.6215D-08             -V/T =  2.0088
             S**2   =   0.0000
 ***** Axes restored to original set *****
 -------------------------------------------------------------------
 Center     Atomic                   Forces (Hartrees/Bohr)
 Number     Number              X              Y              Z
 -------------------------------------------------------------------
    1          1          -0.000093384    0.000000000   -0.000266880
    2          6          -0.000361930    0.000000000    0.001555449
    3          1           0.000010796    0.000000000   -0.000189760
    4          6           0.000542360    0.000000000   -0.000267770
    5          1           0.000190769    0.000000000    0.000107362
    6          6          -0.001323756    0.000000000    0.000486672
    7          7           0.000520660    0.000000000    0.000138823
    8          1           0.000168833    0.000000000    0.000237857
    9          7           0.000345651    0.000000000   -0.001801755
 -------------------------------------------------------------------
 Cartesian Forces:  Max     0.001801755 RMS     0.000571245

 GradGradGradGradGradGradGradGradGradGradGradGradGradGradGradGradGradGrad
 Berny optimization.
 Internal  Forces:  Max     0.001024032 RMS     0.000284695
 Search for a local minimum.
 Step number   6 out of a maximum of  48
 All quantities printed in internal units (Hartrees-Bohrs-Radians)
 Update second derivatives using information from points  1  2  3  4  5
                                                        6
 Trust test= 1.04D+00 RLast= 9.71D-03 DXMaxT set to 4.24D-01
     Eigenvalues ---    0.03203   0.03247   0.03252   0.03273   0.03341
     Eigenvalues ---    0.03372   0.13654   0.15381   0.15862   0.16067
     Eigenvalues ---    0.22176   0.30125   0.41804   0.45913   0.49566
     Eigenvalues ---    0.49783   0.52889   0.58120   0.60056   0.63737
     Eigenvalues ---    0.700641000.000001000.000001000.000001000.00000
     Eigenvalues --- 1000.000001000.000001000.000001000.000001000.00000
     Eigenvalues --- 1000.000001000.000001000.000001000.000001000.00000
     Eigenvalues --- 1000.000001000.000001000.00000
 RFO step:  Lambda=-8.36607294D-06.
 Quartic linear search produced a step of  0.05946.
 Iteration  1 RMS(Cart)=  0.00085184 RMS(Int)=  0.00000090
 Iteration  2 RMS(Cart)=  0.00000087 RMS(Int)=  0.00000008
 Variable       Old X    -DE/DX   Delta X   Delta X   Delta X     New X
                                 (Linear)    (Quad)   (Total)
    R1        2.03528   0.00021   0.00007   0.00051   0.00058   2.03586
    R2        2.61315   0.00025   0.00015   0.00077   0.00092   2.61407
    R3        2.58756  -0.00102  -0.00017  -0.00207  -0.00224   2.58532
    R4        2.03330   0.00018   0.00005   0.00033   0.00038   2.03368
    R5        2.67894  -0.00004  -0.00002  -0.00009  -0.00011   2.67883
    R6        2.03550   0.00020   0.00009   0.00055   0.00063   2.03614
    R7        2.54739  -0.00073  -0.00012  -0.00149  -0.00161   2.54577
    R8        2.63344  -0.00006   0.00017   0.00098   0.00115   2.63460
    R9        1.90739   0.00003   0.00002  -0.00001   0.00001   1.90740
    A1        2.28355  -0.00012  -0.00005  -0.00090  -0.00095   2.28261
    A2        2.13981   0.00025  -0.00001   0.00142   0.00141   2.14122
    A3        1.85983  -0.00014   0.00006  -0.00052  -0.00046   1.85936
    A4        2.21805   0.00013   0.00005   0.00020   0.00025   2.21831
    A5        1.83870  -0.00036   0.00005  -0.00064  -0.00059   1.83811
    A6        2.22643   0.00023  -0.00010   0.00044   0.00034   2.22677
    A7        2.23314  -0.00011   0.00011  -0.00001   0.00010   2.23324
    A8        1.96067   0.00041  -0.00014   0.00127   0.00113   1.96180
    A9        2.08938  -0.00030   0.00003  -0.00126  -0.00123   2.08815
   A10        1.80154  -0.00043   0.00021  -0.00147  -0.00126   1.80028
   A11        1.96403   0.00052  -0.00017   0.00136   0.00119   1.96522
   A12        2.24440   0.00002   0.00029   0.00155   0.00184   2.24624
   A13        2.07475  -0.00054  -0.00011  -0.00291  -0.00302   2.07173
    D1        0.00000   0.00000   0.00000   0.00000   0.00000   0.00000
    D2        3.14159   0.00000   0.00000   0.00000   0.00000   3.14159
    D3        3.14159   0.00000   0.00000   0.00000   0.00000   3.14159
    D4        0.00000   0.00000   0.00000   0.00000   0.00000   0.00000
    D5        3.14159   0.00000   0.00000   0.00000   0.00000   3.14159
    D6        0.00000   0.00000   0.00000   0.00000   0.00000   0.00000
    D7        0.00000   0.00000   0.00000   0.00000   0.00000   0.00000
    D8        3.14159   0.00000   0.00000   0.00000   0.00000   3.14159
    D9        3.14159   0.00000   0.00000   0.00000   0.00000   3.14159
   D10        0.00000   0.00000   0.00000   0.00000   0.00000   0.00000
   D11        0.00000   0.00000   0.00000   0.00000   0.00000   0.00000
   D12        3.14159   0.00000   0.00000   0.00000   0.00000   3.14159
   D13        0.00000   0.00000   0.00000   0.00000   0.00000   0.00000
   D14        3.14159   0.00000   0.00000   0.00000   0.00000   3.14159
   D15        0.00000   0.00000   0.00000   0.00000   0.00000   0.00000
   D16        3.14159   0.00000   0.00000   0.00000   0.00000   3.14159
         Item               Value     Threshold  Converged?
 Maximum Force            0.001024     0.000450     NO 
 RMS     Force            0.000285     0.000300     YES
 Maximum Displacement     0.003203     0.001800     NO 
 RMS     Displacement     0.000852     0.001200     YES
 Predicted change in Energy=-4.238264D-06
 GradGradGradGradGradGradGradGradGradGradGradGradGradGradGradGradGradGrad

                          Input orientation:                          
 ---------------------------------------------------------------------
 Center     Atomic     Atomic              Coordinates (Angstroms)
 Number     Number      Type              X           Y           Z
 ---------------------------------------------------------------------
    1          1             0       -1.885053    0.000000   -1.205791
    2          6             0       -0.945901    0.000000   -0.677932
    3          1             0        0.673612    0.000000   -2.176206
    4          6             0        0.354988    0.000000   -1.148278
    5          1             0        2.248224    0.000000    0.062080
    6          6             0        1.171998    0.000000    0.010174
    7          7             0        0.450087    0.000000    1.147583
    8          1             0       -1.615670    0.000000    1.363799
    9          7             0       -0.866097    0.000000    0.687834
 ---------------------------------------------------------------------
                    Distance matrix (angstroms):
                    1          2          3          4          5
     1  H    0.000000
     2  C    1.077331   0.000000
     3  H    2.736507   2.206274   0.000000
     4  C    2.240779   1.383306   1.076178   0.000000
     5  H    4.323364   3.278727   2.736664   2.247067   0.000000
     6  C    3.290004   2.226877   2.242465   1.417574   1.077478
     7  N    3.315305   2.298105   3.331297   2.297829   2.100385
     8  H    2.583671   2.148780   4.215738   3.192808   4.077273
     9  N    2.150368   1.368095   3.251681   2.205074   3.176565
                    6          7          8          9
     6  C    0.000000
     7  N    1.347165   0.000000
     8  H    3.098934   2.077041   0.000000
     9  N    2.147802   1.394170   1.009351   0.000000
 Stoichiometry    C3H4N2
 Framework group  CS[SG(C3H4N2)]
 Deg. of freedom   15
 Full point group                 CS      NOp   2
 Largest Abelian subgroup         CS      NOp   2
 Largest concise Abelian subgroup C1      NOp   1
                         Standard orientation:                         
 ---------------------------------------------------------------------
 Center     Atomic     Atomic              Coordinates (Angstroms)
 Number     Number      Type              X           Y           Z
 ---------------------------------------------------------------------
    1          1             0        2.116515    0.725919    0.000000
    2          6             0        1.119023    0.318916    0.000000
    3          1             0        1.284769   -1.881124    0.000000
    4          6             0        0.678104   -0.992239    0.000000
    5          1             0       -1.447250   -1.721745    0.000000
    6          6             0       -0.737160   -0.911356    0.000000
    7          7             0       -1.178689    0.361400    0.000000
    8          1             0       -0.063016    2.113363    0.000000
    9          7             0        0.000000    1.105981    0.000000
 ---------------------------------------------------------------------
 Rotational constants (GHZ):      9.4445977      9.2242367      4.6665583
 Isotopes: H-1,C-12,H-1,C-12,H-1,C-12,N-14,H-1,N-14
 Standard basis: 3-21G (6D, 7F)
 There are    43 symmetry adapted basis functions of A'  symmetry.
 There are    10 symmetry adapted basis functions of A"  symmetry.
 Crude estimate of integral set expansion from redundant integrals=1.000.
 Integral buffers will be    262144 words long.
 Raffenetti 2 integral format.
 Two-electron integral symmetry is turned on.
    53 basis functions       87 primitive gaussians
    18 alpha electrons       18 beta electrons
       nuclear repulsion energy       161.2806199393 Hartrees.
 One-electron integrals computed using PRISM.
 NBasis=    53 RedAO= T  NBF=    43    10
 NBsUse=    53 1.00D-04 NBFU=    43    10
 Initial guess read from the read-write file:
 Initial guess orbital symmetries:
       Occupied  (A') (A') (A') (A') (A') (A') (A') (A') (A') (A')
                 (A') (A') (A") (A') (A') (A') (A") (A")
       Virtual   (A") (A") (A') (A') (A') (A') (A') (A') (A') (A')
                 (A') (A') (A") (A') (A') (A") (A') (A") (A') (A')
                 (A') (A') (A") (A') (A") (A') (A') (A') (A') (A')
                 (A') (A') (A') (A') (A')
 Requested convergence on RMS density matrix=1.00D-08 within  64 cycles.
 Requested convergence on MAX density matrix=1.00D-06.
 Keep R1 and R2 integrals in memory in canonical form, NReq=     2463126.
 SCF Done:  E(RB+HF-PW91) =  -224.858248056     A.U. after    9 cycles
             Convg  =    0.3144D-08             -V/T =  2.0088
             S**2   =   0.0000
 ***** Axes restored to original set *****
[...]
 Frc consts  --     7.0176                 7.1994                 8.4863
 IR Inten    --     1.1462                 0.1892                94.4955
 Raman Activ --     0.0000                 0.0000                 0.0000
 Depolar     --     0.0000                 0.0000                 0.0000
 Atom AN      X      Y      Z        X      Y      Z        X      Y      Z
   1   1     0.75   0.30   0.00    -0.39  -0.16   0.00     0.02   0.00   0.00
   2   6    -0.07  -0.03   0.00     0.04   0.02   0.00     0.00   0.00   0.00
   3   1    -0.12   0.16   0.00    -0.47   0.69   0.00     0.00   0.00   0.00
   4   6     0.01  -0.01   0.00     0.04  -0.07   0.00     0.00   0.00   0.00
   5   1     0.36   0.41   0.00     0.22   0.25   0.00     0.00   0.00   0.00
   6   6    -0.03  -0.04   0.00    -0.02  -0.02   0.00     0.00   0.00   0.00
   7   7     0.00   0.00   0.00     0.00   0.00   0.00     0.00   0.00   0.00
   8   1     0.00  -0.01   0.00     0.00   0.02   0.00    -0.07   0.99   0.00
   9   7     0.00   0.00   0.00     0.00   0.00   0.00     0.01  -0.08   0.00

 -------------------
 - Thermochemistry -
 -------------------
 Temperature   298.150 Kelvin.  Pressure   1.00000 Atm.
 Atom  1 has atomic number  1 and mass   1.00783
 Atom  2 has atomic number  6 and mass  12.00000
 Atom  3 has atomic number  1 and mass   1.00783
 Atom  4 has atomic number  6 and mass  12.00000
 Atom  5 has atomic number  1 and mass   1.00783
 Atom  6 has atomic number  6 and mass  12.00000
 Atom  7 has atomic number  7 and mass  14.00307
 Atom  8 has atomic number  1 and mass   1.00783
 Atom  9 has atomic number  7 and mass  14.00307
 Molecular mass:    68.03745 amu.
 Principal axes and moments of inertia in atomic units:
                           1         2         3
     EIGENVALUES --   191.08714 195.65209 386.73923
           X            0.98936   0.14547   0.00000
           Y           -0.14547   0.98936   0.00000
           Z            0.00000   0.00000   1.00000
 THIS MOLECULE IS AN ASYMMETRIC TOP.
 ROTATIONAL SYMMETRY NUMBER  1.
 ROTATIONAL TEMPERATURES (KELVIN)      0.45327     0.44269     0.22396
 ROTATIONAL CONSTANTS (GHZ)            9.44460     9.22424     4.66656
 Zero-point vibrational energy     187769.9 (Joules/Mol)
                                   44.87809 (Kcal/Mol)
 WARNING-- EXPLICIT CONSIDERATION OF   1 DEGREES OF FREEDOM AS
           VIBRATIONS MAY CAUSE SIGNIFICANT ERROR
 VIBRATIONAL TEMPERATURES:    869.34   946.63   986.50  1134.79  1275.37
          (KELVIN)           1344.80  1366.72  1373.28  1431.61  1543.21
                             1633.90  1663.38  1806.11  1957.38  2020.70
                             2082.60  2220.69  4735.65  4744.24  4781.91
                             5247.99
 
 Zero-point correction=                           0.071518 (Hartree/Particle)
 Thermal correction to Energy=                    0.075178
 Thermal correction to Enthalpy=                  0.076123
 Thermal correction to Gibbs Free Energy=         0.045259
 Sum of electronic and zero-point Energies=           -224.786730
 Sum of electronic and thermal Energies=              -224.783070
 Sum of electronic and thermal Enthalpies=            -224.782125
 Sum of electronic and thermal Free Energies=         -224.812989
 
                     E (Thermal)             CV                S
                      KCAL/MOL        CAL/MOL-KELVIN    CAL/MOL-KELVIN
 TOTAL                   47.175             12.985             64.958
 ELECTRONIC               0.000              0.000              0.000
 TRANSLATIONAL            0.889              2.981             38.570
 ROTATIONAL               0.889              2.981             24.184
 VIBRATIONAL             45.398              7.024              2.203
 VIBRATION  1             0.963              1.023              0.442
                       Q            LOG10(Q)             LN(Q)
 TOTAL BOT       0.152216D-20        -20.817540        -47.934157
 TOTAL V=0       0.119711D+13         12.078135         27.810934
 VIB (BOT)       0.160310D-32        -32.795039        -75.513368
 VIB (BOT)  1    0.246055D+00         -0.608968         -1.402200
 VIB (V=0)       0.126077D+01          0.100636          0.231723
 VIB (V=0)  1    0.105726D+01          0.024183          0.055684
 ELECTRONIC      0.100000D+01          0.000000          0.000000
 TRANSLATIONAL   0.220588D+08          7.343582         16.909224
 ROTATIONAL      0.430444D+05          4.633916         10.669987
 ***** Axes restored to original set *****
 -------------------------------------------------------------------
 Center     Atomic                   Forces (Hartrees/Bohr)
 Number     Number              X              Y              Z
 -------------------------------------------------------------------
    1          1           0.000061673    0.000000000   -0.000068346
    2          6          -0.000041218    0.000000000    0.000638224
    3          1          -0.000032729    0.000000000   -0.000031272
    4          6           0.000339126    0.000000000   -0.000334039
    5          1          -0.000006126    0.000000000   -0.000030492
    6          6          -0.000205446    0.000000000   -0.000018564
    7          7          -0.000204171    0.000000000    0.000086201
    8          1          -0.000029890    0.000000000    0.000027684
    9          7           0.000118781    0.000000000   -0.000269396
 -------------------------------------------------------------------
 Cartesian Forces:  Max     0.000638224 RMS     0.000175026

 GradGradGradGradGradGradGradGradGradGradGradGradGradGradGradGradGradGrad
 Berny optimization.
 Internal  Forces:  Max     0.000281320 RMS     0.000094878
 Search for a local minimum.
 Step number   1 out of a maximum of  48
 All quantities printed in internal units (Hartrees-Bohrs-Radians)
 Second derivative matrix not updated -- analytic derivatives used.
     Eigenvalues ---    0.00938   0.01354   0.01794   0.02928   0.06096
     Eigenvalues ---    0.06547   0.09766   0.10732   0.10996   0.11822
     Eigenvalues ---    0.20859   0.25313   0.31340   0.35712   0.38130
     Eigenvalues ---    0.38452   0.38847   0.42051   0.47230   0.48292
     Eigenvalues ---    0.549641000.000001000.000001000.000001000.00000
     Eigenvalues --- 1000.000001000.000001000.000001000.000001000.00000
     Eigenvalues --- 1000.000001000.000001000.000001000.000001000.00000
     Eigenvalues --- 1000.000001000.000001000.00000
 Angle between quadratic step and forces=  28.57 degrees.
 Linear search not attempted -- first point.
 Iteration  1 RMS(Cart)=  0.00035282 RMS(Int)=  0.00000014
 Iteration  2 RMS(Cart)=  0.00000016 RMS(Int)=  0.00000003
 Variable       Old X    -DE/DX   Delta X   Delta X   Delta X     New X
                                 (Linear)    (Quad)   (Total)
    R1        2.03586  -0.00002   0.00000  -0.00002  -0.00002   2.03584
    R2        2.61407   0.00017   0.00000   0.00062   0.00062   2.61469
    R3        2.58532  -0.00028   0.00000  -0.00105  -0.00105   2.58428
    R4        2.03368   0.00002   0.00000   0.00000   0.00000   2.03368
    R5        2.67883  -0.00008   0.00000  -0.00015  -0.00015   2.67868
    R6        2.03614  -0.00001   0.00000   0.00000   0.00000   2.03614
    R7        2.54577   0.00012   0.00000   0.00027   0.00027   2.54604
    R8        2.63460  -0.00019   0.00000  -0.00032  -0.00032   2.63428
    R9        1.90740   0.00004   0.00000   0.00009   0.00009   1.90748
    A1        2.28261  -0.00017   0.00000  -0.00128  -0.00128   2.28132
    A2        2.14122  -0.00001   0.00000   0.00069   0.00069   2.14190
    A3        1.85936   0.00018   0.00000   0.00060   0.00060   1.85996
    A4        2.21831   0.00008   0.00000  -0.00014  -0.00014   2.21816
    A5        1.83811  -0.00025   0.00000  -0.00084  -0.00084   1.83727
    A6        2.22677   0.00017   0.00000   0.00098   0.00098   2.22775
    A7        2.23324  -0.00009   0.00000  -0.00040  -0.00040   2.23284
    A8        1.96180   0.00009   0.00000   0.00039   0.00039   1.96219
    A9        2.08815  -0.00001   0.00000   0.00002   0.00002   2.08816
   A10        1.80028  -0.00003   0.00000  -0.00020  -0.00020   1.80009
   A11        1.96522   0.00001   0.00000   0.00006   0.00006   1.96528
   A12        2.24624   0.00000   0.00000  -0.00001  -0.00001   2.24623
   A13        2.07173  -0.00001   0.00000  -0.00005  -0.00005   2.07168
    D1        0.00000   0.00000   0.00000   0.00000   0.00000   0.00000
    D2        3.14159   0.00000   0.00000   0.00000   0.00000   3.14159
    D3        3.14159   0.00000   0.00000   0.00000   0.00000   3.14159
    D4        0.00000   0.00000   0.00000   0.00000   0.00000   0.00000
    D5        3.14159   0.00000   0.00000   0.00000   0.00000   3.14159
    D6        0.00000   0.00000   0.00000   0.00000   0.00000   0.00000
    D7        0.00000   0.00000   0.00000   0.00000   0.00000   0.00000
    D8        3.14159   0.00000   0.00000   0.00000   0.00000   3.14159
    D9        3.14159   0.00000   0.00000   0.00000   0.00000   3.14159
   D10        0.00000   0.00000   0.00000   0.00000   0.00000   0.00000
   D11        0.00000   0.00000   0.00000   0.00000   0.00000   0.00000
   D12        3.14159   0.00000   0.00000   0.00000   0.00000   3.14159
   D13        0.00000   0.00000   0.00000   0.00000   0.00000   0.00000
   D14        3.14159   0.00000   0.00000   0.00000   0.00000   3.14159
   D15        0.00000   0.00000   0.00000   0.00000   0.00000   0.00000
   D16        3.14159   0.00000   0.00000   0.00000   0.00000   3.14159
         Item               Value     Threshold  Converged?
 Maximum Force            0.000281     0.000450     YES
 RMS     Force            0.000095     0.000300     YES
 Maximum Displacement     0.001136     0.001800     YES
 RMS     Displacement     0.000353     0.001200     YES
 Predicted change in Energy=-6.406601D-07
 Optimization completed.
    -- Stationary point found.
                         ----------------------------
                         !   Optimized Parameters   !
                         ! (Angstroms and Degrees)  !
 ------------------------                            -------------------------
 ! Name  Definition              Value          Derivative Info.             !
 -----------------------------------------------------------------------------
 ! R1    R(1,2)                  1.0773         -DE/DX =    0.               !
 ! R2    R(2,4)                  1.3833         -DE/DX =    0.0002           !
 ! R3    R(2,9)                  1.3681         -DE/DX =   -0.0003           !
 ! R4    R(3,4)                  1.0762         -DE/DX =    0.               !
 ! R5    R(4,6)                  1.4176         -DE/DX =   -0.0001           !
 ! R6    R(5,6)                  1.0775         -DE/DX =    0.               !
 ! R7    R(6,7)                  1.3472         -DE/DX =    0.0001           !
 ! R8    R(7,9)                  1.3942         -DE/DX =   -0.0002           !
 ! R9    R(8,9)                  1.0094         -DE/DX =    0.               !
 ! A1    A(1,2,4)              130.7836         -DE/DX =   -0.0002           !
 ! A2    A(1,2,9)              122.6826         -DE/DX =    0.               !
 ! A3    A(4,2,9)              106.5338         -DE/DX =    0.0002           !
 ! A4    A(2,4,3)              127.0995         -DE/DX =    0.0001           !
 ! A5    A(2,4,6)              105.316          -DE/DX =   -0.0002           !
 ! A6    A(3,4,6)              127.5845         -DE/DX =    0.0002           !
 ! A7    A(4,6,5)              127.955          -DE/DX =   -0.0001           !
 ! A8    A(4,6,7)              112.403          -DE/DX =    0.0001           !
 ! A9    A(5,6,7)              119.642          -DE/DX =    0.               !
 ! A10   A(6,7,9)              103.1487         -DE/DX =    0.               !
 ! A11   A(2,9,7)              112.5986         -DE/DX =    0.               !
 ! A12   A(2,9,8)              128.7001         -DE/DX =    0.               !
 ! A13   A(7,9,8)              118.7013         -DE/DX =    0.               !
 ! D1    D(1,2,4,3)              0.             -DE/DX =    0.               !
 ! D2    D(1,2,4,6)            180.             -DE/DX =    0.               !
 ! D3    D(9,2,4,3)            180.             -DE/DX =    0.               !
 ! D4    D(9,2,4,6)              0.             -DE/DX =    0.               !
 ! D5    D(1,2,9,7)            180.             -DE/DX =    0.               !
 ! D6    D(1,2,9,8)              0.             -DE/DX =    0.               !
 ! D7    D(4,2,9,7)              0.             -DE/DX =    0.               !
 ! D8    D(4,2,9,8)            180.             -DE/DX =    0.               !
 ! D9    D(2,4,6,5)            180.             -DE/DX =    0.               !
 ! D10   D(2,4,6,7)              0.             -DE/DX =    0.               !
 ! D11   D(3,4,6,5)              0.             -DE/DX =    0.               !
 ! D12   D(3,4,6,7)            180.             -DE/DX =    0.               !
 ! D13   D(4,6,7,9)              0.             -DE/DX =    0.               !
 ! D14   D(5,6,7,9)            180.             -DE/DX =    0.               !
 ! D15   D(6,7,9,2)              0.             -DE/DX =    0.               !
 ! D16   D(6,7,9,8)            180.             -DE/DX =    0.               !
 -----------------------------------------------------------------------------
 GradGradGradGradGradGradGradGradGradGradGradGradGradGradGradGradGradGrad

 1\1\GINC-QUANTUM\Freq\RB3PW91\3-21G\C3H4N2\RDJ3\05-May-2000\0\\#N GEOM
 =ALLCHECK GUESS=TCHECK RB3PW91/3-21G FREQ\\1H pyrazole C3H4N2 casno=28
 8131\\0,1\H,-1.884929328,0.,-1.2056680511\C,-0.9457768918,0.,-0.677809
 4402\H,0.6737353778,0.,-2.1760836741\C,0.3551115595,0.,-1.1481550243\H
 ,2.2483479316,0.,0.0622029242\C,1.1721213757,0.,0.0102967968\N,0.45021
 01618,0.,1.1477057216\H,-1.6155466348,0.,1.3639213397\N,-0.8659735343,
 0.,0.6879562023\\Version=IBM-RS6000-G98RevA.6\State=1-A'\HF=-224.85824
 81\RMSD=3.171e-09\RMSF=1.750e-04\Dipole=-0.8208255,0.,-0.4430746\Dipol
 eDeriv=0.0156381,0.0000014,-0.0395076,0.0000058,0.2064177,-0.0000301,-
 0.0416259,0.000002,0.0809175,0.1022087,-0.0001037,-0.1088025,-0.000057
 ,-0.074205,0.0000226,-0.3014217,-0.0000626,0.1822783,0.1025603,-0.0000
 056,0.0286927,0.000041,0.1813486,-0.0000063,0.0374186,0.0000165,-0.018
 3807,-0.2815322,0.0000486,0.0010976,-0.0000202,-0.2434555,0.0000736,-0
 .0552618,-0.0001053,-0.0209926,-0.0324636,0.0000682,-0.0213805,-0.0000
 062,0.1678524,-0.000039,-0.0105132,0.0000075,0.0945576,0.1901418,-0.00
 00304,0.1296225,0.0001001,-0.1001483,0.0000453,0.1734659,0.0000411,0.0
 64523,0.0637816,-0.0000744,-0.161108,-0.0001059,-0.1906973,-0.0000827,
 -0.0353842,0.0000121,-0.4280735,0.2357292,0.0000015,-0.0378296,0.00001
 97,0.3732087,0.0000071,-0.0481941,-0.0000024,0.2446401,-0.3960632,0.00
 00946,0.2092151,0.0000226,-0.3203212,0.0000097,0.2815162,0.000091,-0.1
 994693\Polar=46.1217726,-0.0005493,12.2617439,-0.6776294,-0.0007489,41
 .3808155\PG=CS [SG(C3H4N2)]\NImag=0\\0.30233309,-0.00000119,0.02203770
 ,0.14146545,-0.00000083,0.13126601,-0.29783883,0.00000210,-0.12597948,
 0.85392644,0.00000142,-0.02934055,0.00000015,-0.00000716,0.13335230,-0
 .13469643,0.00000033,-0.12684227,0.11305704,0.00000144,0.61619358,0.00
 025137,0.00000033,-0.00095172,0.00121120,-0.00000122,0.02865785,0.0816
 4757,0.00000028,-0.00319018,0.00000063,-0.00000199,-0.00006590,-0.0000
 0397,0.00000019,0.02456817,0.00060029,-0.00000071,-0.00001809,-0.00560
 979,0.00000270,-0.00093657,-0.09547959,0.00000074,0.35543586,-0.007194
 07,0.00000013,0.01120871,-0.32890942,0.00000277,0.07041468,-0.08726727
 ,0.00000111,0.08981887,0.60746708,0.00000048,0.00276330,0.00000013,-0.
 00000165,-0.07368865,0.00000132,-0.00000049,-0.03147661,0.00000056,-0.
 00000019,0.13478750,-0.01692776,0.00000148,0.01236298,0.09137412,-0.00
 000820,-0.13750892,0.08641148,-0.00000099,-0.34249070,-0.12782142,-0.0
 0000278,0.82876219,-0.00031707,-0.00000116,0.00022298,-0.00016117,0.00
 000518,-0.00051281,-0.00015128,-0.00000040,-0.00081698,-0.00510643,0.0
 0000231,0.00549286,0.38093440,-0.00000081,0.00066489,-0.00000059,-0.00
 000007,0.00441584,-0.00000064,0.00000023,-0.00206562,-0.00000059,0.000
 00056,0.00179880,-0.00000052,0.00000052,0.02587991,-0.00098311,-0.0000
 0009,0.00093586,-0.00319105,0.00000052,-0.00634403,0.00091400,0.000000
 08,0.00030429,-0.02355080,0.00000008,0.00661133,0.01533077,0.00000012,
 0.05614385,-0.00405900,-0.00000015,0.00490361,-0.07022660,0.00000281,-
 0.00733247,0.01255861,-0.00000058,0.01442034,-0.16999388,-0.00000070,-
 0.08911819,-0.36321480,-0.00000009,-0.02584476,0.88072257,-0.00000348,
 0.00527037,-0.00000184,0.00000578,0.01508226,-0.00000127,0.00000099,-0
 .00133796,-0.00000234,0.00000021,-0.07465994,0.00000452,-0.00000331,-0
 .03354370,-0.00000042,-0.00000504,0.14873136,0.00098914,-0.00000033,-0
 .00238439,-0.06866877,-0.00000420,0.03084532,-0.01781728,0.00000040,-0
 .01036234,-0.06285016,0.00000230,-0.21292333,-0.01772395,-0.00000043,-
 0.05774837,-0.00089682,0.00000709,0.55104606,0.00137885,0.00000083,0.0
 0107347,-0.05642263,-0.00000794,-0.05043650,-0.00212312,-0.00000057,-0
 .00055056,0.01917288,-0.00000105,0.03357647,-0.01270823,-0.00000157,0.
 02901629,-0.15643883,0.00000710,0.12890997,0.40796398,0.00000471,0.005
 85218,0.00000249,-0.00000541,0.01678586,0.00000294,-0.00000115,0.00612
 603,0.00000223,-0.00000080,0.02265281,-0.00000195,0.00000225,-0.006735
 37,0.00000035,0.00000688,-0.07276127,-0.00001051,-0.00000581,0.1004226
 9,0.00300804,-0.00000102,-0.00452195,-0.01981447,0.00001001,-0.0691687
 2,-0.00567431,-0.00000138,-0.00256903,-0.03066061,0.00000060,-0.083466
 24,-0.00369672,0.00000026,0.00342854,0.07756063,-0.00001077,-0.2595214
 9,-0.05339060,0.00001334,0.50213637,-0.00021917,-0.00000010,0.00050578
 ,0.00934767,0.00000121,-0.00710493,0.00059606,-0.00000022,-0.00007067,
 0.00201986,0.00000019,-0.00352567,-0.00029904,0.00000027,0.00134080,-0
 .00638191,-0.00000166,-0.00561653,-0.01765170,0.00000149,0.02536199,0.
 28845022,-0.00000061,-0.00152247,-0.00000041,0.,-0.00597493,-0.0000003
 8,0.00000006,0.00198462,-0.00000014,0.00000071,0.00354782,-0.00000023,
 0.00000002,0.00183801,0.,-0.00000072,0.00443503,0.00000075,0.00000030,
 -0.01001905,-0.00000083,-0.00000024,0.01467605,-0.00062707,-0.00000019
 ,-0.00013363,0.02646401,-0.00000040,-0.00539496,0.00119304,-0.00000030
 ,0.00015005,-0.00266367,0.00000057,-0.00618495,-0.00042075,-0.00000079
 ,0.00105964,-0.00711105,0.00000152,0.00049808,-0.01257282,-0.00000119,
 0.01385697,-0.20260125,0.00000025,0.24941908,0.00566483,-0.00000078,-0
 .03244879,-0.11092668,0.00000294,-0.01204643,-0.00672313,0.00000218,-0
 .00231192,-0.03018876,0.00000110,0.02053812,0.00102364,0.00000096,0.00
 696786,-0.12296618,-0.00000058,0.04367441,-0.18317120,-0.00000215,0.00
 730605,-0.27586199,0.00000046,0.19833955,0.72314945,-0.00000080,-0.002
 53523,0.00000026,0.00000838,-0.06056623,0.00000023,0.00000107,0.005457
 46,-0.00000245,-0.00000451,0.01427498,0.00000867,-0.00000540,0.0077472
 5,-0.00000064,-0.00000241,0.00878385,0.00000493,0.00000870,-0.06232388
 ,-0.00001021,-0.00000095,-0.00896508,0.00000054,-0.00000410,0.09812689
 ,0.00717145,0.00000134,-0.01066452,-0.00763161,-0.00000201,-0.30084343
 ,0.00274652,0.00000480,0.00048656,0.07610440,-0.00000279,-0.06516237,0
 .00212461,0.00000318,-0.00439110,0.03341868,0.00000350,-0.03944955,-0.
 07562571,-0.00000769,-0.10017444,0.19171048,0.00000098,-0.25327026,-0.
 23001882,-0.00000133,0.77346909\\-0.00006167,0.,0.00006835,0.00004122,
 0.,-0.00063822,0.00003273,0.,0.00003127,-0.00033913,0.,0.00033404,0.00
 000613,0.,0.00003049,0.00020545,0.,0.00001856,0.00020417,0.,-0.0000862
 0,0.00002989,0.,-0.00002768,-0.00011878,0.,0.00026940\\\@


 I SUPPOSE A BABY LLAMA HAS A MMAMA AND A PPOPA.
     -- RICHARD AMOUR
 Job cpu time:  0 days  0 hours  5 minutes  4.0 seconds.
 File lengths (MBytes):  RWF=   10 Int=    0 D2E=    0 Chk=    3 Scr=    1
 Normal termination of Gaussian 98.
