 Entering Gaussian System, Link 0=g98
 Initial command:
 /usr/local/apps/g98/g98/l1.exe /wrk/Gau-22472.inp -scrdir=/wrk/
 Entering Link 1 = /usr/local/apps/g98/g98/l1.exe PID=     15808.
  
 Copyright (c) 1988,1990,1992,1993,1995,1998 Gaussian, Inc.
                  All Rights Reserved.
  
 This is part of the Gaussian(R) 98 program.  It is based on
 the Gaussian 94(TM) system (copyright 1995 Gaussian, Inc.),
 the Gaussian 92(TM) system (copyright 1992 Gaussian, Inc.),
 the Gaussian 90(TM) system (copyright 1990 Gaussian, Inc.),
 the Gaussian 88(TM) system (copyright 1988 Gaussian, Inc.),
 the Gaussian 86(TM) system (copyright 1986 Carnegie Mellon
 University), and the Gaussian 82(TM) system (copyright 1983
 Carnegie Mellon University). Gaussian is a federally registered
 trademark of Gaussian, Inc.
  
 This software contains proprietary and confidential information,
 including trade secrets, belonging to Gaussian, Inc.
  
 This software is provided under written license and may be
 used, copied, transmitted, or stored only in accord with that
 written license.
  
 The following legend is applicable only to US Government
 contracts under DFARS:
  
                    RESTRICTED RIGHTS LEGEND
  
 Use, duplication or disclosure by the US Government is subject
 to restrictions as set forth in subparagraph (c)(1)(ii) of the
 Rights in Technical Data and Computer Software clause at DFARS
 252.227-7013.
  
 Gaussian, Inc.
 Carnegie Office Park, Building 6, Pittsburgh, PA 15106 USA
  
 The following legend is applicable only to US Government
 contracts under FAR:
  
                    RESTRICTED RIGHTS LEGEND
  
 Use, reproduction and disclosure by the US Government is subject
 to restrictions as set forth in subparagraph (c) of the
 Commercial Computer Software - Restricted Rights clause at FAR
 52.227-19.
  
 Gaussian, Inc.
 Carnegie Office Park, Building 6, Pittsburgh, PA 15106 USA
  
  
 ---------------------------------------------------------------
 Warning -- This program may not be used in any manner that
 competes with the business of Gaussian, Inc. or will provide
 assistance to any competitor of Gaussian, Inc.  The licensee
 of this program is prohibited from giving any competitor of
 Gaussian, Inc. access to this program.  By using this program,
 the user acknowledges that Gaussian, Inc. is engaged in the
 business of creating and licensing software in the field of
 computational chemistry and represents and warrants to the
 licensee that it is not a competitor of Gaussian, Inc. and that
 it will not use this program in any manner prohibited above.
 ---------------------------------------------------------------
  

 Cite this work as:
 Gaussian 98, Revision A.7,
 M. J. Frisch, G. W. Trucks, H. B. Schlegel, G. E. Scuseria, 
 M. A. Robb, J. R. Cheeseman, V. G. Zakrzewski, J. A. Montgomery, Jr., 
 R. E. Stratmann, J. C. Burant, S. Dapprich, J. M. Millam, 
 A. D. Daniels, K. N. Kudin, M. C. Strain, O. Farkas, J. Tomasi, 
 V. Barone, M. Cossi, R. Cammi, B. Mennucci, C. Pomelli, C. Adamo, 
 S. Clifford, J. Ochterski, G. A. Petersson, P. Y. Ayala, Q. Cui, 
 K. Morokuma, D. K. Malick, A. D. Rabuck, K. Raghavachari, 
 J. B. Foresman, J. Cioslowski, J. V. Ortiz, A. G. Baboul, 
 B. B. Stefanov, G. Liu, A. Liashenko, P. Piskorz, I. Komaromi, 
 R. Gomperts, R. L. Martin, D. J. Fox, T. Keith, M. A. Al-Laham, 
 C. Y. Peng, A. Nanayakkara, C. Gonzalez, M. Challacombe, 
 P. M. W. Gill, B. Johnson, W. Chen, M. W. Wong, J. L. Andres, 
 C. Gonzalez, M. Head-Gordon, E. S. Replogle, and J. A. Pople, 
 Gaussian, Inc., Pittsburgh PA, 1998.

 **********************************************
 Gaussian 98:  IBM-RS6000-G98RevA.7 11-Apr-1999
                   9-Jun-2000 
 **********************************************
 %mem=24000000
 -------------------------
 #B3PW91/6-31+G** opt freq
 -------------------------
 1/14=-1,18=20,26=3,38=1/1,3;
 2/9=110,17=6,18=5/2;
 3/5=1,6=6,7=111,11=2,25=1,30=1/1,2,3;
 4//1;
 5/5=2,38=4,42=-6/2;
 6/7=2,8=2,9=2,10=2,28=1/1;
 7//1,2,3,16;
 1/14=-1,18=20/3(1);
 99//99;
 2/9=110/2;
 3/5=1,6=6,7=111,11=2,25=1,30=1/1,2,3;
 4/5=5,16=2/1;
 5/5=2,38=4,42=-6/2;
 7//1,2,3,16;
 1/14=-1,18=20/3(-5);
 2/9=110/2;
 6/7=2,8=2,9=2,10=2,19=2,28=1/1;
 99/9=1/99;
 -------------------------------
 1H pyrazole C3H4N2 casno=288131
 -------------------------------
 Symbolic Z-matrix:
 Charge =  0 Multiplicity = 1
 H                    -1.9125    0.       -0.75938 
 C                    -1.08438   0.       -0.21875 
 H                     0.43438   0.       -1.63125 
 C                     0.15      0.       -0.68438 
 H                     1.9125    0.        0.37188 
 C                     0.92188   0.        0.375 
 N                     0.18125   0.        1.41875 
 H                    -1.74063   0.        1.63125 
 N                    -1.00313   0.        1.05313 

 GradGradGradGradGradGradGradGradGradGradGradGradGradGradGradGradGradGrad
 Berny optimization.
 Initialization pass.
                         ----------------------------
                         !    Initial Parameters    !
                         ! (Angstroms and Degrees)  !
 ------------------------                            -------------------------
 ! Name  Definition              Value          Derivative Info.             !
 -----------------------------------------------------------------------------
 ! R1    R(1,2)                  0.989          estimate D2E/DX2             !
 ! R2    R(2,4)                  1.3193         estimate D2E/DX2             !
 ! R3    R(2,9)                  1.2745         estimate D2E/DX2             !
 ! R4    R(3,4)                  0.9887         estimate D2E/DX2             !
 ! R5    R(4,6)                  1.3108         estimate D2E/DX2             !
 ! R6    R(5,6)                  0.9906         estimate D2E/DX2             !
 ! R7    R(6,7)                  1.2798         estimate D2E/DX2             !
 ! R8    R(7,9)                  1.2395         estimate D2E/DX2             !
 ! R9    R(8,9)                  0.9371         estimate D2E/DX2             !
 ! A1    A(1,2,4)              126.195          estimate D2E/DX2             !
 ! A2    A(1,2,9)              126.7929         estimate D2E/DX2             !
 ! A3    A(4,2,9)              107.012          estimate D2E/DX2             !
 ! A4    A(2,4,3)              127.3838         estimate D2E/DX2             !
 ! A5    A(2,4,6)              105.4104         estimate D2E/DX2             !
 ! A6    A(3,4,6)              127.2058         estimate D2E/DX2             !
 ! A7    A(4,6,5)              125.8968         estimate D2E/DX2             !
 ! A8    A(4,6,7)              108.5636         estimate D2E/DX2             !
 ! A9    A(5,6,7)              125.5395         estimate D2E/DX2             !
 ! A10   A(6,7,9)              108.203          estimate D2E/DX2             !
 ! A11   A(2,9,7)              110.811          estimate D2E/DX2             !
 ! A12   A(2,9,8)              124.4376         estimate D2E/DX2             !
 ! A13   A(7,9,8)              124.7513         estimate D2E/DX2             !
 ! D1    D(1,2,4,3)              0.             estimate D2E/DX2             !
 ! D2    D(1,2,4,6)            180.             estimate D2E/DX2             !
 ! D3    D(9,2,4,3)            180.             estimate D2E/DX2             !
 ! D4    D(9,2,4,6)              0.             estimate D2E/DX2             !
 ! D5    D(1,2,9,7)            180.             estimate D2E/DX2             !
 ! D6    D(1,2,9,8)              0.             estimate D2E/DX2             !
 ! D7    D(4,2,9,7)              0.             estimate D2E/DX2             !
 ! D8    D(4,2,9,8)            180.             estimate D2E/DX2             !
 ! D9    D(2,4,6,5)            180.             estimate D2E/DX2             !
 ! D10   D(2,4,6,7)              0.             estimate D2E/DX2             !
 ! D11   D(3,4,6,5)              0.             estimate D2E/DX2             !
 ! D12   D(3,4,6,7)            180.             estimate D2E/DX2             !
 ! D13   D(4,6,7,9)              0.             estimate D2E/DX2             !
 ! D14   D(5,6,7,9)            180.             estimate D2E/DX2             !
 ! D15   D(6,7,9,2)              0.             estimate D2E/DX2             !
 ! D16   D(6,7,9,8)            180.             estimate D2E/DX2             !
 -----------------------------------------------------------------------------
 Trust Radius=3.00D-01 FncErr=1.00D-07 GrdErr=1.00D-06
 Number of steps in this run=  48 maximum allowed number of steps= 100.
 GradGradGradGradGradGradGradGradGradGradGradGradGradGradGradGradGradGrad

                          Input orientation:                          
 ---------------------------------------------------------------------
 Center     Atomic     Atomic              Coordinates (Angstroms)
 Number     Number      Type              X           Y           Z
 ---------------------------------------------------------------------
    1          1             0       -1.912500     .000000    -.759375
    2          6             0       -1.084375     .000000    -.218750
    3          1             0         .434375     .000000   -1.631250
    4          6             0         .150000     .000000    -.684375
    5          1             0        1.912500     .000000     .371875
    6          6             0         .921875     .000000     .375000
    7          7             0         .181250     .000000    1.418750
    8          1             0       -1.740625     .000000    1.631250
    9          7             0       -1.003125     .000000    1.053125
 ---------------------------------------------------------------------
                    Distance matrix (angstroms):
                    1          2          3          4          5
     1  H     .000000
     2  C     .988972    .000000
     3  H    2.503595   2.074068    .000000
     4  C    2.063863   1.319276    .988656    .000000
     5  H    3.988778   3.054521   2.489450   2.054768    .000000
     6  C    3.052947   2.092266   2.064630   1.310750    .990630
     7  N    3.021261   2.069592   3.060486   2.103357   2.023159
     8  H    2.396796   1.962948   3.921037   2.989412   3.864110
     9  N    2.027836   1.274468   3.045041   2.085331   2.994156
                    6          7          8          9
     6  C     .000000
     7  N    1.279820    .000000
     8  H    2.943989   1.933587    .000000
     9  N    2.040950   1.239526    .937088    .000000
 Stoichiometry    C3H4N2
 Framework group  CS[SG(C3H4N2)]
 Deg. of freedom   15
 Full point group                 CS      NOp   2
 Largest Abelian subgroup         CS      NOp   2
 Largest concise Abelian subgroup C1      NOp   1
                         Standard orientation:                         
 ---------------------------------------------------------------------
 Center     Atomic     Atomic              Coordinates (Angstroms)
 Number     Number      Type              X           Y           Z
 ---------------------------------------------------------------------
    1          1             0        1.974407     .585689     .000000
    2          6             0        1.028833     .295936     .000000
    3          1             0        1.140941   -1.775099     .000000
    4          6             0         .595873    -.950271     .000000
    5          1             0       -1.344123   -1.627388     .000000
    6          6             0        -.712074    -.864589     .000000
    7          7             0       -1.039336     .372682     .000000
    8          1             0         .028336    1.984773     .000000
    9          7             0         .000000    1.048113     .000000
 ---------------------------------------------------------------------
 Rotational constants (GHZ):     11.1878032     10.4520048      5.4036973
 Isotopes: H-1,C-12,H-1,C-12,H-1,C-12,N-14,H-1,N-14
 Standard basis: 6-31+G(d,p) (6D, 7F)
 There are    86 symmetry adapted basis functions of A'  symmetry.
 There are    29 symmetry adapted basis functions of A"  symmetry.
 Crude estimate of integral set expansion from redundant integrals=1.000.
 Integral buffers will be    262144 words long.
 Raffenetti 2 integral format.
 Two-electron integral symmetry is turned on.
   115 basis functions      188 primitive gaussians
    18 alpha electrons       18 beta electrons
       nuclear repulsion energy       173.7391879471 Hartrees.
 One-electron integrals computed using PRISM.
 NBasis=   115 RedAO= T  NBF=    86    29
 NBsUse=   115 1.00D-04 NBFU=    86    29
 Projected INDO Guess.
 Initial guess orbital symmetries:
       Occupied  (A') (A') (A') (A') (A') (A') (A') (A') (A') (A')
                 (A') (A") (A') (A') (A') (A") (A') (A")
       Virtual   (A") (A') (A') (A") (A') (A') (A') (A') (A') (A')
                 (A') (A') (A') (A') (A') (A') (A') (A') (A') (A')
                 (A') (A') (A') (A') (A') (A') (A') (A') (A') (A')
                 (A') (A') (A') (A') (A') (A') (A') (A') (A') (A')
                 (A') (A') (A') (A') (A') (A') (A') (A') (A') (A')
                 (A') (A') (A') (A') (A') (A') (A') (A') (A') (A')
                 (A') (A') (A') (A') (A') (A') (A') (A') (A') (A')
                 (A') (A') (A') (A") (A") (A") (A") (A") (A") (A")
                 (A") (A") (A") (A") (A") (A") (A") (A") (A") (A")
                 (A") (A") (A") (A") (A") (A") (A")
 Requested convergence on RMS density matrix=1.00D-08 within  64 cycles.
 Requested convergence on MAX density matrix=1.00D-06.
 SCF Done:  E(RB+HF-PW91) =  -226.065714736     A.U. after   12 cycles
             Convg  =     .8377D-08             -V/T =  2.0014
             S**2   =    .0000

 **********************************************************************

            Population analysis using the SCF density.

 **********************************************************************

 Orbital Symmetries:
       Occupied  (A') (A') (A') (A') (A') (A') (A') (A') (A') (A')
                 (A') (A") (A') (A') (A') (A") (A') (A")
       Virtual   (A') (A") (A') (A') (A") (A') (A') (A") (A') (A")
                 (A') (A") (A') (A') (A') (A') (A") (A') (A") (A')
                 (A') (A') (A') (A') (A') (A') (A') (A') (A') (A')
                 (A') (A") (A") (A') (A') (A") (A') (A') (A') (A')
                 (A") (A') (A') (A") (A') (A') (A') (A') (A') (A')
                 (A") (A') (A') (A") (A") (A') (A") (A") (A') (A')
                 (A') (A') (A') (A') (A") (A') (A") (A') (A") (A")
                 (A') (A') (A") (A') (A") (A') (A') (A') (A') (A")
                 (A') (A") (A") (A') (A') (A') (A') (A') (A') (A')
                 (A') (A') (A') (A') (A') (A') (A')
  The electronic state is 1-A'.
 Alpha  occ. eigenvalues --  -14.40334 -14.32642 -10.18227 -10.16248 -10.13809
 Alpha  occ. eigenvalues --   -1.12783   -.85661   -.81523   -.65621   -.62973
 Alpha  occ. eigenvalues --    -.57538   -.48699   -.48403   -.44550   -.40677
 Alpha  occ. eigenvalues --    -.28034   -.28008   -.25712
 Alpha virt. eigenvalues --     .01163    .03076    .03801    .04655    .06328
 Alpha virt. eigenvalues --     .07159    .07563    .07922    .09996    .11071
 Alpha virt. eigenvalues --     .13242    .13436    .13850    .16782    .17750
 Alpha virt. eigenvalues --     .19357    .19765    .22652    .22950    .24153
 Alpha virt. eigenvalues --     .24837    .26053    .27822    .30032    .31717
 Alpha virt. eigenvalues --     .33012    .34541    .39737    .46479    .52101
 Alpha virt. eigenvalues --     .55161    .67348    .70505    .71896    .73285
 Alpha virt. eigenvalues --     .74634    .79388    .84456    .89594    .90917
 Alpha virt. eigenvalues --     .91051    .91395    .95637    .97871    .99202
 Alpha virt. eigenvalues --    1.01730   1.03461   1.05337   1.13483   1.21562
 Alpha virt. eigenvalues --    1.21963   1.26538   1.30015   1.34177   1.36864
 Alpha virt. eigenvalues --    1.39764   1.45616   1.53248   1.54719   1.59721
 Alpha virt. eigenvalues --    1.81152   1.97751   1.98169   2.04921   2.06482
 Alpha virt. eigenvalues --    2.09534   2.18470   2.23545   2.26011   2.28891
 Alpha virt. eigenvalues --    2.34733   2.40558   2.45496   2.52610   2.52818
 Alpha virt. eigenvalues --    2.53390   2.56874   2.63960   2.67770   2.71374
 Alpha virt. eigenvalues --    2.76119   2.84004   2.94440   2.98671   3.12210
 Alpha virt. eigenvalues --    3.12996   3.30523   3.48974   3.49946   3.61807
 Alpha virt. eigenvalues --    3.86008   4.04356   4.11817   4.34884   4.40198
 Alpha virt. eigenvalues --    4.59831   5.00006
          Condensed to atoms (all electrons):
              1          2          3          4          5          6
  1  H     .537372    .375979   -.002235   -.027375   -.000294    .017285
  2  C     .375979   5.119728    .006680    .590232    .024969   -.127440
  3  H    -.002235    .006680    .560075    .264682   -.002450    .023813
  4  C    -.027375    .590232    .264682   5.315482   -.085825    .158905
  5  H    -.000294    .024969   -.002450   -.085825    .565207    .428492
  6  C     .017285   -.127440    .023813    .158905    .428492   5.301850
  7  N     .010705   -.122671    .009440    .109506   -.085571    .235237
  8  H    -.001170   -.032073   -.000127   -.013798    .000092    .021044
  9  N    -.060953    .380778    .011337   -.346888    .018582    .093958
              7          8          9
  1  H     .010705   -.001170   -.060953
  2  C    -.122671   -.032073    .380778
  3  H     .009440   -.000127    .011337
  4  C     .109506   -.013798   -.346888
  5  H    -.085571    .000092    .018582
  6  C     .235237    .021044    .093958
  7  N    6.923418   -.074567    .257374
  8  H    -.074567    .421167    .367103
  9  N     .257374    .367103   6.410196
 Total atomic charges:
              1
  1  H     .150687
  2  C    -.216181
  3  H     .128786
  4  C     .035079
  5  H     .136798
  6  C    -.153144
  7  N    -.262871
  8  H     .312331
  9  N    -.131486
 Sum of Mulliken charges=    .00000
 Atomic charges with hydrogens summed into heavy atoms:
              1
  1  H     .000000
  2  C    -.065495
  3  H     .000000
  4  C     .163865
  5  H     .000000
  6  C    -.016345
  7  N    -.262871
  8  H     .000000
  9  N     .180846
 Sum of Mulliken charges=    .00000
 Electronic spatial extent (au):  <R**2>=   259.2858
 Charge=      .0000 electrons
 Dipole moment (Debye):
    X=     2.1959    Y=      .9228    Z=      .0000  Tot=     2.3819
 Quadrupole moment (Debye-Ang):
   XX=   -30.3146   YY=   -22.0365   ZZ=   -30.9484
   XY=     2.6351   XZ=      .0000   YZ=      .0000
 Octapole moment (Debye-Ang**2):
  XXX=     9.4625  YYY=    10.9289  ZZZ=      .0000  XYY=      .7116
  XXY=    -2.7057  XXZ=      .0000  XZZ=     -.6064  YZZ=     2.0055
  YYZ=      .0000  XYZ=      .0000
 Hexadecapole moment (Debye-Ang**3):
 XXXX=  -157.9496 YYYY=  -123.0910 ZZZZ=   -34.1382 XXXY=     8.1920
 XXXZ=      .0000 YYYX=      .6971 YYYZ=      .0000 ZZZX=      .0000
 ZZZY=      .0000 XXYY=   -48.7300 XXZZ=   -34.8777 YYZZ=   -34.0383
 XXYZ=      .0000 YYXZ=      .0000 ZZXY=      .0231
 N-N= 1.737391879471D+02 E-N=-8.739207538498D+02  KE= 2.257529431150D+02
 Symmetry A'   KE= 2.174944787933D+02
 Symmetry A"   KE= 8.258464321757D+00
 ***** Axes restored to original set *****
 -------------------------------------------------------------------
 Center     Atomic                   Forces (Hartrees/Bohr)
 Number     Number              X              Y              Z
 -------------------------------------------------------------------
    1          1           -.077543940     .000000000    -.039786876
    2          6           -.016466224     .000000000    -.051281362
    3          1            .022209993     .000000000    -.083696800
    4          6           -.012252196     .000000000    -.041464357
    5          1            .084376504     .000000000     .011159891
    6          6            .005904683     .000000000     .020334573
    7          7            .085797130     .000000000     .134734473
    8          1           -.057917666     .000000000     .059448368
    9          7           -.034108284     .000000000    -.009447911
 -------------------------------------------------------------------
 Cartesian Forces:  Max      .134734473 RMS      .047614519

 GradGradGradGradGradGradGradGradGradGradGradGradGradGradGradGradGradGrad
 Berny optimization.
 Internal  Forces:  Max      .126398061 RMS      .047466668
 Search for a local minimum.
 Step number   1 out of a maximum of  48
 All quantities printed in internal units (Hartrees-Bohrs-Radians)
 Second derivative matrix not updated -- first step.
     Eigenvalues ---     .03204    .03245    .03263    .03273    .03342
     Eigenvalues ---     .03375    .16000    .16000    .16000    .16000
     Eigenvalues ---     .22000    .22938    .49374    .49681    .49740
     Eigenvalues ---     .56490    .56686    .60708    .68179    .73042
     Eigenvalues ---     .827791000.000001000.000001000.000001000.00000
     Eigenvalues --- 1000.000001000.000001000.000001000.000001000.00000
     Eigenvalues --- 1000.000001000.000001000.000001000.000001000.00000
     Eigenvalues --- 1000.000001000.000001000.00000
 RFO step:  Lambda=-1.16857669D-01.
 Linear search not attempted -- first point.
 Maximum step size (    .300) exceeded in Quadratic search.
    -- Step size scaled by    .727
 Iteration  1 RMS(Cart)=   .06336968 RMS(Int)=   .00071984
 Iteration  2 RMS(Cart)=   .00090693 RMS(Int)=   .00001932
 Iteration  3 RMS(Cart)=   .00000060 RMS(Int)=   .00001931
 Variable       Old X    -DE/DX   Delta X   Delta X   Delta X     New X
                                 (Linear)    (Quad)   (Total)
    R1        1.86889    .08668    .00000    .10271    .10271   1.97160
    R2        2.49307    .07977    .00000    .07709    .07712   2.57019
    R3        2.40839    .11039    .00000    .09444    .09443   2.50282
    R4        1.86829    .08655    .00000    .10246    .10246   1.97075
    R5        2.47696    .12640    .00000    .11827    .11829   2.59525
    R6        1.87202    .08434    .00000    .10044    .10044   1.97246
    R7        2.41851    .07399    .00000    .06333    .06331   2.48182
    R8        2.34237    .12056    .00000    .09065    .09061   2.43297
    R9        1.77084    .08226    .00000    .08262    .08262   1.85346
    A1        2.20252    .01336    .00000    .03303    .03302   2.23554
    A2        2.21295   -.00361    .00000   -.01154   -.01155   2.20140
    A3        1.86771   -.00975    .00000   -.02149   -.02147   1.84624
    A4        2.22327   -.00258    .00000   -.00207   -.00210   2.22117
    A5        1.83976   -.00009    .00000   -.00964   -.00958   1.83017
    A6        2.22016    .00267    .00000    .01171    .01168   2.23185
    A7        2.19731    .00179    .00000    .01215    .01214   2.20946
    A8        1.89479    .01780    .00000    .03185    .03186   1.92666
    A9        2.19108   -.01959    .00000   -.04400   -.04400   2.14707
   A10        1.88850   -.02443    .00000   -.04342   -.04347   1.84502
   A11        1.93402    .01647    .00000    .04270    .04267   1.97668
   A12        2.17185    .00156    .00000    .00437    .00439   2.17624
   A13        2.17732   -.01803    .00000   -.04708   -.04706   2.13026
    D1         .00000    .00000    .00000    .00000    .00000    .00000
    D2        3.14159    .00000    .00000    .00000    .00000   3.14159
    D3        3.14159    .00000    .00000    .00000    .00000   3.14159
    D4         .00000    .00000    .00000    .00000    .00000    .00000
    D5        3.14159    .00000    .00000    .00000    .00000   3.14159
    D6         .00000    .00000    .00000    .00000    .00000    .00000
    D7         .00000    .00000    .00000    .00000    .00000    .00000
    D8        3.14159    .00000    .00000    .00000    .00000   3.14159
    D9        3.14159    .00000    .00000    .00000    .00000   3.14159
   D10         .00000    .00000    .00000    .00000    .00000    .00000
   D11         .00000    .00000    .00000    .00000    .00000    .00000
   D12        3.14159    .00000    .00000    .00000    .00000   3.14159
   D13         .00000    .00000    .00000    .00000    .00000    .00000
   D14        3.14159    .00000    .00000    .00000    .00000   3.14159
   D15         .00000    .00000    .00000    .00000    .00000    .00000
   D16        3.14159    .00000    .00000    .00000    .00000   3.14159
         Item               Value     Threshold  Converged?
 Maximum Force             .126398      .000450     NO 
 RMS     Force             .047467      .000300     NO 
 Maximum Displacement      .180394      .001800     NO 
 RMS     Displacement      .063335      .001200     NO 
 Predicted change in Energy=-2.563595D-02
 GradGradGradGradGradGradGradGradGradGradGradGradGradGradGradGradGradGrad

                          Input orientation:                          
 ---------------------------------------------------------------------
 Center     Atomic     Atomic              Coordinates (Angstroms)
 Number     Number      Type              X           Y           Z
 ---------------------------------------------------------------------
    1          1             0       -1.809783     .000000   -1.178057
    2          6             0        -.920104     .000000    -.633080
    3          1             0         .656613     .000000   -2.105838
    4          6             0         .354488     .000000   -1.107686
    5          1             0        2.191294     .000000     .037197
    6          6             0        1.147785     .000000     .013371
    7          7             0         .407195     .000000    1.097967
    8          1             0       -1.571589     .000000    1.308646
    9          7             0        -.812931     .000000     .687012
 ---------------------------------------------------------------------
                    Distance matrix (angstroms):
                    1          2          3          4          5
     1  H     .000000
     2  C    1.043326    .000000
     3  H    2.635126   2.157557    .000000
     4  C    2.165415   1.360087   1.042875    .000000
     5  H    4.181562   3.182777   2.635876   2.164396    .000000
     6  C    3.188528   2.166579   2.175384   1.373349   1.043782
     7  N    3.177307   2.181341   3.213499   2.206282   2.075631
     8  H    2.498085   2.048104   4.077203   3.090053   3.971885
     9  N    2.114757   1.324436   3.155879   2.140983   3.073700
                    6          7          8          9
     6  C     .000000
     7  N    1.313324    .000000
     8  H    3.012097   1.989968    .000000
     9  N    2.073210   1.287475    .980811    .000000
 Stoichiometry    C3H4N2
 Framework group  CS[SG(C3H4N2)]
 Deg. of freedom   15
 Full point group                 CS      NOp   2
 Largest Abelian subgroup         CS      NOp   2
 Largest concise Abelian subgroup C1      NOp   1
                         Standard orientation:                         
 ---------------------------------------------------------------------
 Center     Atomic     Atomic              Coordinates (Angstroms)
 Number     Number      Type              X           Y           Z
 ---------------------------------------------------------------------
    1          1             0        2.070502     .633082     .000000
    2          6             0        1.081928     .299540     .000000
    3          1             0        1.201670   -1.854692     .000000
    4          6             0         .629203    -.982987     .000000
    5          1             0       -1.426929   -1.658956     .000000
    6          6             0        -.739758    -.873287     .000000
    7          7             0       -1.097521     .390369     .000000
    8          1             0         .009164    2.044220     .000000
    9          7             0         .000000    1.063452     .000000
 ---------------------------------------------------------------------
 Rotational constants (GHZ):     10.1268860      9.9592356      5.0211806
 Isotopes: H-1,C-12,H-1,C-12,H-1,C-12,N-14,H-1,N-14
 Standard basis: 6-31+G(d,p) (6D, 7F)
 There are    86 symmetry adapted basis functions of A'  symmetry.
 There are    29 symmetry adapted basis functions of A"  symmetry.
 Crude estimate of integral set expansion from redundant integrals=1.000.
 Integral buffers will be    262144 words long.
 Raffenetti 2 integral format.
 Two-electron integral symmetry is turned on.
   115 basis functions      188 primitive gaussians
    18 alpha electrons       18 beta electrons
       nuclear repulsion energy       167.3730351217 Hartrees.
 One-electron integrals computed using PRISM.
 NBasis=   115 RedAO= T  NBF=    86    29
 NBsUse=   115 1.00D-04 NBFU=    86    29
 Initial guess read from the read-write file:
 Initial guess orbital symmetries:
       Occupied  (A') (A') (A') (A') (A') (A') (A') (A') (A') (A')
                 (A') (A") (A') (A') (A') (A") (A') (A")
       Virtual   (A') (A") (A') (A') (A") (A') (A') (A") (A') (A")
                 (A') (A") (A') (A') (A') (A') (A") (A') (A") (A')
                 (A') (A') (A') (A') (A') (A') (A') (A') (A') (A')
                 (A') (A") (A") (A') (A') (A") (A') (A') (A') (A')
                 (A") (A') (A') (A") (A') (A') (A') (A') (A') (A')
                 (A") (A') (A') (A") (A") (A') (A") (A") (A') (A')
                 (A') (A') (A') (A') (A") (A') (A") (A') (A") (A")
                 (A') (A') (A") (A') (A") (A') (A') (A') (A') (A")
                 (A') (A") (A") (A') (A') (A') (A') (A') (A') (A')
                 (A') (A') (A') (A') (A') (A') (A')
 Requested convergence on RMS density matrix=1.00D-08 within  64 cycles.
 Requested convergence on MAX density matrix=1.00D-06.
 SCF Done:  E(RB+HF-PW91) =  -226.121708193     A.U. after   11 cycles
             Convg  =     .8222D-08             -V/T =  2.0065
             S**2   =    .0000
 ***** Axes restored to original set *****
 -------------------------------------------------------------------
 Center     Atomic                   Forces (Hartrees/Bohr)
 Number     Number              X              Y              Z
 -------------------------------------------------------------------
    1          1           -.029116425     .000000000    -.009468089
    2          6            .003066396     .000000000    -.020862765
    3          1            .007977086     .000000000    -.029053999
    4          6           -.003212841     .000000000    -.010639633
    5          1            .029716164     .000000000     .006999233
    6          6           -.000767210     .000000000     .000531069
    7          7            .039416324     .000000000     .048411660
    8          1           -.017062707     .000000000     .022499866
    9          7           -.030016787     .000000000    -.008417342
 -------------------------------------------------------------------
 Cartesian Forces:  Max      .048411660 RMS      .018270444

 GradGradGradGradGradGradGradGradGradGradGradGradGradGradGradGradGradGrad
 Berny optimization.
 Internal  Forces:  Max      .050502649 RMS      .016794678
 Search for a local minimum.
 Step number   2 out of a maximum of  48
 All quantities printed in internal units (Hartrees-Bohrs-Radians)
 Update second derivatives using information from points  1  2
 Trust test= 2.18D+00 RLast= 3.00D-01 DXMaxT set to 4.24D-01
     Eigenvalues ---     .03204    .03247    .03260    .03273    .03342
     Eigenvalues ---     .03374    .15891    .16000    .16000    .16021
     Eigenvalues ---     .22016    .23550    .49450    .49711    .51166
     Eigenvalues ---     .57125    .58149    .61605    .68519    .73719
     Eigenvalues ---     .809911000.000001000.000001000.000001000.00000
     Eigenvalues --- 1000.000001000.000001000.000001000.000001000.00000
     Eigenvalues --- 1000.000001000.000001000.000001000.000001000.00000
     Eigenvalues --- 1000.000001000.000001000.00000
 RFO step:  Lambda=-2.24881089D-03.
 Quartic linear search produced a step of   .69332.
 Iteration  1 RMS(Cart)=   .05128238 RMS(Int)=   .00120805
 Iteration  2 RMS(Cart)=   .00141135 RMS(Int)=   .00002118
 Iteration  3 RMS(Cart)=   .00000209 RMS(Int)=   .00002110
 Iteration  4 RMS(Cart)=   .00000000 RMS(Int)=   .00002110
 Variable       Old X    -DE/DX   Delta X   Delta X   Delta X     New X
                                 (Linear)    (Quad)   (Total)
    R1        1.97160    .02977    .07121    .00204    .07326   2.04486
    R2        2.57019    .02768    .05347   -.00169    .05177   2.62196
    R3        2.50282    .03607    .06547   -.00622    .05921   2.56203
    R4        1.97075    .03012    .07104    .00335    .07438   2.04513
    R5        2.59525    .04056    .08202   -.01147    .07057   2.66583
    R6        1.97246    .02987    .06964    .00517    .07480   2.04727
    R7        2.48182    .02525    .04390   -.00215    .04178   2.52360
    R8        2.43297    .05050    .06282    .01489    .07770   2.51067
    R9        1.85346    .02746    .05728   -.00295    .05434   1.90780
    A1        2.23554    .00736    .02289    .04357    .06649   2.30203
    A2        2.20140   -.00673   -.00801   -.05814   -.06612   2.13529
    A3        1.84624   -.00063   -.01489    .01457   -.00037   1.84587
    A4        2.22117   -.00123   -.00146    .00144   -.00002   2.22115
    A5        1.83017    .00090   -.00664   -.00512   -.01175   1.81842
    A6        2.23185    .00033    .00810    .00368    .01177   2.24362
    A7        2.20946    .00304    .00842    .03459    .04298   2.25243
    A8        1.92666    .00638    .02209    .00377    .02592   1.95257
    A9        2.14707   -.00941   -.03051   -.03835   -.06889   2.07818
   A10        1.84502   -.00779   -.03014    .00407   -.02604   1.81899
   A11        1.97668    .00114    .02958   -.01729    .01225   1.98893
   A12        2.17624    .00554    .00304    .04633    .04940   2.22564
   A13        2.13026   -.00669   -.03263   -.02905   -.06165   2.06861
    D1         .00000    .00000    .00000    .00000    .00000    .00000
    D2        3.14159    .00000    .00000    .00000    .00000   3.14159
    D3        3.14159    .00000    .00000    .00000    .00000   3.14159
    D4         .00000    .00000    .00000    .00000    .00000    .00000
    D5        3.14159    .00000    .00000    .00000    .00000   3.14159
    D6         .00000    .00000    .00000    .00000    .00000    .00000
    D7         .00000    .00000    .00000    .00000    .00000    .00000
    D8        3.14159    .00000    .00000    .00000    .00000   3.14159
    D9        3.14159    .00000    .00000    .00000    .00000   3.14159
   D10         .00000    .00000    .00000    .00000    .00000    .00000
   D11         .00000    .00000    .00000    .00000    .00000    .00000
   D12        3.14159    .00000    .00000    .00000    .00000   3.14159
   D13         .00000    .00000    .00000    .00000    .00000    .00000
   D14        3.14159    .00000    .00000    .00000    .00000   3.14159
   D15         .00000    .00000    .00000    .00000    .00000    .00000
   D16        3.14159    .00000    .00000    .00000    .00000   3.14159
         Item               Value     Threshold  Converged?
 Maximum Force             .050503      .000450     NO 
 RMS     Force             .016795      .000300     NO 
 Maximum Displacement      .156041      .001800     NO 
 RMS     Displacement      .051266      .001200     NO 
 Predicted change in Energy=-1.440349D-02
 GradGradGradGradGradGradGradGradGradGradGradGradGradGradGradGradGradGrad

                          Input orientation:                          
 ---------------------------------------------------------------------
 Center     Atomic     Atomic              Coordinates (Angstroms)
 Number     Number      Type              X           Y           Z
 ---------------------------------------------------------------------
    1          1             0       -1.895673     .000000   -1.178174
    2          6             0        -.938911     .000000    -.672675
    3          1             0         .679350     .000000   -2.187890
    4          6             0         .362779     .000000   -1.152990
    5          1             0        2.240476     .000000     .097547
    6          6             0        1.160619     .000000     .010414
    7          7             0         .419967     .000000    1.121635
    8          1             0       -1.582793     .000000    1.354630
    9          7             0        -.832695     .000000     .678927
 ---------------------------------------------------------------------
                    Distance matrix (angstroms):
                    1          2          3          4          5
     1  H     .000000
     2  C    1.082092    .000000
     3  H    2.765912   2.216900    .000000
     4  C    2.258592   1.387480   1.082236    .000000
     5  H    4.328416   3.271352   2.767731   2.256012    .000000
     6  C    3.279278   2.207858   2.250369   1.410694   1.083366
     7  N    3.263634   2.250799   3.319674   2.275344   2.088782
     8  H    2.552055   2.127098   4.203182   3.173864   4.024630
     9  N    2.139800   1.355769   3.241129   2.187482   3.127680
                    6          7          8          9
     6  C     .000000
     7  N    1.335432    .000000
     8  H    3.055034   2.016268    .000000
     9  N    2.102430   1.328590   1.009565    .000000
 Stoichiometry    C3H4N2
 Framework group  CS[SG(C3H4N2)]
 Deg. of freedom   15
 Full point group                 CS      NOp   2
 Largest Abelian subgroup         CS      NOp   2
 Largest concise Abelian subgroup C1      NOp   1
                         Standard orientation:                         
 ---------------------------------------------------------------------
 Center     Atomic     Atomic              Coordinates (Angstroms)
 Number     Number      Type              X           Y           Z
 ---------------------------------------------------------------------
    1          1             0        2.109956     .723074     .000000
    2          6             0        1.112297     .304029     .000000
    3          1             0        1.257278   -1.908125     .000000
    4          6             0         .657991   -1.006966     .000000
    5          1             0       -1.499791   -1.665423     .000000
    6          6             0        -.747494    -.885851     .000000
    7          7             0       -1.136799     .391577     .000000
    8          1             0        -.046612    2.087698     .000000
    9          7             0         .000000    1.079210     .000000
 ---------------------------------------------------------------------
 Rotational constants (GHZ):      9.6924720      9.4412942      4.7826172
 Isotopes: H-1,C-12,H-1,C-12,H-1,C-12,N-14,H-1,N-14
 Standard basis: 6-31+G(d,p) (6D, 7F)
 There are    86 symmetry adapted basis functions of A'  symmetry.
 There are    29 symmetry adapted basis functions of A"  symmetry.
 Crude estimate of integral set expansion from redundant integrals=1.000.
 Integral buffers will be    262144 words long.
 Raffenetti 2 integral format.
 Two-electron integral symmetry is turned on.
   115 basis functions      188 primitive gaussians
    18 alpha electrons       18 beta electrons
       nuclear repulsion energy       163.2742940886 Hartrees.
 One-electron integrals computed using PRISM.
 NBasis=   115 RedAO= T  NBF=    86    29
 NBsUse=   115 1.00D-04 NBFU=    86    29
 Initial guess read from the read-write file:
 Initial guess orbital symmetries:
       Occupied  (A') (A') (A') (A') (A') (A') (A') (A') (A') (A')
                 (A') (A") (A') (A') (A') (A') (A") (A")
       Virtual   (A') (A") (A') (A') (A") (A') (A') (A") (A') (A")
                 (A') (A") (A') (A') (A') (A') (A") (A') (A') (A")
                 (A') (A') (A') (A') (A') (A') (A') (A') (A') (A')
                 (A') (A") (A') (A") (A') (A") (A') (A') (A') (A')
                 (A') (A") (A') (A") (A') (A') (A') (A') (A') (A')
                 (A") (A') (A') (A") (A") (A') (A") (A") (A') (A')
                 (A') (A') (A') (A') (A") (A') (A") (A') (A") (A')
                 (A") (A') (A") (A") (A') (A') (A') (A') (A') (A")
                 (A') (A") (A") (A') (A') (A') (A') (A') (A') (A')
                 (A') (A') (A') (A') (A') (A') (A')
 Requested convergence on RMS density matrix=1.00D-08 within  64 cycles.
 Requested convergence on MAX density matrix=1.00D-06.
 SCF Done:  E(RB+HF-PW91) =  -226.132441194     A.U. after   11 cycles
             Convg  =     .6680D-08             -V/T =  2.0095
             S**2   =    .0000
 ***** Axes restored to original set *****
 -------------------------------------------------------------------
 Center     Atomic                   Forces (Hartrees/Bohr)
 Number     Number              X              Y              Z
 -------------------------------------------------------------------
    1          1            .000867317     .000000000     .000976966
    2          6            .003841402     .000000000    -.002539021
    3          1           -.000367255     .000000000     .001659318
    4          6           -.004056480     .000000000     .001004303
    5          1           -.001141798     .000000000    -.000877312
    6          6            .002089453     .000000000     .002871964
    7          7            .010740838     .000000000    -.000816961
    8          1            .000593268     .000000000    -.001655120
    9          7           -.012566744     .000000000    -.000624137
 -------------------------------------------------------------------
 Cartesian Forces:  Max      .012566744 RMS      .003524444

 GradGradGradGradGradGradGradGradGradGradGradGradGradGradGradGradGradGrad
 Berny optimization.
 Internal  Forces:  Max      .009923336 RMS      .001993449
 Search for a local minimum.
 Step number   3 out of a maximum of  48
 All quantities printed in internal units (Hartrees-Bohrs-Radians)
 Update second derivatives using information from points  1  2  3
 Trust test= 7.45D-01 RLast= 2.49D-01 DXMaxT set to 4.24D-01
     Eigenvalues ---     .03203    .03248    .03251    .03273    .03342
     Eigenvalues ---     .03372    .15283    .16000    .16003    .16025
     Eigenvalues ---     .22054    .23419    .46846    .49521    .49716
     Eigenvalues ---     .57279    .58477    .60142    .66961    .69153
     Eigenvalues ---     .809581000.000001000.000001000.000001000.00000
     Eigenvalues --- 1000.000001000.000001000.000001000.000001000.00000
     Eigenvalues --- 1000.000001000.000001000.000001000.000001000.00000
     Eigenvalues --- 1000.000001000.000001000.00000
 RFO step:  Lambda=-2.42555905D-04.
 Quartic linear search produced a step of  -.00659.
 Iteration  1 RMS(Cart)=   .00443197 RMS(Int)=   .00001055
 Iteration  2 RMS(Cart)=   .00001080 RMS(Int)=   .00000201
 Iteration  3 RMS(Cart)=   .00000000 RMS(Int)=   .00000201
 Variable       Old X    -DE/DX   Delta X   Delta X   Delta X     New X
                                 (Linear)    (Quad)   (Total)
    R1        2.04486   -.00122   -.00048   -.00108   -.00156   2.04330
    R2        2.62196   -.00332   -.00034   -.00532   -.00566   2.61630
    R3        2.56203   -.00085   -.00039    .00056    .00017   2.56220
    R4        2.04513   -.00169   -.00049   -.00201   -.00250   2.04263
    R5        2.66583    .00064   -.00047    .00137    .00091   2.66673
    R6        2.04727   -.00121   -.00049   -.00107   -.00157   2.04570
    R7        2.52360   -.00242   -.00028   -.00223   -.00251   2.52109
    R8        2.51067    .00992   -.00051    .01350    .01299   2.52366
    R9        1.90780   -.00155   -.00036   -.00147   -.00183   1.90598
    A1        2.30203    .00005   -.00044    .00246    .00202   2.30405
    A2        2.13529   -.00090    .00044   -.00452   -.00409   2.13120
    A3        1.84587    .00086    .00000    .00206    .00207   1.84794
    A4        2.22115   -.00121    .00000   -.00223   -.00223   2.21892
    A5        1.81842    .00268    .00008    .00586    .00593   1.82435
    A6        2.24362   -.00147   -.00008   -.00363   -.00371   2.23991
    A7        2.25243   -.00045   -.00028   -.00195   -.00223   2.25020
    A8        1.95257   -.00072   -.00017   -.00498   -.00516   1.94741
    A9        2.07818    .00117    .00045    .00693    .00739   2.08557
   A10        1.81899   -.00016    .00017    .00418    .00435   1.82333
   A11        1.98893   -.00266   -.00008   -.00711   -.00719   1.98174
   A12        2.22564    .00054   -.00033   -.00078   -.00111   2.22453
   A13        2.06861    .00212    .00041    .00789    .00830   2.07691
    D1         .00000    .00000    .00000    .00000    .00000    .00000
    D2        3.14159    .00000    .00000    .00000    .00000   3.14159
    D3        3.14159    .00000    .00000    .00000    .00000   3.14159
    D4         .00000    .00000    .00000    .00000    .00000    .00000
    D5        3.14159    .00000    .00000    .00000    .00000   3.14159
    D6         .00000    .00000    .00000    .00000    .00000    .00000
    D7         .00000    .00000    .00000    .00000    .00000    .00000
    D8        3.14159    .00000    .00000    .00000    .00000   3.14159
    D9        3.14159    .00000    .00000    .00000    .00000   3.14159
   D10         .00000    .00000    .00000    .00000    .00000    .00000
   D11         .00000    .00000    .00000    .00000    .00000    .00000
   D12        3.14159    .00000    .00000    .00000    .00000   3.14159
   D13         .00000    .00000    .00000    .00000    .00000    .00000
   D14        3.14159    .00000    .00000    .00000    .00000   3.14159
   D15         .00000    .00000    .00000    .00000    .00000    .00000
   D16        3.14159    .00000    .00000    .00000    .00000   3.14159
         Item               Value     Threshold  Converged?
 Maximum Force             .009923      .000450     NO 
 RMS     Force             .001993      .000300     NO 
 Maximum Displacement      .013139      .001800     NO 
 RMS     Displacement      .004431      .001200     NO 
 Predicted change in Energy=-1.217030D-04
 GradGradGradGradGradGradGradGradGradGradGradGradGradGradGradGradGradGrad

                          Input orientation:                          
 ---------------------------------------------------------------------
 Center     Atomic     Atomic              Coordinates (Angstroms)
 Number     Number      Type              X           Y           Z
 ---------------------------------------------------------------------
    1          1             0       -1.895729     .000000   -1.171772
    2          6             0        -.939599     .000000    -.666842
    3          1             0         .675926     .000000   -2.177511
    4          6             0         .360157     .000000   -1.143748
    5          1             0        2.242600     .000000     .096994
    6          6             0        1.163040     .000000     .016763
    7          7             0         .421958     .000000    1.126099
    8          1             0       -1.591390     .000000    1.356553
    9          7             0        -.838642     .000000     .685253
 ---------------------------------------------------------------------
                    Distance matrix (angstroms):
                    1          2          3          4          5
     1  H     .000000
     2  C    1.081267    .000000
     3  H    2.761326   2.211796    .000000
     4  C    2.256060   1.384487   1.080914    .000000
     5  H    4.328456   3.272589   2.761854   2.254559    .000000
     6  C    3.281567   2.210975   2.247691   1.411173   1.082537
     7  N    3.263723   2.251328   3.313357   2.270689   2.091362
     8  H    2.546576   2.125785   4.198849   3.171757   4.035588
     9  N    2.136814   1.355860   3.238724   2.186862   3.136894
                    6          7          8          9
     6  C     .000000
     7  N    1.334102    .000000
     8  H    3.062993   2.026495    .000000
     9  N    2.110358   1.335462   1.008599    .000000
 Stoichiometry    C3H4N2
 Framework group  CS[SG(C3H4N2)]
 Deg. of freedom   15
 Full point group                 CS      NOp   2
 Largest Abelian subgroup         CS      NOp   2
 Largest concise Abelian subgroup C1      NOp   1
                         Standard orientation:                         
 ---------------------------------------------------------------------
 Center     Atomic     Atomic              Coordinates (Angstroms)
 Number     Number      Type              X           Y           Z
 ---------------------------------------------------------------------
    1          1             0        2.107118     .727978     .000000
    2          6             0        1.111424     .306395     .000000
    3          1             0        1.260528   -1.900369     .000000
    4          6             0         .659207   -1.002155     .000000
    5          1             0       -1.492218   -1.676251     .000000
    6          6             0        -.747545    -.890536     .000000
    7          7             0       -1.138532     .384986     .000000
    8          1             0        -.044223    2.090615     .000000
    9          7             0         .000000    1.082986     .000000
 ---------------------------------------------------------------------
 Rotational constants (GHZ):      9.6479925      9.4670447      4.7783311
 Isotopes: H-1,C-12,H-1,C-12,H-1,C-12,N-14,H-1,N-14
 Standard basis: 6-31+G(d,p) (6D, 7F)
 There are    86 symmetry adapted basis functions of A'  symmetry.
 There are    29 symmetry adapted basis functions of A"  symmetry.
 Crude estimate of integral set expansion from redundant integrals=1.000.
 Integral buffers will be    262144 words long.
 Raffenetti 2 integral format.
 Two-electron integral symmetry is turned on.
   115 basis functions      188 primitive gaussians
    18 alpha electrons       18 beta electrons
       nuclear repulsion energy       163.1914297499 Hartrees.
 One-electron integrals computed using PRISM.
 NBasis=   115 RedAO= T  NBF=    86    29
 NBsUse=   115 1.00D-04 NBFU=    86    29
 Initial guess read from the read-write file:
 Initial guess orbital symmetries:
       Occupied  (A') (A') (A') (A') (A') (A') (A') (A') (A') (A')
                 (A') (A') (A") (A') (A') (A') (A") (A")
       Virtual   (A") (A') (A') (A') (A") (A') (A') (A") (A') (A")
                 (A') (A") (A') (A') (A') (A') (A") (A') (A') (A")
                 (A') (A') (A') (A') (A') (A') (A') (A') (A') (A')
                 (A') (A') (A") (A") (A') (A") (A') (A') (A') (A')
                 (A') (A") (A') (A') (A") (A') (A') (A') (A') (A')
                 (A') (A") (A') (A") (A") (A') (A") (A") (A') (A')
                 (A') (A') (A') (A') (A') (A") (A') (A") (A") (A')
                 (A") (A') (A") (A') (A") (A') (A') (A') (A") (A')
                 (A") (A') (A") (A') (A') (A') (A') (A') (A') (A')
                 (A') (A') (A') (A') (A') (A') (A')
 Requested convergence on RMS density matrix=1.00D-08 within  64 cycles.
 Requested convergence on MAX density matrix=1.00D-06.
 SCF Done:  E(RB+HF-PW91) =  -226.132593528     A.U. after   10 cycles
             Convg  =     .2352D-08             -V/T =  2.0095
             S**2   =    .0000
 ***** Axes restored to original set *****
 -------------------------------------------------------------------
 Center     Atomic                   Forces (Hartrees/Bohr)
 Number     Number              X              Y              Z
 -------------------------------------------------------------------
    1          1            .000488767     .000000000     .000289978
    2          6            .002304586     .000000000    -.000928788
    3          1           -.000129362     .000000000     .000585808
    4          6           -.001918781     .000000000    -.000817095
    5          1           -.000733974     .000000000    -.000205078
    6          6           -.001809988     .000000000     .001937309
    7          7            .005869698     .000000000     .001161337
    8          1            .000846203     .000000000    -.000452457
    9          7           -.004917149     .000000000    -.001571014
 -------------------------------------------------------------------
 Cartesian Forces:  Max      .005869698 RMS      .001744677

 GradGradGradGradGradGradGradGradGradGradGradGradGradGradGradGradGradGrad
 Berny optimization.
 Internal  Forces:  Max      .004042651 RMS      .000956899
 Search for a local minimum.
 Step number   4 out of a maximum of  48
 All quantities printed in internal units (Hartrees-Bohrs-Radians)
 Update second derivatives using information from points  1  2  3  4
 Trust test= 1.25D+00 RLast= 2.30D-02 DXMaxT set to 4.24D-01
     Eigenvalues ---     .03203    .03248    .03251    .03273    .03342
     Eigenvalues ---     .03373    .15238    .15496    .16003    .16201
     Eigenvalues ---     .21953    .31661    .37684    .47034    .49565
     Eigenvalues ---     .49760    .57425    .60277    .61284    .70781
     Eigenvalues ---     .742891000.000001000.000001000.000001000.00000
     Eigenvalues --- 1000.000001000.000001000.000001000.000001000.00000
     Eigenvalues --- 1000.000001000.000001000.000001000.000001000.00000
     Eigenvalues --- 1000.000001000.000001000.00000
 RFO step:  Lambda=-8.11880046D-05.
 Quartic linear search produced a step of   .36230.
 Iteration  1 RMS(Cart)=   .00271234 RMS(Int)=   .00000583
 Iteration  2 RMS(Cart)=   .00000622 RMS(Int)=   .00000121
 Iteration  3 RMS(Cart)=   .00000000 RMS(Int)=   .00000121
 Variable       Old X    -DE/DX   Delta X   Delta X   Delta X     New X
                                 (Linear)    (Quad)   (Total)
    R1        2.04330   -.00057   -.00056   -.00092   -.00149   2.04181
    R2        2.61630   -.00243   -.00205   -.00531   -.00736   2.60894
    R3        2.56220   -.00011    .00006    .00066    .00072   2.56292
    R4        2.04263   -.00060   -.00090   -.00098   -.00189   2.04074
    R5        2.66673    .00062    .00033    .00123    .00156   2.66829
    R6        2.04570   -.00075   -.00057   -.00143   -.00199   2.04370
    R7        2.52109   -.00191   -.00091   -.00312   -.00403   2.51705
    R8        2.52366    .00404    .00470    .00718    .01188   2.53554
    R9        1.90598   -.00093   -.00066   -.00161   -.00227   1.90371
    A1        2.30405   -.00016    .00073   -.00011    .00063   2.30468
    A2        2.13120   -.00023   -.00148   -.00153   -.00301   2.12818
    A3        1.84794    .00039    .00075    .00164    .00239   1.85032
    A4        2.21892   -.00003   -.00081    .00173    .00092   2.21984
    A5        1.82435    .00014    .00215   -.00286   -.00071   1.82364
    A6        2.23991   -.00011   -.00134    .00114   -.00021   2.23970
    A7        2.25020   -.00087   -.00081   -.00457   -.00538   2.24482
    A8        1.94741    .00141   -.00187    .00712    .00526   1.95267
    A9        2.08557   -.00054    .00268   -.00255    .00012   2.08569
   A10        1.82333   -.00172    .00158   -.00729   -.00571   1.81762
   A11        1.98174   -.00021   -.00261    .00139   -.00122   1.98052
   A12        2.22453    .00033   -.00040    .00157    .00117   2.22570
   A13        2.07691   -.00012    .00301   -.00295    .00005   2.07696
    D1         .00000    .00000    .00000    .00000    .00000    .00000
    D2        3.14159    .00000    .00000    .00000    .00000   3.14159
    D3        3.14159    .00000    .00000    .00000    .00000   3.14159
    D4         .00000    .00000    .00000    .00000    .00000    .00000
    D5        3.14159    .00000    .00000    .00000    .00000   3.14159
    D6         .00000    .00000    .00000    .00000    .00000    .00000
    D7         .00000    .00000    .00000    .00000    .00000    .00000
    D8        3.14159    .00000    .00000    .00000    .00000   3.14159
    D9        3.14159    .00000    .00000    .00000    .00000   3.14159
   D10         .00000    .00000    .00000    .00000    .00000    .00000
   D11         .00000    .00000    .00000    .00000    .00000    .00000
   D12        3.14159    .00000    .00000    .00000    .00000   3.14159
   D13         .00000    .00000    .00000    .00000    .00000    .00000
   D14        3.14159    .00000    .00000    .00000    .00000   3.14159
   D15         .00000    .00000    .00000    .00000    .00000    .00000
   D16        3.14159    .00000    .00000    .00000    .00000   3.14159
         Item               Value     Threshold  Converged?
 Maximum Force             .004043      .000450     NO 
 RMS     Force             .000957      .000300     NO 
 Maximum Displacement      .008132      .001800     NO 
 RMS     Displacement      .002712      .001200     NO 
 Predicted change in Energy=-5.241343D-05
 GradGradGradGradGradGradGradGradGradGradGradGradGradGradGradGradGradGrad

                          Input orientation:                          
 ---------------------------------------------------------------------
 Center     Atomic     Atomic              Coordinates (Angstroms)
 Number     Number      Type              X           Y           Z
 ---------------------------------------------------------------------
    1          1             0       -1.893650     .000000   -1.172393
    2          6             0        -.937915     .000000    -.668404
    3          1             0         .674650     .000000   -2.176441
    4          6             0         .358197     .000000   -1.143933
    5          1             0        2.239561     .000000     .092994
    6          6             0        1.160693     .000000     .017849
    7          7             0         .425811     .000000    1.128744
    8          1             0       -1.592882     .000000    1.353873
    9          7             0        -.840196     .000000     .684311
 ---------------------------------------------------------------------
                    Distance matrix (angstroms):
                    1          2          3          4          5
     1  H     .000000
     2  C    1.080479    .000000
     3  H    2.757585   2.207837    .000000
     4  C    2.252027   1.380592   1.079915    .000000
     5  H    4.322572   3.267427   2.756679   2.251559    .000000
     6  C    3.278061   2.207963   2.247476   1.411998   1.081481
     7  N    3.267282   2.255989   3.314539   2.273682   2.088651
     8  H    2.544107   2.125696   4.195810   3.169503   4.034531
     9  N    2.134740   1.356239   3.237076   2.186006   3.136009
                    6          7          8          9
     6  C     .000000
     7  N    1.331968    .000000
     8  H    3.060578   2.031208    .000000
     9  N    2.108964   1.341750   1.007398    .000000
 Stoichiometry    C3H4N2
 Framework group  CS[SG(C3H4N2)]
 Deg. of freedom   15
 Full point group                 CS      NOp   2
 Largest Abelian subgroup         CS      NOp   2
 Largest concise Abelian subgroup C1      NOp   1
                         Standard orientation:                         
 ---------------------------------------------------------------------
 Center     Atomic     Atomic              Coordinates (Angstroms)
 Number     Number      Type              X           Y           Z
 ---------------------------------------------------------------------
    1          1             0        2.105127     .729157     .000000
    2          6             0        1.111071     .305735     .000000
    3          1             0        1.263445   -1.896838     .000000
    4          6             0         .662128    -.999825     .000000
    5          1             0       -1.484601   -1.678846     .000000
    6          6             0        -.745538    -.889298     .000000
    7          7             0       -1.143636     .381786     .000000
    8          1             0        -.044487    2.089907     .000000
    9          7             0         .000000    1.083492     .000000
 ---------------------------------------------------------------------
 Rotational constants (GHZ):      9.6664743      9.4444584      4.7770884
 Isotopes: H-1,C-12,H-1,C-12,H-1,C-12,N-14,H-1,N-14
 Standard basis: 6-31+G(d,p) (6D, 7F)
 There are    86 symmetry adapted basis functions of A'  symmetry.
 There are    29 symmetry adapted basis functions of A"  symmetry.
 Crude estimate of integral set expansion from redundant integrals=1.000.
 Integral buffers will be    262144 words long.
 Raffenetti 2 integral format.
 Two-electron integral symmetry is turned on.
   115 basis functions      188 primitive gaussians
    18 alpha electrons       18 beta electrons
       nuclear repulsion energy       163.1663868933 Hartrees.
 One-electron integrals computed using PRISM.
 NBasis=   115 RedAO= T  NBF=    86    29
 NBsUse=   115 1.00D-04 NBFU=    86    29
 Initial guess read from the read-write file:
 Initial guess orbital symmetries:
       Occupied  (A') (A') (A') (A') (A') (A') (A') (A') (A') (A')
                 (A') (A') (A") (A') (A') (A') (A") (A")
       Virtual   (A") (A') (A') (A') (A") (A') (A') (A") (A') (A")
                 (A') (A") (A') (A') (A') (A') (A") (A') (A') (A")
                 (A') (A') (A') (A') (A') (A') (A') (A') (A') (A')
                 (A') (A') (A") (A") (A') (A") (A') (A') (A') (A')
                 (A') (A") (A') (A") (A') (A') (A') (A') (A') (A')
                 (A') (A") (A') (A") (A") (A') (A") (A") (A') (A')
                 (A') (A') (A') (A') (A') (A") (A') (A") (A') (A")
                 (A") (A') (A") (A') (A") (A') (A') (A') (A") (A')
                 (A") (A') (A") (A') (A') (A') (A') (A') (A') (A')
                 (A') (A') (A') (A') (A') (A') (A')
 Requested convergence on RMS density matrix=1.00D-08 within  64 cycles.
 Requested convergence on MAX density matrix=1.00D-06.
 SCF Done:  E(RB+HF-PW91) =  -226.132643026     A.U. after   10 cycles
             Convg  =     .2266D-08             -V/T =  2.0095
             S**2   =    .0000
 ***** Axes restored to original set *****
 -------------------------------------------------------------------
 Center     Atomic                   Forces (Hartrees/Bohr)
 Number     Number              X              Y              Z
 -------------------------------------------------------------------
    1          1           -.000026754     .000000000    -.000095940
    2          6           -.000129620     .000000000     .001193091
    3          1            .000163349     .000000000    -.000037997
    4          6            .000498290     .000000000    -.000663050
    5          1            .000154612     .000000000     .000023964
    6          6           -.000227816     .000000000     .000539897
    7          7            .000318976     .000000000    -.000680405
    8          1            .000143228     .000000000     .000248202
    9          7           -.000894264     .000000000    -.000527761
 -------------------------------------------------------------------
 Cartesian Forces:  Max      .001193091 RMS      .000397174

 GradGradGradGradGradGradGradGradGradGradGradGradGradGradGradGradGradGrad
 Berny optimization.
 Internal  Forces:  Max      .000802844 RMS      .000228235
 Search for a local minimum.
 Step number   5 out of a maximum of  48
 All quantities printed in internal units (Hartrees-Bohrs-Radians)
 Update second derivatives using information from points  1  2  3  4  5

 Trust test= 9.44D-01 RLast= 1.84D-02 DXMaxT set to 4.24D-01
     Eigenvalues ---     .03203    .03248    .03250    .03273    .03342
     Eigenvalues ---     .03373    .14964    .15215    .16015    .16551
     Eigenvalues ---     .20528    .32571    .40318    .47048    .49565
     Eigenvalues ---     .49767    .57458    .60234    .60882    .70826
     Eigenvalues ---     .736161000.000001000.000001000.000001000.00000
     Eigenvalues --- 1000.000001000.000001000.000001000.000001000.00000
     Eigenvalues --- 1000.000001000.000001000.000001000.000001000.00000
     Eigenvalues --- 1000.000001000.000001000.00000
 RFO step:  Lambda=-5.06517962D-06.
 Quartic linear search produced a step of  -.03899.
 Iteration  1 RMS(Cart)=   .00075579 RMS(Int)=   .00000056
 Iteration  2 RMS(Cart)=   .00000060 RMS(Int)=   .00000013
 Variable       Old X    -DE/DX   Delta X   Delta X   Delta X     New X
                                 (Linear)    (Quad)   (Total)
    R1        2.04181    .00007    .00006    .00008    .00014   2.04195
    R2        2.60894    .00080    .00029    .00079    .00107   2.61002
    R3        2.56292   -.00051   -.00003   -.00054   -.00057   2.56235
    R4        2.04074    .00008    .00007    .00009    .00016   2.04090
    R5        2.66829    .00004   -.00006    .00029    .00023   2.66852
    R6        2.04370    .00016    .00008    .00022    .00029   2.04400
    R7        2.51705   -.00042    .00016   -.00088   -.00072   2.51633
    R8        2.53554    .00020   -.00046    .00114    .00067   2.53621
    R9        1.90371    .00006    .00009   -.00004    .00005   1.90376
    A1        2.30468   -.00019   -.00002   -.00098   -.00101   2.30367
    A2        2.12818   -.00005    .00012   -.00047   -.00035   2.12783
    A3        1.85032    .00024   -.00009    .00145    .00136   1.85168
    A4        2.21984    .00028   -.00004    .00138    .00135   2.22118
    A5        1.82364   -.00028    .00003   -.00100   -.00097   1.82267
    A6        2.23970    .00000    .00001   -.00038   -.00037   2.23933
    A7        2.24482    .00004    .00021   -.00024   -.00003   2.24480
    A8        1.95267   -.00007   -.00021    .00019   -.00002   1.95265
    A9        2.08569    .00003    .00000    .00005    .00005   2.08574
   A10        1.81762    .00047    .00022    .00101    .00123   1.81885
   A11        1.98052   -.00035    .00005   -.00165   -.00160   1.97892
   A12        2.22570    .00045   -.00005    .00257    .00253   2.22823
   A13        2.07696   -.00010    .00000   -.00092   -.00092   2.07604
    D1         .00000    .00000    .00000    .00000    .00000    .00000
    D2        3.14159    .00000    .00000    .00000    .00000   3.14159
    D3        3.14159    .00000    .00000    .00000    .00000   3.14159
    D4         .00000    .00000    .00000    .00000    .00000    .00000
    D5        3.14159    .00000    .00000    .00000    .00000   3.14159
    D6         .00000    .00000    .00000    .00000    .00000    .00000
    D7         .00000    .00000    .00000    .00000    .00000    .00000
    D8        3.14159    .00000    .00000    .00000    .00000   3.14159
    D9        3.14159    .00000    .00000    .00000    .00000   3.14159
   D10         .00000    .00000    .00000    .00000    .00000    .00000
   D11         .00000    .00000    .00000    .00000    .00000    .00000
   D12        3.14159    .00000    .00000    .00000    .00000   3.14159
   D13         .00000    .00000    .00000    .00000    .00000    .00000
   D14        3.14159    .00000    .00000    .00000    .00000   3.14159
   D15         .00000    .00000    .00000    .00000    .00000    .00000
   D16        3.14159    .00000    .00000    .00000    .00000   3.14159
         Item               Value     Threshold  Converged?
 Maximum Force             .000803      .000450     NO 
 RMS     Force             .000228      .000300     YES
 Maximum Displacement      .002825      .001800     NO 
 RMS     Displacement      .000756      .001200     YES
 Predicted change in Energy=-2.614658D-06
 GradGradGradGradGradGradGradGradGradGradGradGradGradGradGradGradGradGrad

                          Input orientation:                          
 ---------------------------------------------------------------------
 Center     Atomic     Atomic              Coordinates (Angstroms)
 Number     Number      Type              X           Y           Z
 ---------------------------------------------------------------------
    1          1             0       -1.893883     .000000   -1.173063
    2          6             0        -.938282     .000000    -.668658
    3          1             0         .675314     .000000   -2.177526
    4          6             0         .358074     .000000   -1.145171
    5          1             0        2.239214     .000000     .092522
    6          6             0        1.160217     .000000     .017004
    7          7             0         .425122     .000000    1.127299
    8          1             0       -1.593117     .000000    1.354743
    9          7             0        -.841600     .000000     .683827
 ---------------------------------------------------------------------
                    Distance matrix (angstroms):
                    1          2          3          4          5
     1  H     .000000
     2  C    1.080554    .000000
     3  H    2.758573   2.209158    .000000
     4  C    2.252130   1.381161   1.079999    .000000
     5  H    4.322522   3.267397   2.756610   2.251793    .000000
     6  C    3.277772   2.207676   2.247464   1.412121   1.081636
     7  N    3.266412   2.254846   3.314282   2.273459   2.088467
     8  H    2.545636   2.126726   4.197941   3.171233   4.034844
     9  N    2.134324   1.355936   3.238575   2.187339   3.137046
                    6          7          8          9
     6  C     .000000
     7  N    1.331585    .000000
     8  H    3.061110   2.031015    .000000
     9  N    2.109959   1.342107   1.007426    .000000
 Stoichiometry    C3H4N2
 Framework group  CS[SG(C3H4N2)]
 Deg. of freedom   15
 Full point group                 CS      NOp   2
 Largest Abelian subgroup         CS      NOp   2
 Largest concise Abelian subgroup C1      NOp   1
                         Standard orientation:                         
 ---------------------------------------------------------------------
 Center     Atomic     Atomic              Coordinates (Angstroms)
 Number     Number      Type              X           Y           Z
 ---------------------------------------------------------------------
    1          1             0        2.104624     .729517     .000000
    2          6             0        1.110438     .306206     .000000
    3          1             0        1.263371   -1.897652     .000000
    4          6             0         .662439   -1.000278     .000000
    5          1             0       -1.484570   -1.679194     .000000
    6          6             0        -.745338    -.889591     .000000
    7          7             0       -1.143161     .381178     .000000
    8          1             0        -.046533    2.090689     .000000
    9          7             0         .000000    1.084338     .000000
 ---------------------------------------------------------------------
 Rotational constants (GHZ):      9.6595071      9.4484483      4.7764060
 Isotopes: H-1,C-12,H-1,C-12,H-1,C-12,N-14,H-1,N-14
 Standard basis: 6-31+G(d,p) (6D, 7F)
 There are    86 symmetry adapted basis functions of A'  symmetry.
 There are    29 symmetry adapted basis functions of A"  symmetry.
 Crude estimate of integral set expansion from redundant integrals=1.000.
 Integral buffers will be    262144 words long.
 Raffenetti 2 integral format.
 Two-electron integral symmetry is turned on.
   115 basis functions      188 primitive gaussians
    18 alpha electrons       18 beta electrons
       nuclear repulsion energy       163.1552599148 Hartrees.
 One-electron integrals computed using PRISM.
 NBasis=   115 RedAO= T  NBF=    86    29
 NBsUse=   115 1.00D-04 NBFU=    86    29
 Initial guess read from the read-write file:
 Initial guess orbital symmetries:
       Occupied  (A') (A') (A') (A') (A') (A') (A') (A') (A') (A')
                 (A') (A') (A") (A') (A') (A') (A") (A")
       Virtual   (A") (A') (A') (A') (A") (A') (A') (A") (A') (A")
                 (A') (A") (A') (A') (A') (A') (A") (A') (A') (A")
                 (A') (A') (A') (A') (A') (A') (A') (A') (A') (A')
                 (A') (A') (A") (A") (A') (A") (A') (A') (A') (A')
                 (A') (A") (A') (A") (A') (A') (A') (A') (A') (A')
                 (A') (A") (A') (A") (A") (A') (A") (A") (A') (A')
                 (A') (A') (A') (A') (A') (A") (A') (A") (A') (A")
                 (A") (A') (A") (A') (A") (A') (A') (A') (A") (A')
                 (A") (A') (A") (A') (A') (A') (A') (A') (A') (A')
                 (A') (A') (A') (A') (A') (A') (A')
 Requested convergence on RMS density matrix=1.00D-08 within  64 cycles.
 Requested convergence on MAX density matrix=1.00D-06.
 SCF Done:  E(RB+HF-PW91) =  -226.132645766     A.U. after    9 cycles
             Convg  =     .1834D-08             -V/T =  2.0095
             S**2   =    .0000
 ***** Axes restored to original set *****
 -------------------------------------------------------------------
 Center     Atomic                   Forces (Hartrees/Bohr)
 Number     Number              X              Y              Z
 -------------------------------------------------------------------
    1          1           -.000002850     .000000000    -.000094386
    2          6           -.000253226     .000000000     .000469101
    3          1            .000020485     .000000000     .000006544
    4          6            .000088913     .000000000    -.000146036
    5          1            .000047465     .000000000     .000033847
    6          6           -.000237642     .000000000     .000289278
    7          7            .000185672     .000000000    -.000035967
    8          1            .000068576     .000000000     .000063285
    9          7            .000082607     .000000000    -.000585666
 -------------------------------------------------------------------
 Cartesian Forces:  Max      .000585666 RMS      .000178538

 GradGradGradGradGradGradGradGradGradGradGradGradGradGradGradGradGradGrad
 Berny optimization.
 Internal  Forces:  Max      .000327951 RMS      .000094018
 Search for a local minimum.
 Step number   6 out of a maximum of  48
 All quantities printed in internal units (Hartrees-Bohrs-Radians)
 Update second derivatives using information from points  1  2  3  4  5
                                                        6
 Trust test= 1.05D+00 RLast= 4.46D-03 DXMaxT set to 4.24D-01
     Eigenvalues ---     .03203    .03248    .03250    .03273    .03342
     Eigenvalues ---     .03373    .13587    .15129    .15605    .16040
     Eigenvalues ---     .23414    .36543    .40988    .46654    .49533
     Eigenvalues ---     .49763    .53525    .58296    .60360    .67686
     Eigenvalues ---     .737301000.000001000.000001000.000001000.00000
     Eigenvalues --- 1000.000001000.000001000.000001000.000001000.00000
     Eigenvalues --- 1000.000001000.000001000.000001000.000001000.00000
     Eigenvalues --- 1000.000001000.000001000.00000
 RFO step:  Lambda=-8.32569538D-07.
 Quartic linear search produced a step of   .07422.
 Iteration  1 RMS(Cart)=   .00030874 RMS(Int)=   .00000013
 Iteration  2 RMS(Cart)=   .00000012 RMS(Int)=   .00000001
 Variable       Old X    -DE/DX   Delta X   Delta X   Delta X     New X
                                 (Linear)    (Quad)   (Total)
    R1        2.04195    .00005    .00001    .00009    .00010   2.04205
    R2        2.61002    .00013    .00008    .00032    .00040   2.61042
    R3        2.56235   -.00033   -.00004   -.00055   -.00059   2.56176
    R4        2.04090    .00000    .00001   -.00002   -.00001   2.04089
    R5        2.66852    .00009    .00002    .00019    .00021   2.66873
    R6        2.04400    .00005    .00002    .00012    .00014   2.04414
    R7        2.51633   -.00030   -.00005   -.00050   -.00056   2.51577
    R8        2.53621    .00004    .00005    .00016    .00021   2.53643
    R9        1.90376   -.00001    .00000   -.00003   -.00003   1.90373
    A1        2.30367   -.00002   -.00007   -.00031   -.00039   2.30329
    A2        2.12783    .00013   -.00003    .00065    .00062   2.12845
    A3        1.85168   -.00011    .00010   -.00034   -.00024   1.85145
    A4        2.22118    .00004    .00010    .00018    .00028   2.22146
    A5        1.82267   -.00005   -.00007   -.00001   -.00008   1.82259
    A6        2.23933    .00001   -.00003   -.00017   -.00020   2.23913
    A7        2.24480    .00000    .00000    .00005    .00005   2.24485
    A8        1.95265    .00004    .00000    .00010    .00010   1.95275
    A9        2.08574   -.00004    .00000   -.00016   -.00015   2.08558
   A10        1.81885   -.00007    .00009   -.00023   -.00014   1.81872
   A11        1.97892    .00018   -.00012    .00047    .00035   1.97927
   A12        2.22823    .00000    .00019    .00048    .00066   2.22889
   A13        2.07604   -.00019   -.00007   -.00095   -.00102   2.07502
    D1         .00000    .00000    .00000    .00000    .00000    .00000
    D2        3.14159    .00000    .00000    .00000    .00000   3.14159
    D3        3.14159    .00000    .00000    .00000    .00000   3.14159
    D4         .00000    .00000    .00000    .00000    .00000    .00000
    D5        3.14159    .00000    .00000    .00000    .00000   3.14159
    D6         .00000    .00000    .00000    .00000    .00000    .00000
    D7         .00000    .00000    .00000    .00000    .00000    .00000
    D8        3.14159    .00000    .00000    .00000    .00000   3.14159
    D9        3.14159    .00000    .00000    .00000    .00000   3.14159
   D10         .00000    .00000    .00000    .00000    .00000    .00000
   D11         .00000    .00000    .00000    .00000    .00000    .00000
   D12        3.14159    .00000    .00000    .00000    .00000   3.14159
   D13         .00000    .00000    .00000    .00000    .00000    .00000
   D14        3.14159    .00000    .00000    .00000    .00000   3.14159
   D15         .00000    .00000    .00000    .00000    .00000    .00000
   D16        3.14159    .00000    .00000    .00000    .00000   3.14159
         Item               Value     Threshold  Converged?
 Maximum Force             .000328      .000450     YES
 RMS     Force             .000094      .000300     YES
 Maximum Displacement      .001142      .001800     YES
 RMS     Displacement      .000309      .001200     YES
 Predicted change in Energy=-4.297477D-07
 Optimization completed.
    -- Stationary point found.
                         ----------------------------
                         !   Optimized Parameters   !
                         ! (Angstroms and Degrees)  !
 ------------------------                            -------------------------
 ! Name  Definition              Value          Derivative Info.             !
 -----------------------------------------------------------------------------
 ! R1    R(1,2)                  1.0806         -DE/DX =    0.               !
 ! R2    R(2,4)                  1.3812         -DE/DX =    0.0001           !
 ! R3    R(2,9)                  1.3559         -DE/DX =   -0.0003           !
 ! R4    R(3,4)                  1.08           -DE/DX =    0.               !
 ! R5    R(4,6)                  1.4121         -DE/DX =    0.0001           !
 ! R6    R(5,6)                  1.0816         -DE/DX =    0.0001           !
 ! R7    R(6,7)                  1.3316         -DE/DX =   -0.0003           !
 ! R8    R(7,9)                  1.3421         -DE/DX =    0.               !
 ! R9    R(8,9)                  1.0074         -DE/DX =    0.               !
 ! A1    A(1,2,4)              131.9907         -DE/DX =    0.               !
 ! A2    A(1,2,9)              121.9157         -DE/DX =    0.0001           !
 ! A3    A(4,2,9)              106.0935         -DE/DX =   -0.0001           !
 ! A4    A(2,4,3)              127.2644         -DE/DX =    0.               !
 ! A5    A(2,4,6)              104.4314         -DE/DX =    0.               !
 ! A6    A(3,4,6)              128.3042         -DE/DX =    0.               !
 ! A7    A(4,6,5)              128.6173         -DE/DX =    0.               !
 ! A8    A(4,6,7)              111.8788         -DE/DX =    0.               !
 ! A9    A(5,6,7)              119.5039         -DE/DX =    0.               !
[...]
   5   1      .28    .30    .00      .16    .17    .00      .00    .00    .00
   6   6     -.03   -.03    .00     -.02   -.02    .00      .00    .00    .00
   7   7      .00    .00    .00      .00    .00    .00      .00    .00    .00
   8   1      .00   -.01    .00      .00    .01    .00     -.05   1.00    .00
   9   7      .00    .00    .00      .00    .00    .00      .01   -.08    .00

 -------------------
 - Thermochemistry -
 -------------------
 Temperature   298.150 Kelvin.  Pressure   1.00000 Atm.
 Atom  1 has atomic number  1 and mass   1.00783
 Atom  2 has atomic number  6 and mass  12.00000
 Atom  3 has atomic number  1 and mass   1.00783
 Atom  4 has atomic number  6 and mass  12.00000
 Atom  5 has atomic number  1 and mass   1.00783
 Atom  6 has atomic number  6 and mass  12.00000
 Atom  7 has atomic number  7 and mass  14.00307
 Atom  8 has atomic number  1 and mass   1.00783
 Atom  9 has atomic number  7 and mass  14.00307
 Molecular mass:    68.03745 amu.
 Principal axes and moments of inertia in atomic units:
                           1         2         3
     EIGENVALUES --   186.83574 191.00927 377.84501
           X             .90458    .42631    .00000
           Y            -.42631    .90458    .00000
           Z             .00000    .00000   1.00000
 THIS MOLECULE IS AN ASYMMETRIC TOP.
 ROTATIONAL SYMMETRY NUMBER  1.
 ROTATIONAL TEMPERATURES (KELVIN)       .46358      .45345      .22923
 ROTATIONAL CONSTANTS (GHZ)            9.65951     9.44845     4.77641
 Zero-point vibrational energy     188220.3 (Joules/Mol)
                                   44.98572 (Kcal/Mol)
 WARNING-- EXPLICIT CONSIDERATION OF   1 DEGREES OF FREEDOM AS
           VIBRATIONS MAY CAUSE SIGNIFICANT ERROR
 VIBRATIONAL TEMPERATURES:    784.81   912.88   995.14  1083.53  1210.96
          (KELVIN)           1286.15  1319.25  1351.59  1526.49  1531.14
                             1665.22  1724.05  1859.04  2014.80  2081.80
                             2158.40  2272.66  4704.61  4721.64  4746.09
                             5324.89
 
 Zero-point correction=                            .071689 (Hartree/Particle)
 Thermal correction to Energy=                     .075413
 Thermal correction to Enthalpy=                   .076357
 Thermal correction to Gibbs Free Energy=          .045434
 Sum of electronic and zero-point Energies=           -226.060956
 Sum of electronic and thermal Energies=              -226.057233
 Sum of electronic and thermal Enthalpies=            -226.056288
 Sum of electronic and thermal Free Energies=         -226.087212
 
                     E (Thermal)             CV                S
                      KCAL/MOL        CAL/MOL-KELVIN    CAL/MOL-KELVIN
 TOTAL                   47.322             13.213             65.084
 ELECTRONIC                .000               .000               .000
 TRANSLATIONAL             .889              2.981             38.570
 ROTATIONAL                .889              2.981             24.115
 VIBRATIONAL             45.545              7.251              2.399
 VIBRATION  1              .901              1.150               .554
                       Q            LOG10(Q)             LN(Q)
 TOTAL BOT        .126496D-20        -20.897922        -48.119244
 TOTAL V=0        .119302D+13         12.076648         27.807511
 VIB (BOT)        .137953D-32        -32.860268        -75.663564
 VIB (BOT)  1     .288952D+00          -.539175         -1.241495
 VIB (V=0)        .130108D+01           .114302           .263191
 VIB (V=0)  1     .107749D+01           .032413           .074633
 ELECTRONIC       .100000D+01           .000000           .000000
 TRANSLATIONAL    .220588D+08          7.343582         16.909224
 ROTATIONAL       .415684D+05          4.618763         10.635096
 ***** Axes restored to original set *****
 -------------------------------------------------------------------
 Center     Atomic                   Forces (Hartrees/Bohr)
 Number     Number              X              Y              Z
 -------------------------------------------------------------------
    1          1           -.000002859     .000000000    -.000094391
    2          6           -.000253215     .000000000     .000469104
    3          1            .000020483     .000000000     .000006551
    4          6            .000088923     .000000000    -.000146048
    5          1            .000047468     .000000000     .000033848
    6          6           -.000237646     .000000000     .000289266
    7          7            .000185652     .000000000    -.000035965
    8          1            .000068579     .000000000     .000063279
    9          7            .000082616     .000000000    -.000585644
 -------------------------------------------------------------------
 Cartesian Forces:  Max      .000585644 RMS      .000178535

 GradGradGradGradGradGradGradGradGradGradGradGradGradGradGradGradGradGrad
 Berny optimization.
 Internal  Forces:  Max      .000327943 RMS      .000094016
 Search for a local minimum.
 Step number   1 out of a maximum of  48
 All quantities printed in internal units (Hartrees-Bohrs-Radians)
 Second derivative matrix not updated -- analytic derivatives used.
     Eigenvalues ---     .00772    .01157    .01612    .02757    .05802
     Eigenvalues ---     .06131    .09318    .10330    .11053    .11895
     Eigenvalues ---     .22412    .26813    .35371    .37376    .37929
     Eigenvalues ---     .38097    .40748    .43491    .48525    .49854
     Eigenvalues ---     .574181000.000001000.000001000.000001000.00000
     Eigenvalues --- 1000.000001000.000001000.000001000.000001000.00000
     Eigenvalues --- 1000.000001000.000001000.000001000.000001000.00000
     Eigenvalues --- 1000.000001000.000001000.00000
 Angle between quadratic step and forces=  34.49 degrees.
 Linear search not attempted -- first point.
 Iteration  1 RMS(Cart)=   .00031457 RMS(Int)=   .00000014
 Iteration  2 RMS(Cart)=   .00000013 RMS(Int)=   .00000001
 Variable       Old X    -DE/DX   Delta X   Delta X   Delta X     New X
                                 (Linear)    (Quad)   (Total)
    R1        2.04195    .00005    .00000    .00011    .00011   2.04206
    R2        2.61002    .00013    .00000    .00049    .00049   2.61050
    R3        2.56235   -.00033    .00000   -.00088   -.00088   2.56147
    R4        2.04090    .00000    .00000   -.00001   -.00001   2.04089
    R5        2.66852    .00009    .00000    .00022    .00022   2.66874
    R6        2.04400    .00005    .00000    .00016    .00016   2.04416
    R7        2.51633   -.00030    .00000   -.00052   -.00052   2.51581
    R8        2.53621    .00004    .00000    .00021    .00021   2.53643
    R9        1.90376   -.00001    .00000   -.00001   -.00001   1.90375
    A1        2.30367   -.00002    .00000   -.00072   -.00072   2.30295
    A2        2.12783    .00013    .00000    .00090    .00090   2.12873
    A3        1.85168   -.00011    .00000   -.00018   -.00018   1.85151
    A4        2.22118    .00004    .00000    .00024    .00024   2.22142
    A5        1.82267   -.00005    .00000   -.00021   -.00021   1.82246
    A6        2.23933    .00001    .00000   -.00002   -.00002   2.23931
    A7        2.24480    .00000    .00000   -.00004   -.00004   2.24475
    A8        1.95265    .00004    .00000    .00019    .00019   1.95284
    A9        2.08574   -.00004    .00000   -.00014   -.00014   2.08559
   A10        1.81885   -.00007    .00000   -.00027   -.00026   1.81859
   A11        1.97892    .00018    .00000    .00047    .00047   1.97939
   A12        2.22823    .00000    .00000    .00060    .00060   2.22882
   A13        2.07604   -.00019    .00000   -.00107   -.00107   2.07497
    D1         .00000    .00000    .00000    .00000    .00000    .00000
    D2        3.14159    .00000    .00000    .00000    .00000   3.14159
    D3        3.14159    .00000    .00000    .00000    .00000   3.14159
    D4         .00000    .00000    .00000    .00000    .00000    .00000
    D5        3.14159    .00000    .00000    .00000    .00000   3.14159
    D6         .00000    .00000    .00000    .00000    .00000    .00000
    D7         .00000    .00000    .00000    .00000    .00000    .00000
    D8        3.14159    .00000    .00000    .00000    .00000   3.14159
    D9        3.14159    .00000    .00000    .00000    .00000   3.14159
   D10         .00000    .00000    .00000    .00000    .00000    .00000
   D11         .00000    .00000    .00000    .00000    .00000    .00000
   D12        3.14159    .00000    .00000    .00000    .00000   3.14159
   D13         .00000    .00000    .00000    .00000    .00000    .00000
   D14        3.14159    .00000    .00000    .00000    .00000   3.14159
   D15         .00000    .00000    .00000    .00000    .00000    .00000
   D16        3.14159    .00000    .00000    .00000    .00000   3.14159
         Item               Value     Threshold  Converged?
 Maximum Force             .000328      .000450     YES
 RMS     Force             .000094      .000300     YES
 Maximum Displacement      .001152      .001800     YES
 RMS     Displacement      .000315      .001200     YES
 Predicted change in Energy=-5.180136D-07
 Optimization completed.
    -- Stationary point found.
                         ----------------------------
                         !   Optimized Parameters   !
                         ! (Angstroms and Degrees)  !
 ------------------------                            -------------------------
 ! Name  Definition              Value          Derivative Info.             !
 -----------------------------------------------------------------------------
 ! R1    R(1,2)                  1.0806         -DE/DX =    0.               !
 ! R2    R(2,4)                  1.3812         -DE/DX =    0.0001           !
 ! R3    R(2,9)                  1.3559         -DE/DX =   -0.0003           !
 ! R4    R(3,4)                  1.08           -DE/DX =    0.               !
 ! R5    R(4,6)                  1.4121         -DE/DX =    0.0001           !
 ! R6    R(5,6)                  1.0816         -DE/DX =    0.0001           !
 ! R7    R(6,7)                  1.3316         -DE/DX =   -0.0003           !
 ! R8    R(7,9)                  1.3421         -DE/DX =    0.               !
 ! R9    R(8,9)                  1.0074         -DE/DX =    0.               !
 ! A1    A(1,2,4)              131.9907         -DE/DX =    0.               !
 ! A2    A(1,2,9)              121.9157         -DE/DX =    0.0001           !
 ! A3    A(4,2,9)              106.0935         -DE/DX =   -0.0001           !
 ! A4    A(2,4,3)              127.2644         -DE/DX =    0.               !
 ! A5    A(2,4,6)              104.4314         -DE/DX =    0.               !
 ! A6    A(3,4,6)              128.3042         -DE/DX =    0.               !
 ! A7    A(4,6,5)              128.6173         -DE/DX =    0.               !
 ! A8    A(4,6,7)              111.8788         -DE/DX =    0.               !
 ! A9    A(5,6,7)              119.5039         -DE/DX =    0.               !
 ! A10   A(6,7,9)              104.2126         -DE/DX =   -0.0001           !
 ! A11   A(2,9,7)              113.3837         -DE/DX =    0.0002           !
 ! A12   A(2,9,8)              127.668          -DE/DX =    0.               !
 ! A13   A(7,9,8)              118.9483         -DE/DX =   -0.0002           !
 ! D1    D(1,2,4,3)              0.             -DE/DX =    0.               !
 ! D2    D(1,2,4,6)            180.             -DE/DX =    0.               !
 ! D3    D(9,2,4,3)            180.             -DE/DX =    0.               !
 ! D4    D(9,2,4,6)              0.             -DE/DX =    0.               !
 ! D5    D(1,2,9,7)            180.             -DE/DX =    0.               !
 ! D6    D(1,2,9,8)              0.             -DE/DX =    0.               !
 ! D7    D(4,2,9,7)              0.             -DE/DX =    0.               !
 ! D8    D(4,2,9,8)            180.             -DE/DX =    0.               !
 ! D9    D(2,4,6,5)            180.             -DE/DX =    0.               !
 ! D10   D(2,4,6,7)              0.             -DE/DX =    0.               !
 ! D11   D(3,4,6,5)              0.             -DE/DX =    0.               !
 ! D12   D(3,4,6,7)            180.             -DE/DX =    0.               !
 ! D13   D(4,6,7,9)              0.             -DE/DX =    0.               !
 ! D14   D(5,6,7,9)            180.             -DE/DX =    0.               !
 ! D15   D(6,7,9,2)              0.             -DE/DX =    0.               !
 ! D16   D(6,7,9,8)            180.             -DE/DX =    0.               !
 -----------------------------------------------------------------------------
 GradGradGradGradGradGradGradGradGradGradGradGradGradGradGradGradGradGrad

 1\1\GINC-SCI-APPS\Freq\RB3PW91\6-31+G(d,p)\C3H4N2\RUS\09-Jun-2000\0\\#
 N GEOM=ALLCHECK GUESS=TCHECK RB3PW91/6-31+G(D,P) FREQ\\1H pyrazole C3H
 4N2 casno=288131\\0,1\H,-1.8936676288,0.,-1.1728852512\C,-0.9380668129
 ,0.,-0.6684805192\H,0.6755300203,0.,-2.1773484442\C,0.3582898188,0.,-1
 .1449935539\H,2.2394298559,0.,0.0926994542\C,1.1604330523,0.,0.0171820
 266\N,0.4253376075,0.,1.1274762619\H,-1.5929015796,0.,1.3549209007\N,-
 0.8413843242,0.,0.6840045409\\Version=IBM-RS6000-G98RevA.7\State=1-A'\
 HF=-226.1326458\RMSD=8.962e-10\RMSF=1.785e-04\Dipole=-0.8174168,0.,-0.
 4764185\DipoleDeriv=-0.0065305,-0.0000705,-0.0474814,-0.000041,0.20240
 65,-0.0000324,-0.0355453,-0.0000471,0.072566,0.1395658,0.000086,-0.177
 3581,0.0000107,-0.117722,0.0000067,-0.321097,-0.0001295,0.2214444,0.09
 78382,-0.0000244,0.0263603,0.0000012,0.1901926,0.0000343,0.0328186,0.0
 000231,-0.0261282,-0.241489,-0.0001372,0.0240641,0.0000633,-0.2338006,
 -0.0000845,-0.0374105,-0.0002036,-0.0630179,-0.0400034,0.0002052,-0.00
 84611,-0.0000306,0.1595141,-0.0001941,-0.0279985,0.0000111,0.0804357,0
 .1872308,-0.0000731,0.0878053,-0.0000162,-0.0975438,0.0001168,0.202554
 8,0.0000515,0.2307708,0.0114308,-0.0000804,-0.2042356,-0.0000374,-0.23
 39205,0.0002211,-0.1075421,0.0001676,-0.5761698,0.2124023,-0.0000385,-
 0.0538268,-0.0000224,0.3188449,-0.0000378,-0.0364404,0.0000349,0.22836
 74,-0.3604411,0.000133,0.3531353,0.0000723,-0.1879711,-0.0000302,0.330
 6606,0.0000921,-0.1682658\Polar=53.8743787,0.0051962,30.4278181,0.5080
 235,-0.004578,51.6324596\PG=CS [SG(C3H4N2)]\NImag=0\\0.30644092,0.0000
 0015,0.02033096,0.13635614,0.00000019,0.12327769,-0.30119344,0.0000005
 9,-0.11782705,0.86254244,0.00000100,-0.02522145,0.00000036,-0.00000128
 ,0.11738943,-0.12713184,0.00000023,-0.12091317,0.09780748,0.00000096,0
 .65247116,0.00031333,-0.00000032,-0.00079330,0.00204237,0.00000124,0.0
 2569217,0.07612509,0.00000006,-0.00270152,0.00000018,-0.00000009,-0.00
 187281,0.00000059,-0.00000022,0.02156500,0.00039327,0.00000103,-0.0001
 8253,-0.00353489,-0.00000400,0.00010232,-0.09419958,0.00000079,0.35025
 104,-0.00690725,0.00000009,0.00917867,-0.34952847,-0.00000181,0.076488
 02,-0.08318217,0.00000087,0.08799654,0.62641232,-0.00000057,0.00110935
 ,-0.00000043,0.00000072,-0.06172654,-0.00000036,-0.00000031,-0.0257034
 7,0.00000121,0.00000044,0.11393856,-0.01502660,-0.00000057,0.01274617,
 0.10278710,0.00000419,-0.14162781,0.08554922,-0.00000089,-0.33776390,-
 0.11925203,0.00000029,0.83611162,-0.00013365,-0.00000025,0.00028808,-0
 .00074774,-0.00000048,-0.00109195,-0.00011342,-0.00000085,-0.00035481,
 -0.00477499,0.00000023,0.00382517,0.37505368,0.00000039,0.00084719,0.0
 0000020,0.00000106,0.00451421,-0.00000097,-0.00000022,-0.00183989,0.00
 000071,-0.00000123,0.00087845,0.00000069,0.00000118,0.02443908,-0.0010
 1821,0.00000014,0.00108327,-0.00310791,-0.00000006,-0.00578922,0.00081
 625,-0.00000004,0.00018078,-0.02165157,-0.00000016,0.00669445,0.021481
 61,0.00000022,0.05580180,-0.00445530,0.00000093,0.00467622,-0.05326017
 ,0.00000122,-0.00078858,0.01290661,0.00000028,0.01218298,-0.18190523,-
 0.00000090,-0.10917033,-0.35481081,0.00000170,-0.03282996,0.88798196,-
 0.00000138,0.00496688,-0.00000054,0.00000067,0.00998601,0.00000003,-0.
 00000098,-0.00282005,0.00000304,0.00000207,-0.06405018,-0.00000489,0.0
 0000009,-0.03056122,0.00000001,-0.00000218,0.13773886,0.00079444,-0.00
 000164,-0.00217150,-0.06722048,-0.00000036,0.03489055,-0.01505414,-0.0
 0000010,-0.00860936,-0.07571881,0.00000024,-0.23574154,-0.02494135,-0.
 00000362,-0.06028850,-0.00971024,0.00000312,0.61337390,0.00057741,-0.0
 0000019,0.00053888,-0.05736879,0.00000146,-0.05000872,-0.00199802,-0.0
 0000026,-0.00091821,0.02747832,-0.00000008,0.03860098,-0.01368661,-0.0
 0000047,0.02837609,-0.18274954,-0.00000132,0.14564056,0.51725220,0.000
 00296,0.00633255,0.00000146,-0.00000355,0.01761742,0.00000062,0.000002
 08,0.00633441,-0.00000690,-0.00000201,0.02020559,0.00000657,-0.0000024
 5,-0.00748050,0.00000008,0.00000243,-0.07185555,-0.00000073,0.00000283
 ,0.10448516,0.00231130,0.00000082,-0.00561614,-0.02056156,0.00000133,-
 0.06638069,-0.00591268,-0.00000017,-0.00412123,-0.03236265,-0.00000136
 ,-0.07691128,-0.00134166,0.00000248,0.00620071,0.11136245,-0.00000283,
 -0.30871244,-0.04699447,0.00000223,0.56742350,-0.00023012,-0.00000034,
 0.00035712,0.01003652,0.00000031,-0.00489562,0.00071934,0.00000012,-0.
 00008739,0.00208756,0.00000007,-0.00338680,-0.00041307,-0.00000079,0.0
 0142691,-0.00744715,0.00000017,-0.00534410,-0.02149794,0.00000009,0.02
 473944,0.29990446,0.00000034,-0.00146498,0.00000007,-0.00000010,-0.007
 60810,-0.00000103,0.00000023,0.00213281,-0.00000100,-0.00000169,0.0033
 0875,0.00000033,0.00000159,0.00206977,0.00000015,0.00000007,0.00437408
 ,-0.00000040,-0.00000012,-0.01192132,0.00000163,-0.00000028,0.01286673
 ,-0.00058671,0.00000021,0.00007736,0.02519272,-0.00000038,-0.00524851,
 0.00122318,-0.00000009,0.00018666,-0.00221524,-0.00000003,-0.00696094,
 -0.00051048,0.00000058,0.00094649,-0.00603517,-0.00000002,0.00095069,-
 0.01113471,-0.00000003,0.01569702,-0.20889971,0.00000020,0.25326311,0.
 00558817,-0.00000063,-0.03277473,-0.11252279,-0.00000166,-0.01607098,-
 0.00681312,0.00000009,-0.00147794,-0.02968012,0.00000038,0.01607329,-0
 .00037333,-0.00000162,0.00650678,-0.11626039,0.00000286,0.05155414,-0.
 26800701,-0.00000240,-0.03124016,-0.28315956,-0.00000003,0.20296611,0.
 81122807,-0.00000294,-0.00419899,-0.00000148,0.00000195,-0.05307818,-0
 .00000008,-0.00000150,0.00490553,0.00000514,0.00000326,0.01203953,-0.0
 0000576,0.00000096,0.00713292,-0.00000034,-0.00000353,0.01222116,0.000
 00351,-0.00000189,-0.06371777,-0.00000410,0.00000065,-0.00375774,-0.00
 000043,0.00000304,0.08845352,0.00390821,-0.00000040,-0.00830114,-0.013
 53534,-0.00000204,-0.34750468,0.00267888,-0.00000027,-0.00004379,0.077
 53702,0.00000062,-0.05654674,0.00264540,-0.00000029,-0.00482978,0.0303
 1259,0.00000208,-0.03369182,-0.10410037,-0.00000327,-0.12757943,0.1960
 9012,0.00000005,-0.25891183,-0.19553652,0.00000354,0.83740916\\0.00000
 286,0.,0.00009439,0.00025322,0.,-0.00046910,-0.00002048,0.,-0.00000655
 ,-0.00008892,0.,0.00014605,-0.00004747,0.,-0.00003385,0.00023765,0.,-0
 .00028927,-0.00018565,0.,0.00003597,-0.00006858,0.,-0.00006328,-0.0000
 8262,0.,0.00058564\\\@


 I MET A TRAVELLER FROM AN ANTIQUE LAND
 WHO SAID... TWO VAST AND TRUNKLESS LEGS OF STONE
 STAND IN THE DESERT..... NEAR THEM,  ON THE SAND,
 HALF SUNK,  A SHATTERED VISAGE LIES,  WHOSE FROWN,
 AND WRINKLED LIP,  AND SNEER OF COLD COMMAND
 TELL THAT ITS SCULPTOR WELL THOSE PASSIONS READ
 WHICH YET SURVIVE,  STAMPED ON THESE LIFELESS THINGS
 THE HAND THAT MOCKED THEM,  AND THE HEART THAT FED-
 AND ON THE PEDESTAL THESE WORDS APPEAR 
 MY NAME IS OZYMANDIAS, KING OF KINGS--   
 LOOK ON MY WORKS YE MIGHTY AND DESPAIR. 
 NOTHING BESIDE REMAINS,  ROUND THE DECAY 
 OF THAT COLOSSAL WRECK,  BOUNDLESS AND BARE
 THE LONE AND LEVEL SANDS STRETCH FAR AWAY.
                                    SHELLEY
 Job cpu time:  0 days  0 hours 23 minutes 46.9 seconds.
 File lengths (MBytes):  RWF=   19 Int=    0 D2E=    0 Chk=    3 Scr=    1
 Normal termination of Gaussian 98.
