 Entering Gaussian System, Link 0=g98
 Initial command:
 /usr/local/apps/g98a6/g98/l1.exe /wrk/amanicha/Gau-58202.inp -scrdir=/wrk/amanicha/
 Entering Link 1 = /usr/local/apps/g98a6/g98/l1.exe PID=     60776.
  
 Copyright (c) 1988,1990,1992,1993,1995,1998 Gaussian, Inc.
                  All Rights Reserved.
  
 This is part of the Gaussian(R) 98 program.  It is based on
 the Gaussian 94(TM) system (copyright 1995 Gaussian, Inc.),
 the Gaussian 92(TM) system (copyright 1992 Gaussian, Inc.),
 the Gaussian 90(TM) system (copyright 1990 Gaussian, Inc.),
 the Gaussian 88(TM) system (copyright 1988 Gaussian, Inc.),
 the Gaussian 86(TM) system (copyright 1986 Carnegie Mellon
 University), and the Gaussian 82(TM) system (copyright 1983
 Carnegie Mellon University). Gaussian is a federally registered
 trademark of Gaussian, Inc.
  
 This software contains proprietary and confidential information,
 including trade secrets, belonging to Gaussian, Inc.
  
 This software is provided under written license and may be
 used, copied, transmitted, or stored only in accord with that
 written license.
  
 The following legend is applicable only to US Government
 contracts under DFARS:
  
                    RESTRICTED RIGHTS LEGEND
  
 Use, duplication or disclosure by the US Government is subject
 to restrictions as set forth in subparagraph (c)(1)(ii) of the
 Rights in Technical Data and Computer Software clause at DFARS
 252.227-7013.
  
 Gaussian, Inc.
 Carnegie Office Park, Building 6, Pittsburgh, PA 15106 USA
  
 The following legend is applicable only to US Government
 contracts under FAR:
  
                    RESTRICTED RIGHTS LEGEND
  
 Use, reproduction and disclosure by the US Government is subject
 to restrictions as set forth in subparagraph (c) of the
 Commercial Computer Software - Restricted Rights clause at FAR
 52.227-19.
  
 Gaussian, Inc.
 Carnegie Office Park, Building 6, Pittsburgh, PA 15106 USA
  
  
 ---------------------------------------------------------------
 Warning -- This program may not be used in any manner that
 competes with the business of Gaussian, Inc. or will provide
 assistance to any competitor of Gaussian, Inc.  The licensee
 of this program is prohibited from giving any competitor of
 Gaussian, Inc. access to this program.  By using this program,
 the user acknowledges that Gaussian, Inc. is engaged in the
 business of creating and licensing software in the field of
 computational chemistry and represents and warrants to the
 licensee that it is not a competitor of Gaussian, Inc. and that
 it will not use this program in any manner prohibited above.
 ---------------------------------------------------------------
  

 Cite this work as:
 Gaussian 98, Revision A.6,
 M. J. Frisch, G. W. Trucks, H. B. Schlegel, G. E. Scuseria, 
 M. A. Robb, J. R. Cheeseman, V. G. Zakrzewski, J. A. Montgomery, Jr., 
 R. E. Stratmann, J. C. Burant, S. Dapprich, J. M. Millam, 
 A. D. Daniels, K. N. Kudin, M. C. Strain, O. Farkas, J. Tomasi, 
 V. Barone, M. Cossi, R. Cammi, B. Mennucci, C. Pomelli, C. Adamo, 
 S. Clifford, J. Ochterski, G. A. Petersson, P. Y. Ayala, Q. Cui, 
 K. Morokuma, D. K. Malick, A. D. Rabuck, K. Raghavachari, 
 J. B. Foresman, J. Cioslowski, J. V. Ortiz, B. B. Stefanov, G. Liu, 
 A. Liashenko, P. Piskorz, I. Komaromi, R. Gomperts, R. L. Martin, 
 D. J. Fox, T. Keith, M. A. Al-Laham, C. Y. Peng, A. Nanayakkara, 
 C. Gonzalez, M. Challacombe, P. M. W. Gill, B. Johnson, W. Chen, 
 M. W. Wong, J. L. Andres, C. Gonzalez, M. Head-Gordon, 
 E. S. Replogle, and J. A. Pople, 
 Gaussian, Inc., Pittsburgh PA, 1998.

 **********************************************
 Gaussian 98:  IBM-RS6000-G98RevA.6 19-Oct-1998
                  26-Jun-2000 
 **********************************************
 %mem=24000000
 -------------
 #PM3 opt freq
 -------------
 1/14=-1,18=50,19=11,26=3,38=1/1,3;
 2/9=110,17=6,18=5/2;
 3/5=2,11=9,12=1,25=1,30=1/1;
 4/5=3,11=1,20=7,22=1,24=1,35=1/1,2;
 6/7=2,8=2,9=2,10=2/1;
 7//16;
 1/14=-1,18=50,19=11/3(1);
 99//99;
 2/9=110/2;
 3/5=2,11=9,12=1,25=1,30=1/1;
 4/5=5,11=1,16=2,20=7,22=1,24=1,35=1/1,2;
 7//16;
 1/14=-1,18=50,19=11/3(-4);
 2/9=110/2;
 6/7=2,8=2,9=2,10=2/1;
 99//99;
 Leave Link    1 at Mon Jun 26 18:22:05 2000, MaxMem=   24000000 cpu:       0.2
 (Enter /usr/local/apps/g98a6/g98/l101.exe)
 -------------------------------
 1H pyrazole C3H4N2 casno=288131
 -------------------------------
 Symbolic Z-matrix:
 Charge =  0 Multiplicity = 1
 H                    -1.9125    0.       -0.75938 
 C                    -1.08438   0.       -0.21875 
 H                     0.43438   0.       -1.63125 
 C                     0.15      0.       -0.68438 
 H                     1.9125    0.        0.37188 
 C                     0.92188   0.        0.375 
 N                     0.18125   0.        1.41875 
 H                    -1.74063   0.        1.63125 
 N                    -1.00313   0.        1.05313 
 Fast transformation storage of   1 MWords has been initialized.
 Leave Link  101 at Mon Jun 26 18:22:06 2000, MaxMem=   24000000 cpu:       0.3
 (Enter /usr/local/apps/g98a6/g98/l103.exe)

 GradGradGradGradGradGradGradGradGradGradGradGradGradGradGradGradGradGrad
 Berny optimization.
 Initialization pass.
                         ----------------------------
                         !    Initial Parameters    !
                         ! (Angstroms and Degrees)  !
 ------------------------                            -------------------------
 ! Name  Definition              Value          Derivative Info.             !
 -----------------------------------------------------------------------------
 ! R1    R(1,2)                  0.989          estimate D2E/DX2             !
 ! R2    R(2,4)                  1.3193         estimate D2E/DX2             !
 ! R3    R(2,9)                  1.2745         estimate D2E/DX2             !
 ! R4    R(3,4)                  0.9887         estimate D2E/DX2             !
 ! R5    R(4,6)                  1.3108         estimate D2E/DX2             !
 ! R6    R(5,6)                  0.9906         estimate D2E/DX2             !
 ! R7    R(6,7)                  1.2798         estimate D2E/DX2             !
 ! R8    R(7,9)                  1.2395         estimate D2E/DX2             !
 ! R9    R(8,9)                  0.9371         estimate D2E/DX2             !
 ! A1    A(1,2,4)              126.195          estimate D2E/DX2             !
 ! A2    A(1,2,9)              126.7929         estimate D2E/DX2             !
 ! A3    A(4,2,9)              107.012          estimate D2E/DX2             !
 ! A4    A(2,4,3)              127.3838         estimate D2E/DX2             !
 ! A5    A(2,4,6)              105.4104         estimate D2E/DX2             !
 ! A6    A(3,4,6)              127.2058         estimate D2E/DX2             !
 ! A7    A(4,6,5)              125.8968         estimate D2E/DX2             !
 ! A8    A(4,6,7)              108.5636         estimate D2E/DX2             !
 ! A9    A(5,6,7)              125.5395         estimate D2E/DX2             !
 ! A10   A(6,7,9)              108.203          estimate D2E/DX2             !
 ! A11   A(2,9,7)              110.811          estimate D2E/DX2             !
 ! A12   A(2,9,8)              124.4376         estimate D2E/DX2             !
 ! A13   A(7,9,8)              124.7513         estimate D2E/DX2             !
 ! D1    D(1,2,4,3)              0.             estimate D2E/DX2             !
 ! D2    D(1,2,4,6)            180.             estimate D2E/DX2             !
 ! D3    D(9,2,4,3)            180.             estimate D2E/DX2             !
 ! D4    D(1,2,9,7)            180.             estimate D2E/DX2             !
 ! D5    D(1,2,9,8)              0.             estimate D2E/DX2             !
 ! D6    D(4,2,9,7)              0.             estimate D2E/DX2             !
 ! D7    D(2,4,6,5)            180.             estimate D2E/DX2             !
 ! D8    D(2,4,6,7)              0.             estimate D2E/DX2             !
 ! D9    D(3,4,6,5)              0.             estimate D2E/DX2             !
 ! D10   D(4,6,7,9)              0.             estimate D2E/DX2             !
 ! D11   D(5,6,7,9)            180.             estimate D2E/DX2             !
 ! D12   D(6,7,9,2)              0.             estimate D2E/DX2             !
 ! D13   D(6,7,9,8)            180.             estimate D2E/DX2             !
 -----------------------------------------------------------------------------
 Trust Radius=3.00D-01 FncErr=1.00D-07 GrdErr=1.00D-06
 Number of steps in this run=  45 maximum allowed number of steps= 100.
 GradGradGradGradGradGradGradGradGradGradGradGradGradGradGradGradGradGrad

 Leave Link  103 at Mon Jun 26 18:22:06 2000, MaxMem=   24000000 cpu:       0.2
 (Enter /usr/local/apps/g98a6/g98/l202.exe)
                          Input orientation:                          
 ---------------------------------------------------------------------
 Center     Atomic     Atomic              Coordinates (Angstroms)
 Number     Number      Type              X           Y           Z
 ---------------------------------------------------------------------
    1          1             0       -1.912500    0.000000   -0.759375
    2          6             0       -1.084375    0.000000   -0.218750
    3          1             0        0.434375    0.000000   -1.631250
    4          6             0        0.150000    0.000000   -0.684375
    5          1             0        1.912500    0.000000    0.371875
    6          6             0        0.921875    0.000000    0.375000
    7          7             0        0.181250    0.000000    1.418750
    8          1             0       -1.740625    0.000000    1.631250
    9          7             0       -1.003125    0.000000    1.053125
 ---------------------------------------------------------------------
                    Distance matrix (angstroms):
                    1          2          3          4          5
     1  H    0.000000
     2  C    0.988972   0.000000
     3  H    2.503595   2.074068   0.000000
     4  C    2.063863   1.319276   0.988656   0.000000
     5  H    3.988778   3.054521   2.489450   2.054768   0.000000
     6  C    3.052947   2.092266   2.064630   1.310750   0.990630
     7  N    3.021261   2.069592   3.060486   2.103357   2.023159
     8  H    2.396796   1.962948   3.921037   2.989412   3.864110
     9  N    2.027836   1.274468   3.045041   2.085331   2.994156
                    6          7          8          9
     6  C    0.000000
     7  N    1.279820   0.000000
     8  H    2.943989   1.933587   0.000000
     9  N    2.040950   1.239526   0.937088   0.000000
 Stoichiometry    C3H4N2
 Framework group  CS[SG(C3H4N2)]
 Deg. of freedom   15
 Full point group                 CS      NOp   2
 Largest Abelian subgroup         CS      NOp   2
 Largest concise Abelian subgroup C1      NOp   1
                         Standard orientation:                         
 ---------------------------------------------------------------------
 Center     Atomic     Atomic              Coordinates (Angstroms)
 Number     Number      Type              X           Y           Z
 ---------------------------------------------------------------------
    1          1             0        1.974407    0.585689    0.000000
    2          6             0        1.028833    0.295936    0.000000
    3          1             0        1.140941   -1.775099    0.000000
    4          6             0        0.595873   -0.950271    0.000000
    5          1             0       -1.344123   -1.627388    0.000000
    6          6             0       -0.712074   -0.864589    0.000000
    7          7             0       -1.039336    0.372682    0.000000
    8          1             0        0.028336    1.984773    0.000000
    9          7             0        0.000000    1.048113    0.000000
 ---------------------------------------------------------------------
 Rotational constants (GHZ):     11.1878032     10.4520048      5.4036973
 Isotopes: H-1,C-12,H-1,C-12,H-1,C-12,N-14,H-1,N-14
 Leave Link  202 at Mon Jun 26 18:22:07 2000, MaxMem=   24000000 cpu:       0.1
 (Enter /usr/local/apps/g98a6/g98/l301.exe)
 Standard basis: VSTO-3G (5D, 7F)
 There are    19 symmetry adapted basis functions of A'  symmetry.
 There are     5 symmetry adapted basis functions of A"  symmetry.
 Crude estimate of integral set expansion from redundant integrals=1.000.
 Integral buffers will be    262144 words long.
 Raffenetti 1 integral format.
 Two-electron integral symmetry is turned on.
    24 basis functions       72 primitive gaussians
    13 alpha electrons       13 beta electrons
       nuclear repulsion energy        90.3352096667 Hartrees.
 Leave Link  301 at Mon Jun 26 18:22:07 2000, MaxMem=   24000000 cpu:       0.1
 (Enter /usr/local/apps/g98a6/g98/l401.exe)
 Simple Huckel Guess.
 Initial guess orbital symmetries:
       Occupied  (A') (A') (A') (A') (A') (A') (A") (A') (A') (A')
                 (A") (A") (A')
       Virtual   (A") (A") (A') (A') (A') (A') (A') (A') (A') (A')
                 (A')
 Leave Link  401 at Mon Jun 26 18:22:08 2000, MaxMem=   24000000 cpu:       0.9
 (Enter /usr/local/apps/g98a6/g98/l402.exe)
 RHF-PM3 calculation of energy and first derivatives.
 MO and density RWFs will be updated.
 Closed-shell calculation:      13 occupied levels.
 NNHCO=    0.
 References:
  H: (PM3): J. J. P. STEWART, J. COMP. CHEM.     10, 209 (1989).
  C: (PM3): J. J. P. STEWART, J. COMP. CHEM.     10, 209 (1989).
  N: (PM3): J. J. P. STEWART, J. COMP. CHEM.     10, 209 (1989).
 Ext34=T Pulay=F Camp-King=F BShift= 0.00D+00
 It=  1 PL= 1.14D+00 DiagD=T ESCF=   2218.523850 Diff= 2.18D+02 RMSDP= 3.00D-01.
 It=  2 PL= 1.28D-01 DiagD=T ESCF=     64.473500 Diff=-2.15D+02 RMSDP= 2.05D-02.
 It=  3 PL= 4.26D-02 DiagD=T ESCF=     51.656476 Diff=-1.28D+00 RMSDP= 9.68D-03.
 It=  4 PL= 1.69D-02 DiagD=F ESCF=     48.847621 Diff=-2.81D-01 RMSDP= 2.07D-03.
 It=  5 PL= 9.61D-03 DiagD=F ESCF=     49.392659 Diff= 5.45D-02 RMSDP= 1.16D-03.
 3-point extrapolation.
 It=  6 PL= 5.60D-03 DiagD=F ESCF=     49.338443 Diff=-5.42D-03 RMSDP= 1.62D-03.
 It=  7 PL= 2.75D-02 DiagD=F ESCF=     49.165929 Diff=-1.73D-02 RMSDP= 2.32D-03.
 It=  8 PL= 1.13D-02 DiagD=F ESCF=     49.426018 Diff= 2.60D-02 RMSDP= 1.37D-03.
 It=  9 PL= 6.64D-03 DiagD=F ESCF=     49.350797 Diff=-7.52D-03 RMSDP= 1.97D-03.
 It= 10 PL= 6.62D-04 DiagD=F ESCF=     49.252877 Diff=-9.79D-03 RMSDP= 8.98D-05.
 It= 11 PL= 4.08D-04 DiagD=F ESCF=     49.310750 Diff= 5.79D-03 RMSDP= 5.31D-05.
 It= 12 PL= 2.53D-04 DiagD=F ESCF=     49.310660 Diff=-9.02D-06 RMSDP= 7.56D-05.
 It= 13 PL= 2.52D-05 DiagD=F ESCF=     49.310547 Diff=-1.13D-05 RMSDP= 4.30D-06.
 It= 14 PL= 1.53D-05 DiagD=F ESCF=     49.310613 Diff= 6.61D-06 RMSDP= 2.41D-06.
 It= 15 PL= 9.15D-06 DiagD=F ESCF=     49.310613 Diff=-2.06D-08 RMSDP= 3.35D-06.
 Energy=    0.181216689039 NIter=  16.
 Dipole moment=  0.690576  0.681234  0.000000
 Leave Link  402 at Mon Jun 26 18:22:08 2000, MaxMem=   24000000 cpu:       0.0
 (Enter /usr/local/apps/g98a6/g98/l601.exe)
 Copying SCF densities to generalized density rwf, ISCF=0 IROHF=0.

 **********************************************************************

            Population analysis using the SCF density.

 **********************************************************************

 Orbital Symmetries:
       Occupied  (A') (A') (A') (A') (A') (A') (A") (A') (A') (A')
                 (A') (A") (A")
       Virtual   (A") (A') (A") (A') (A') (A') (A') (A') (A') (A')
                 (A')
  The electronic state is 1-A'.
 Alpha  occ. eigenvalues --   -1.55696  -1.08256  -1.03471  -0.79765  -0.78928
 Alpha  occ. eigenvalues --   -0.71225  -0.58959  -0.58312  -0.54483  -0.52629
 Alpha  occ. eigenvalues --   -0.40979  -0.38015  -0.37632
 Alpha virt. eigenvalues --    0.04325   0.06334   0.07237   0.12298   0.14374
 Alpha virt. eigenvalues --    0.15919   0.16669   0.17526   0.21640   0.21871
 Alpha virt. eigenvalues --    0.27018
          Condensed to atoms (all electrons):
              1          2          3          4          5          6
  1  H    0.499792   0.352199  -0.003801  -0.073081  -0.000785   0.011240
  2  C    0.352199   3.701831  -0.069409   0.409916   0.010567  -0.132052
  3  H   -0.003801  -0.069409   0.519891   0.373891  -0.003445  -0.067927
  4  C   -0.073081   0.409916   0.373891   3.426770  -0.085002   0.386286
  5  H   -0.000785   0.010567  -0.003445  -0.085002   0.506371   0.368076
  6  C    0.011240  -0.132052  -0.067927   0.386286   0.368076   3.387727
  7  N    0.003360  -0.037348   0.003754  -0.036772  -0.043763   0.268449
  8  H   -0.008085  -0.112299  -0.001205   0.012522  -0.001537   0.012533
  9  N   -0.036995   0.390748   0.005413  -0.066443   0.005753  -0.030895
              7          8          9
  1  H    0.003360  -0.008085  -0.036995
  2  C   -0.037348  -0.112299   0.390748
  3  H    0.003754  -0.001205   0.005413
  4  C   -0.036772   0.012522  -0.066443
  5  H   -0.043763  -0.001537   0.005753
  6  C    0.268449   0.012533  -0.030895
  7  N    4.908431  -0.055717   0.289796
  8  H   -0.055717   0.709872   0.346544
  9  N    0.289796   0.346544   3.570350
 Total atomic charges:
              1
  1  H    0.256156
  2  C   -0.514152
  3  H    0.242838
  4  C   -0.348087
  5  H    0.243766
  6  C   -0.203435
  7  N   -0.300189
  8  H    0.097373
  9  N    0.525731
 Sum of Mulliken charges=   0.00000
 Atomic charges with hydrogens summed into heavy atoms:
              1
  1  H    0.000000
  2  C   -0.257997
  3  H    0.000000
  4  C   -0.105250
  5  H    0.000000
  6  C    0.040330
  7  N   -0.300189
  8  H    0.000000
  9  N    0.623105
 Sum of Mulliken charges=   0.00000
 Leave Link  601 at Mon Jun 26 18:22:08 2000, MaxMem=   24000000 cpu:       0.0
 (Enter /usr/local/apps/g98a6/g98/l716.exe)
 Dipole        = 6.90576280D-01 6.81234491D-01 3.68790671D-16
 ***** Axes restored to original set *****
 -------------------------------------------------------------------
 Center     Atomic                   Forces (Hartrees/Bohr)
 Number     Number              X              Y              Z
 -------------------------------------------------------------------
    1          1          -0.074988674    0.000000000   -0.045774857
    2          6          -0.099213367    0.000000000   -0.109318676
    3          1           0.023697253    0.000000000   -0.083071677
    4          6           0.017827390    0.000000000   -0.106914294
    5          1           0.084323647    0.000000000    0.008142296
    6          6           0.130163944    0.000000000   -0.009504417
    7          7           0.083279906    0.000000000    0.207792337
    8          1          -0.032856909    0.000000000    0.035386327
    9          7          -0.132233189    0.000000000    0.103262961
 -------------------------------------------------------------------
 Cartesian Forces:  Max     0.207792337 RMS     0.075406806
 Leave Link  716 at Mon Jun 26 18:22:08 2000, MaxMem=   24000000 cpu:       0.0
 (Enter /usr/local/apps/g98a6/g98/l103.exe)

 GradGradGradGradGradGradGradGradGradGradGradGradGradGradGradGradGradGrad
 Berny optimization.
 Internal  Forces:  Max     0.200393525 RMS     0.074503836
 Search for a local minimum.
 Step number   1 out of a maximum of  45
 All quantities printed in internal units (Hartrees-Bohrs-Radians)
 Swaping is turned off.
 Second derivative matrix not updated -- first step.
 lowest eigenvalue of the Hessian is  0.1236E-01.
 RFO step:  Lambda= 4.85649252D-02.
 Linear search not attempted -- option 19 set.
 Iteration  1 RMS(Cart)=  0.11722552 RMS(Int)=  0.01258421
 Iteration  2 RMS(Cart)=  0.01414981 RMS(Int)=  0.00008081
 Iteration  3 RMS(Cart)=  0.00001937 RMS(Int)=  0.00007789
 Iteration  4 RMS(Cart)=  0.00000000 RMS(Int)=  0.00007789
 Variable       Old X    -DE/DX   Delta X   Delta X   Delta X     New X
                                 (Linear)    (Quad)   (Total)
    R1        1.86889   0.08782   0.00000   0.14277   0.14277   2.01166
    R2        2.49307   0.16552   0.00000   0.22251   0.22263   2.71570
    R3        2.40839   0.20039   0.00000   0.24622   0.24628   2.65468
    R4        1.86829   0.08638   0.00000   0.14431   0.14431   2.01260
    R5        2.47696   0.18711   0.00000   0.24857   0.24857   2.72553
    R6        1.87202   0.08430   0.00000   0.13781   0.13781   2.00983
    R7        2.41851   0.17507   0.00000   0.22329   0.22316   2.64167
    R8        2.34237   0.18938   0.00000   0.20865   0.20857   2.55093
    R9        1.77084   0.04769   0.00000   0.05967   0.05967   1.83051
    A1        2.20252   0.00664   0.00000   0.02480   0.02470   2.22722
    A2        2.21295   0.00166   0.00000   0.00820   0.00810   2.22105
    A3        1.86771  -0.00831   0.00000  -0.03300  -0.03279   1.83492
    A4        2.22327  -0.00786   0.00000  -0.01565  -0.01572   2.20754
    A5        1.83976   0.01348   0.00000   0.01743   0.01758   1.85733
    A6        2.22016  -0.00562   0.00000  -0.00178  -0.00185   2.21831
    A7        2.19731   0.00735   0.00000   0.02401   0.02406   2.22137
    A8        1.89479   0.00103   0.00000  -0.00027  -0.00036   1.89443
    A9        2.19108  -0.00839   0.00000  -0.02374  -0.02370   2.16738
   A10        1.88850  -0.00632   0.00000  -0.01755  -0.01781   1.87069
   A11        1.93402   0.00011   0.00000   0.03338   0.03339   1.96740
   A12        2.17185   0.00665   0.00000   0.00478   0.00477   2.17662
   A13        2.17732  -0.00677   0.00000  -0.03816  -0.03816   2.13916
    D1        0.00000   0.00000   0.00000   0.00000   0.00000   0.00000
    D2        3.14159   0.00000   0.00000   0.00000   0.00000   3.14159
    D3        3.14159   0.00000   0.00000   0.00000   0.00000   3.14159
    D4        3.14159   0.00000   0.00000   0.00000   0.00000   3.14159
    D5        0.00000   0.00000   0.00000   0.00000   0.00000   0.00000
    D6        0.00000   0.00000   0.00000   0.00000   0.00000   0.00000
    D7        3.14159   0.00000   0.00000   0.00000   0.00000   3.14159
    D8        0.00000   0.00000   0.00000   0.00000   0.00000   0.00000
    D9        0.00000   0.00000   0.00000   0.00000   0.00000   0.00000
   D10        0.00000   0.00000   0.00000   0.00000   0.00000   0.00000
   D11        3.14159   0.00000   0.00000   0.00000   0.00000   3.14159
   D12        0.00000   0.00000   0.00000   0.00000   0.00000   0.00000
   D13        3.14159   0.00000   0.00000   0.00000   0.00000   3.14159
         Item               Value     Threshold  Converged?
 Maximum Force            0.200394     0.000450     NO 
 RMS     Force            0.074504     0.000300     NO 
 Maximum Displacement     0.334679     0.001800     NO 
 RMS     Displacement     0.130101     0.001200     NO 
 Predicted change in Energy=-1.117748D-01
 GradGradGradGradGradGradGradGradGradGradGradGradGradGradGradGradGradGrad

 Leave Link  103 at Mon Jun 26 18:22:10 2000, MaxMem=   24000000 cpu:       0.1
 (Enter /usr/local/apps/g98a6/g98/l202.exe)
                          Input orientation:                          
 ---------------------------------------------------------------------
 Center     Atomic     Atomic              Coordinates (Angstroms)
 Number     Number      Type              X           Y           Z
 ---------------------------------------------------------------------
    1          1             0       -1.877140    0.000000   -1.230672
    2          6             0       -0.980079    0.000000   -0.657529
    3          1             0        0.677400    0.000000   -2.164951
    4          6             0        0.371923    0.000000   -1.144677
    5          1             0        2.287782    0.000000    0.038073
    6          6             0        1.224402    0.000000    0.018714
    7          7             0        0.418105    0.000000    1.160663
    8          1             0       -1.614009    0.000000    1.357331
    9          7             0       -0.865415    0.000000    0.742580
 ---------------------------------------------------------------------
                    Distance matrix (angstroms):
                    1          2          3          4          5
     1  H    0.000000
     2  C    1.064525   0.000000
     3  H    2.720028   2.240437   0.000000
     4  C    2.250707   1.437088   1.065023   0.000000
     5  H    4.353882   3.341074   2.728854   2.251535   0.000000
     6  C    3.343730   2.305870   2.251133   1.442289   1.063556
     7  N    3.314609   2.293630   3.335707   2.305802   2.180802
     8  H    2.601345   2.112233   4.202026   3.194365   4.118787
     9  N    2.217501   1.404796   3.291506   2.256710   3.230940
                    6          7          8          9
     6  C    0.000000
     7  N    1.397913   0.000000
     8  H    3.138227   2.041609   0.000000
     9  N    2.211632   1.349895   0.968665   0.000000
 Stoichiometry    C3H4N2
 Framework group  CS[SG(C3H4N2)]
 Deg. of freedom   15
 Full point group                 CS      NOp   2
 Largest Abelian subgroup         CS      NOp   2
 Largest concise Abelian subgroup C1      NOp   1
                         Standard orientation:                         
 ---------------------------------------------------------------------
 Center     Atomic     Atomic              Coordinates (Angstroms)
 Number     Number      Type              X           Y           Z
 ---------------------------------------------------------------------
    1          1             0        2.158046    0.612043    0.000000
    2          6             0        1.139940    0.301121    0.000000
    3          1             0        1.211983   -1.938157    0.000000
    4          6             0        0.633658   -1.043833    0.000000
    5          1             0       -1.509274   -1.734669    0.000000
    6          6             0       -0.804738   -0.937937    0.000000
    7          7             0       -1.150788    0.416467    0.000000
    8          1             0        0.017745    2.090592    0.000000
    9          7             0        0.000000    1.122090    0.000000
 ---------------------------------------------------------------------
 Rotational constants (GHZ):      9.1765507      8.9600163      4.5334954
 Isotopes: H-1,C-12,H-1,C-12,H-1,C-12,N-14,H-1,N-14
 Leave Link  202 at Mon Jun 26 18:22:11 2000, MaxMem=   24000000 cpu:       0.1
 (Enter /usr/local/apps/g98a6/g98/l301.exe)
 Standard basis: VSTO-3G (5D, 7F)
 There are    19 symmetry adapted basis functions of A'  symmetry.
 There are     5 symmetry adapted basis functions of A"  symmetry.
 Crude estimate of integral set expansion from redundant integrals=1.000.
 Integral buffers will be    262144 words long.
 Raffenetti 1 integral format.
 Two-electron integral symmetry is turned on.
    24 basis functions       72 primitive gaussians
    13 alpha electrons       13 beta electrons
       nuclear repulsion energy        82.9721507267 Hartrees.
 Leave Link  301 at Mon Jun 26 18:22:11 2000, MaxMem=   24000000 cpu:       0.2
 (Enter /usr/local/apps/g98a6/g98/l401.exe)
 Initial guess read from the read-write file:
 Guess basis functions will be translated to current atomic coordinates.
 Initial guess orbital symmetries:
       Occupied  (A') (A') (A') (A') (A') (A') (A") (A') (A') (A')
                 (A') (A") (A")
       Virtual   (A") (A') (A") (A') (A') (A') (A') (A') (A') (A')
                 (A')
 Leave Link  401 at Mon Jun 26 18:22:11 2000, MaxMem=   24000000 cpu:       0.1
 (Enter /usr/local/apps/g98a6/g98/l402.exe)
 RHF-PM3 calculation of energy and first derivatives.
 MO and density RWFs will be updated.
 Closed-shell calculation:      13 occupied levels.
 NNHCO=    0.
 References:
  H: (PM3): J. J. P. STEWART, J. COMP. CHEM.     10, 209 (1989).
  C: (PM3): J. J. P. STEWART, J. COMP. CHEM.     10, 209 (1989).
  N: (PM3): J. J. P. STEWART, J. COMP. CHEM.     10, 209 (1989).
 Ext34=T Pulay=F Camp-King=F BShift= 0.00D+00
 It=  1 PL= 8.31D-01 DiagD=T ESCF=    235.372240 Diff= 1.92D+01 RMSDP= 3.00D-01.
 It=  2 PL= 1.28D-01 DiagD=T ESCF=     36.882041 Diff=-1.98D+01 RMSDP= 1.75D-02.
 It=  3 PL= 3.86D-02 DiagD=T ESCF=     24.082926 Diff=-1.28D+00 RMSDP= 7.28D-03.
 It=  4 PL= 1.11D-02 DiagD=F ESCF=     22.377239 Diff=-1.71D-01 RMSDP= 1.06D-03.
 It=  5 PL= 5.92D-03 DiagD=F ESCF=     22.821153 Diff= 4.44D-02 RMSDP= 5.82D-04.
 It=  6 PL= 3.78D-03 DiagD=F ESCF=     22.811528 Diff=-9.63D-04 RMSDP= 9.39D-04.
 It=  7 PL= 3.76D-04 DiagD=F ESCF=     22.796415 Diff=-1.51D-03 RMSDP= 5.64D-05.
 It=  8 PL= 1.96D-04 DiagD=F ESCF=     22.805809 Diff= 9.39D-04 RMSDP= 2.85D-05.
 It=  9 PL= 1.19D-04 DiagD=F ESCF=     22.805784 Diff=-2.50D-06 RMSDP= 3.60D-05.
 It= 10 PL= 2.98D-05 DiagD=F ESCF=     22.805759 Diff=-2.43D-06 RMSDP= 3.69D-06.
 It= 11 PL= 1.83D-05 DiagD=F ESCF=     22.805773 Diff= 1.34D-06 RMSDP= 2.12D-06.
 It= 12 PL= 1.17D-05 DiagD=F ESCF=     22.805773 Diff=-1.31D-08 RMSDP= 3.61D-06.
 Energy=    0.083811300541 NIter=  13.
 Dipole moment=  0.827236  0.441467  0.000000
 Leave Link  402 at Mon Jun 26 18:22:11 2000, MaxMem=   24000000 cpu:       0.0
 (Enter /usr/local/apps/g98a6/g98/l716.exe)
 Dipole        = 8.27236213D-01 4.41466816D-01 5.37960715D-17
 ***** Axes restored to original set *****
 -------------------------------------------------------------------
 Center     Atomic                   Forces (Hartrees/Bohr)
 Number     Number              X              Y              Z
 -------------------------------------------------------------------
    1          1          -0.014982448    0.000000000   -0.006322500
    2          6           0.063877296    0.000000000    0.013931268
    3          1           0.003969842    0.000000000   -0.012789788
    4          6          -0.025999909    0.000000000    0.054898164
    5          1           0.016187929    0.000000000    0.003822659
    6          6          -0.060448173    0.000000000   -0.000488288
    7          7           0.015419823    0.000000000   -0.033861515
    8          1          -0.008414414    0.000000000    0.012401961
    9          7           0.010390053    0.000000000   -0.031591962
 -------------------------------------------------------------------
 Cartesian Forces:  Max     0.063877296 RMS     0.023612497
 Leave Link  716 at Mon Jun 26 18:22:12 2000, MaxMem=   24000000 cpu:       0.0
 (Enter /usr/local/apps/g98a6/g98/l103.exe)

 GradGradGradGradGradGradGradGradGradGradGradGradGradGradGradGradGradGrad
 Berny optimization.
 Use GDIIS/GDPIS optimizer.
 Internal  Forces:  Max     0.043044079 RMS     0.013306239
 Search for a local minimum.
 Step number   2 out of a maximum of  45
 All quantities printed in internal units (Hartrees-Bohrs-Radians)
 Swaping is turned off.
   2   1  0.5599581E-01  0.6638609E-01  0.8434871    
 Update second derivatives using information from points  1  2
 Trust test= 8.71D-01 RLast= 5.79D-01 DXMaxT set to 4.24D-01
 lowest eigenvalue of the Hessian is  0.1052E-01.
 RFO step:  Lambda= 1.56747851D-03.
 DIIS coeff's:      0.93536      0.06464
 Cosine:  1.000 >  0.866
 Length:  1.000
 GDIIS step was calculated using  2 of the last  2 vectors.
 Iteration  1 RMS(Cart)=  0.01354684 RMS(Int)=  0.00013082
 Iteration  2 RMS(Cart)=  0.00015864 RMS(Int)=  0.00002067
 Iteration  3 RMS(Cart)=  0.00000002 RMS(Int)=  0.00002067
 Variable       Old X    -DE/DX   Delta X   Delta X   Delta X     New X
                                  (DIIS)     (GDIIS)  (Total)
    R1        2.01166   0.01603  -0.00923   0.04204   0.03282   2.04447
    R2        2.71570  -0.04304  -0.01439  -0.03879  -0.05316   2.66255
    R3        2.65468  -0.02434  -0.01592  -0.00564  -0.02158   2.63310
    R4        2.01260   0.01339  -0.00933   0.03693   0.02761   2.04021
    R5        2.72553  -0.03159  -0.01607  -0.02173  -0.03776   2.68777
    R6        2.00983   0.01625  -0.00891   0.04212   0.03322   2.04305
    R7        2.64167  -0.03917  -0.01442  -0.02799  -0.04241   2.59926
    R8        2.55093  -0.01177  -0.01348   0.00631  -0.00720   2.54373
    R9        1.83051   0.01437  -0.00386   0.02690   0.02305   1.85356
    A1        2.22722   0.00179  -0.00160   0.01366   0.01207   2.23928
    A2        2.22105  -0.00372  -0.00052  -0.01880  -0.01932   2.20173
    A3        1.83492   0.00193   0.00212   0.00513   0.00725   1.84217
    A4        2.20754  -0.00139   0.00102  -0.00202  -0.00103   2.20651
    A5        1.85733   0.00304  -0.00114   0.00461   0.00352   1.86086
    A6        2.21831  -0.00166   0.00012  -0.00259  -0.00249   2.21582
    A7        2.22137   0.00163  -0.00155   0.02141   0.01984   2.24121
    A8        1.89443   0.00382   0.00002   0.00499   0.00505   1.89949
    A9        2.16738  -0.00546   0.00153  -0.02641  -0.02489   2.14249
   A10        1.87069  -0.00281   0.00115  -0.00239  -0.00128   1.86941
   A11        1.96740  -0.00599  -0.00216  -0.01234  -0.01455   1.95286
   A12        2.17662   0.00688  -0.00031   0.03103   0.03074   2.20737
   A13        2.13916  -0.00089   0.00247  -0.01869  -0.01620   2.12296
    D1        0.00000   0.00000   0.00000   0.00000   0.00000   0.00000
    D2        3.14159   0.00000   0.00000   0.00000   0.00000   3.14159
    D3        3.14159   0.00000   0.00000   0.00000   0.00000   3.14159
    D4        3.14159   0.00000   0.00000   0.00000   0.00000   3.14159
    D5        0.00000   0.00000   0.00000   0.00000   0.00000   0.00000
    D6        0.00000   0.00000   0.00000   0.00000   0.00000   0.00000
    D7        3.14159   0.00000   0.00000   0.00000   0.00000   3.14159
    D8        0.00000   0.00000   0.00000   0.00000   0.00000   0.00000
    D9        0.00000   0.00000   0.00000   0.00000   0.00000   0.00000
   D10        0.00000   0.00000   0.00000   0.00000   0.00000   0.00000
   D11        3.14159   0.00000   0.00000   0.00000   0.00000   3.14159
   D12        0.00000   0.00000   0.00000   0.00000   0.00000   0.00000
   D13        3.14159   0.00000   0.00000   0.00000   0.00000   3.14159
         Item               Value     Threshold  Converged?
 Maximum Force            0.043044     0.000450     NO 
 RMS     Force            0.013306     0.000300     NO 
 Maximum Displacement     0.035349     0.001800     NO 
 RMS     Displacement     0.013605     0.001200     NO 
 Predicted change in Energy=-4.068557D-03
 GradGradGradGradGradGradGradGradGradGradGradGradGradGradGradGradGradGrad

 Leave Link  103 at Mon Jun 26 18:22:12 2000, MaxMem=   24000000 cpu:       0.1
 (Enter /usr/local/apps/g98a6/g98/l202.exe)
                          Input orientation:                          
 ---------------------------------------------------------------------
 Center     Atomic     Atomic              Coordinates (Angstroms)
 Number     Number      Type              X           Y           Z
 ---------------------------------------------------------------------
    1          1             0       -1.868031    0.000000   -1.246860
    2          6             0       -0.950767    0.000000   -0.673177
    3          1             0        0.687048    0.000000   -2.181394
    4          6             0        0.375930    0.000000   -1.147561
    5          1             0        2.298244    0.000000    0.038737
    6          6             0        1.217848    0.000000   -0.001204
    7          7             0        0.431414    0.000000    1.127264
    8          1             0       -1.595235    0.000000    1.354901
    9          7             0       -0.850492    0.000000    0.716587
 ---------------------------------------------------------------------
                    Distance matrix (angstroms):
                    1          2          3          4          5
     1  H    0.000000
     2  C    1.081890   0.000000
     3  H    2.720622   2.226468   0.000000
     4  C    2.246157   1.408959   1.079632   0.000000
     5  H    4.360115   3.326093   2.743161   2.258892   0.000000
     6  C    3.327808   2.270339   2.243875   1.422308   1.081134
     7  N    3.305134   2.269805   3.318519   2.275502   2.161005
     8  H    2.616023   2.128013   4.208824   3.185563   4.109923
     9  N    2.211450   1.393377   3.280598   2.231403   3.220872
                    6          7          8          9
     6  C    0.000000
     7  N    1.375470   0.000000
     8  H    3.122893   2.039394   0.000000
     9  N    2.189351   1.346083   0.980861   0.000000
 Stoichiometry    C3H4N2
 Framework group  CS[SG(C3H4N2)]
 Deg. of freedom   15
 Full point group                 CS      NOp   2
 Largest Abelian subgroup         CS      NOp   2
 Largest concise Abelian subgroup C1      NOp   1
                         Standard orientation:                         
 ---------------------------------------------------------------------
 Center     Atomic     Atomic              Coordinates (Angstroms)
 Number     Number      Type              X           Y           Z
 ---------------------------------------------------------------------
    1          1             0        2.155820    0.621752    0.000000
    2          6             0        1.125165    0.292761    0.000000
    3          1             0        1.217136   -1.931806    0.000000
    4          6             0        0.629475   -1.026124    0.000000
    5          1             0       -1.518287   -1.725916    0.000000
    6          6             0       -0.789404   -0.927430    0.000000
    7          7             0       -1.142006    0.402078    0.000000
    8          1             0       -0.005581    2.095496    0.000000
    9          7             0        0.000000    1.114652    0.000000
 ---------------------------------------------------------------------
 Rotational constants (GHZ):      9.3478121      9.1468408      4.6231172
 Isotopes: H-1,C-12,H-1,C-12,H-1,C-12,N-14,H-1,N-14
 Leave Link  202 at Mon Jun 26 18:22:13 2000, MaxMem=   24000000 cpu:       0.0
 (Enter /usr/local/apps/g98a6/g98/l301.exe)
 Standard basis: VSTO-3G (5D, 7F)
 There are    19 symmetry adapted basis functions of A'  symmetry.
 There are     5 symmetry adapted basis functions of A"  symmetry.
 Crude estimate of integral set expansion from redundant integrals=1.000.
 Integral buffers will be    262144 words long.
 Raffenetti 1 integral format.
 Two-electron integral symmetry is turned on.
    24 basis functions       72 primitive gaussians
    13 alpha electrons       13 beta electrons
       nuclear repulsion energy        83.5655805551 Hartrees.
 Leave Link  301 at Mon Jun 26 18:22:13 2000, MaxMem=   24000000 cpu:       0.1
 (Enter /usr/local/apps/g98a6/g98/l401.exe)
 Initial guess read from the read-write file:
 Guess basis functions will be translated to current atomic coordinates.
 Initial guess orbital symmetries:
       Occupied  (A') (A') (A') (A') (A') (A') (A') (A') (A") (A')
                 (A') (A") (A")
       Virtual   (A") (A") (A') (A') (A') (A') (A') (A') (A') (A')
                 (A')
 Leave Link  401 at Mon Jun 26 18:22:13 2000, MaxMem=   24000000 cpu:       0.1
 (Enter /usr/local/apps/g98a6/g98/l402.exe)
 RHF-PM3 calculation of energy and first derivatives.
 MO and density RWFs will be updated.
 Closed-shell calculation:      13 occupied levels.
 NNHCO=    0.
 References:
  H: (PM3): J. J. P. STEWART, J. COMP. CHEM.     10, 209 (1989).
  C: (PM3): J. J. P. STEWART, J. COMP. CHEM.     10, 209 (1989).
  N: (PM3): J. J. P. STEWART, J. COMP. CHEM.     10, 209 (1989).
 Ext34=T Pulay=F Camp-King=F BShift= 0.00D+00
 It=  1 PL= 8.08D-01 DiagD=T ESCF=    208.815212 Diff= 1.65D+01 RMSDP= 3.00D-01.
 It=  2 PL= 1.21D-01 DiagD=T ESCF=     34.045214 Diff=-1.75D+01 RMSDP= 1.63D-02.
 It=  3 PL= 3.61D-02 DiagD=T ESCF=     22.571208 Diff=-1.15D+00 RMSDP= 7.37D-03.
 It=  4 PL= 8.33D-03 DiagD=F ESCF=     20.877203 Diff=-1.69D-01 RMSDP= 1.04D-03.
 It=  5 PL= 4.50D-03 DiagD=F ESCF=     21.346279 Diff= 4.69D-02 RMSDP= 5.74D-04.
 It=  6 PL= 2.76D-03 DiagD=F ESCF=     21.336363 Diff=-9.92D-04 RMSDP= 8.65D-04.
 It=  7 PL= 2.93D-04 DiagD=F ESCF=     21.322667 Diff=-1.37D-03 RMSDP= 4.40D-05.
 It=  8 PL= 1.62D-04 DiagD=F ESCF=     21.330971 Diff= 8.30D-04 RMSDP= 2.10D-05.
 It=  9 PL= 8.99D-05 DiagD=F ESCF=     21.330956 Diff=-1.50D-06 RMSDP= 2.38D-05.
 It= 10 PL= 1.72D-05 DiagD=F ESCF=     21.330944 Diff=-1.20D-06 RMSDP= 2.13D-06.
 It= 11 PL= 1.01D-05 DiagD=F ESCF=     21.330951 Diff= 6.70D-07 RMSDP= 1.09D-06.
 Energy=    0.078391325677 NIter=  12.
 Dipole moment=  0.822836  0.453763  0.000000
 Leave Link  402 at Mon Jun 26 18:22:13 2000, MaxMem=   24000000 cpu:       0.0
 (Enter /usr/local/apps/g98a6/g98/l716.exe)
 Dipole        = 8.22836129D-01 4.53763295D-01 3.95547936D-16
 ***** Axes restored to original set *****
 -------------------------------------------------------------------
 Center     Atomic                   Forces (Hartrees/Bohr)
 Number     Number              X              Y              Z
 -------------------------------------------------------------------
    1          1          -0.004787897    0.000000000   -0.001053112
    2          6           0.021294270    0.000000000    0.002284023
    3          1           0.001476272    0.000000000   -0.003785351
    4          6          -0.010262382    0.000000000    0.016088340
    5          1           0.004505449    0.000000000    0.001678780
    6          6          -0.018240087    0.000000000    0.002884764
    7          7           0.010086534    0.000000000   -0.011872403
    8          1          -0.001868143    0.000000000    0.004216251
    9          7          -0.002204017    0.000000000   -0.010441292
 -------------------------------------------------------------------
 Cartesian Forces:  Max     0.021294270 RMS     0.007710820
 Leave Link  716 at Mon Jun 26 18:22:13 2000, MaxMem=   24000000 cpu:       0.0
 (Enter /usr/local/apps/g98a6/g98/l103.exe)

 GradGradGradGradGradGradGradGradGradGradGradGradGradGradGradGradGradGrad
 Berny optimization.
 Use GDIIS/GDPIS optimizer.
 Internal  Forces:  Max     0.014839714 RMS     0.004257532
 Search for a local minimum.
 Step number   3 out of a maximum of  45
 All quantities printed in internal units (Hartrees-Bohrs-Radians)
 Swaping is turned off.
   2   1 -0.2606791E-02  0.2997975E-02  0.8695170    
 Update second derivatives using information from points  2  3
 Trust test= 1.33D+00 RLast= 1.14D-01 DXMaxT set to 4.24D-01
 lowest eigenvalue of the Hessian is  0.8316E-02.
 RFO step:  Lambda= 2.61831822D-04.
 DIIS coeff's:      1.54576     -0.54125     -0.00451
 Cosine:  1.000 >  0.866
 Length:  1.014
 GDIIS step was calculated using  3 of the last  3 vectors.
 Iteration  1 RMS(Cart)=  0.00828659 RMS(Int)=  0.00006740
 Iteration  2 RMS(Cart)=  0.00007473 RMS(Int)=  0.00001699
 Iteration  3 RMS(Cart)=  0.00000000 RMS(Int)=  0.00001699
 Variable       Old X    -DE/DX   Delta X   Delta X   Delta X     New X
                                  (DIIS)     (GDIIS)  (Total)
    R1        2.04447   0.00462   0.01855  -0.00396   0.01460   2.05907
    R2        2.66255  -0.01389  -0.02801   0.00099  -0.02699   2.63555
    R3        2.63310  -0.00706  -0.01067   0.00174  -0.00894   2.62416
    R4        2.04021   0.00405   0.01572  -0.00283   0.01288   2.05309
    R5        2.68777  -0.00777  -0.01949   0.00565  -0.01381   2.67396
    R6        2.04305   0.00456   0.01875  -0.00435   0.01440   2.05745
    R7        2.59926  -0.01484  -0.02214  -0.00394  -0.02609   2.57317
    R8        2.54373   0.00013  -0.00299   0.00656   0.00354   2.54727
    R9        1.85356   0.00416   0.01285  -0.00257   0.01027   1.86383
    A1        2.23928   0.00137   0.00670   0.00655   0.01324   2.25252
    A2        2.20173  -0.00199  -0.01051  -0.00712  -0.01763   2.18410
    A3        1.84217   0.00062   0.00381   0.00057   0.00439   1.84656
    A4        2.20651  -0.00038  -0.00063   0.00231   0.00165   2.20816
    A5        1.86086   0.00142   0.00200   0.00085   0.00290   1.86376
    A6        2.21582  -0.00104  -0.00137  -0.00316  -0.00455   2.21126
    A7        2.24121   0.00090   0.01094   0.00344   0.01437   2.25558
    A8        1.89949   0.00128   0.00276  -0.00167   0.00110   1.90059
    A9        2.14249  -0.00218  -0.01369  -0.00177  -0.01547   2.12702
   A10        1.86941  -0.00058  -0.00078   0.00306   0.00223   1.87164
   A11        1.95286  -0.00273  -0.00779  -0.00281  -0.01063   1.94223
   A12        2.20737   0.00321   0.01680   0.00579   0.02261   2.22997
   A13        2.12296  -0.00047  -0.00901  -0.00298  -0.01198   2.11098
    D1        0.00000   0.00000   0.00000   0.00000   0.00000   0.00000
    D2        3.14159   0.00000   0.00000   0.00000   0.00000   3.14159
    D3        3.14159   0.00000   0.00000   0.00000   0.00000   3.14159
    D4        3.14159   0.00000   0.00000   0.00000   0.00000   3.14159
    D5        0.00000   0.00000   0.00000   0.00000   0.00000   0.00000
    D6        0.00000   0.00000   0.00000   0.00000   0.00000   0.00000
    D7        3.14159   0.00000   0.00000   0.00000   0.00000   3.14159
    D8        0.00000   0.00000   0.00000   0.00000   0.00000   0.00000
    D9        0.00000   0.00000   0.00000   0.00000   0.00000   0.00000
   D10        0.00000   0.00000   0.00000   0.00000   0.00000   0.00000
   D11        3.14159   0.00000   0.00000   0.00000   0.00000   3.14159
   D12        0.00000   0.00000   0.00000   0.00000   0.00000   0.00000
   D13        3.14159   0.00000   0.00000   0.00000   0.00000   3.14159
         Item               Value     Threshold  Converged?
 Maximum Force            0.014840     0.000450     NO 
 RMS     Force            0.004258     0.000300     NO 
 Maximum Displacement     0.023423     0.001800     NO 
 RMS     Displacement     0.008313     0.001200     NO 
 Predicted change in Energy=-6.990215D-04
 GradGradGradGradGradGradGradGradGradGradGradGradGradGradGradGradGradGrad

 Leave Link  103 at Mon Jun 26 18:22:14 2000, MaxMem=   24000000 cpu:       0.1
 (Enter /usr/local/apps/g98a6/g98/l202.exe)
                          Input orientation:                          
 ---------------------------------------------------------------------
 Center     Atomic     Atomic              Coordinates (Angstroms)
 Number     Number      Type              X           Y           Z
 ---------------------------------------------------------------------
    1          1             0       -1.872684    0.000000   -1.239973
    2          6             0       -0.942432    0.000000   -0.672620
    3          1             0        0.688620    0.000000   -2.178789
    4          6             0        0.371749    0.000000   -1.139576
    5          1             0        2.297746    0.000000    0.054993
    6          6             0        1.210375    0.000000    0.000131
    7          7             0        0.434084    0.000000    1.118836
    8          1             0       -1.589702    0.000000    1.366952
    9          7             0       -0.851342    0.000000    0.713037
 ---------------------------------------------------------------------
                    Distance matrix (angstroms):
                    1          2          3          4          5
     1  H    0.000000
     2  C    1.089614   0.000000
     3  H    2.727940   2.220107   0.000000
     4  C    2.246677   1.394675   1.086449   0.000000
     5  H    4.366855   3.320870   2.753011   2.266376   0.000000
     6  C    3.323117   2.255476   2.240517   1.415000   1.088754
     7  N    3.299265   2.259227   3.307433   2.259272   2.145926
     8  H    2.622239   2.139816   4.214621   3.182762   4.102863
     9  N    2.203948   1.388647   3.276300   2.219938   3.217107
                    6          7          8          9
     6  C    0.000000
     7  N    1.361664   0.000000
     8  H    3.115868   2.038939   0.000000
     9  N    2.181493   1.347958   0.986297   0.000000
 Stoichiometry    C3H4N2
 Framework group  CS[SG(C3H4N2)]
 Deg. of freedom   15
 Full point group                 CS      NOp   2
 Largest Abelian subgroup         CS      NOp   2
 Largest concise Abelian subgroup C1      NOp   1
                         Standard orientation:                         
 ---------------------------------------------------------------------
 Center     Atomic     Atomic              Coordinates (Angstroms)
 Number     Number      Type              X           Y           Z
 ---------------------------------------------------------------------
    1          1             0        2.151916    0.636442    0.000000
    2          6             0        1.118845    0.290000    0.000000
    3          1             0        1.221030   -1.927755    0.000000
    4          6             0        0.629937   -1.016173    0.000000
    5          1             0       -1.524178   -1.720623    0.000000
    6          6             0       -0.782056   -0.923979    0.000000
    7          7             0       -1.138155    0.390297    0.000000
    8          1             0       -0.024902    2.098495    0.000000
    9          7             0        0.000000    1.112513    0.000000
 ---------------------------------------------------------------------
 Rotational constants (GHZ):      9.4265053      9.2301001      4.6636345
 Isotopes: H-1,C-12,H-1,C-12,H-1,C-12,N-14,H-1,N-14
 Leave Link  202 at Mon Jun 26 18:22:15 2000, MaxMem=   24000000 cpu:       0.1
 (Enter /usr/local/apps/g98a6/g98/l301.exe)
 Standard basis: VSTO-3G (5D, 7F)
 There are    19 symmetry adapted basis functions of A'  symmetry.
 There are     5 symmetry adapted basis functions of A"  symmetry.
 Crude estimate of integral set expansion from redundant integrals=1.000.
 Integral buffers will be    262144 words long.
 Raffenetti 1 integral format.
 Two-electron integral symmetry is turned on.
    24 basis functions       72 primitive gaussians
    13 alpha electrons       13 beta electrons
       nuclear repulsion energy        83.8316720197 Hartrees.
 Leave Link  301 at Mon Jun 26 18:22:15 2000, MaxMem=   24000000 cpu:       0.1
 (Enter /usr/local/apps/g98a6/g98/l401.exe)
 Initial guess read from the read-write file:
 Guess basis functions will be translated to current atomic coordinates.
 Initial guess orbital symmetries:
       Occupied  (A') (A') (A') (A') (A') (A') (A') (A') (A") (A')
                 (A') (A") (A")
       Virtual   (A") (A") (A') (A') (A') (A') (A') (A') (A') (A')
                 (A')
 Leave Link  401 at Mon Jun 26 18:22:15 2000, MaxMem=   24000000 cpu:       0.1
 (Enter /usr/local/apps/g98a6/g98/l402.exe)
 RHF-PM3 calculation of energy and first derivatives.
 MO and density RWFs will be updated.
 Closed-shell calculation:      13 occupied levels.
 NNHCO=    0.
 References:
  H: (PM3): J. J. P. STEWART, J. COMP. CHEM.     10, 209 (1989).
  C: (PM3): J. J. P. STEWART, J. COMP. CHEM.     10, 209 (1989).
  N: (PM3): J. J. P. STEWART, J. COMP. CHEM.     10, 209 (1989).
 Ext34=T Pulay=F Camp-King=F BShift= 0.00D+00
 It=  1 PL= 8.14D-01 DiagD=T ESCF=    209.063630 Diff= 1.66D+01 RMSDP= 3.00D-01.
 It=  2 PL= 1.21D-01 DiagD=T ESCF=     33.809712 Diff=-1.75D+01 RMSDP= 1.63D-02.
 It=  3 PL= 3.62D-02 DiagD=T ESCF=     22.388529 Diff=-1.14D+00 RMSDP= 7.37D-03.
 It=  4 PL= 8.12D-03 DiagD=F ESCF=     20.693874 Diff=-1.69D-01 RMSDP= 1.04D-03.
 It=  5 PL= 4.38D-03 DiagD=F ESCF=     21.163299 Diff= 4.69D-02 RMSDP= 5.66D-04.
 It=  6 PL= 2.66D-03 DiagD=F ESCF=     21.153561 Diff=-9.74D-04 RMSDP= 8.39D-04.
 It=  7 PL= 2.98D-04 DiagD=F ESCF=     21.140533 Diff=-1.30D-03 RMSDP= 4.39D-05.
 It=  8 PL= 1.65D-04 DiagD=F ESCF=     21.148385 Diff= 7.85D-04 RMSDP= 2.10D-05.
 It=  9 PL= 9.17D-05 DiagD=F ESCF=     21.148370 Diff=-1.49D-06 RMSDP= 2.37D-05.
 It= 10 PL= 1.64D-05 DiagD=F ESCF=     21.148359 Diff=-1.18D-06 RMSDP= 2.07D-06.
 It= 11 PL= 9.58D-06 DiagD=F ESCF=     21.148365 Diff= 6.61D-07 RMSDP= 1.05D-06.
 Energy=    0.077720322610 NIter=  12.
 Dipole moment=  0.816608  0.457165  0.000000
 Leave Link  402 at Mon Jun 26 18:22:15 2000, MaxMem=   24000000 cpu:       0.0
 (Enter /usr/local/apps/g98a6/g98/l716.exe)
 Dipole        = 8.16608483D-01 4.57164615D-01-6.22999010D-17
 ***** Axes restored to original set *****
 -------------------------------------------------------------------
 Center     Atomic                   Forces (Hartrees/Bohr)
 Number     Number              X              Y              Z
 -------------------------------------------------------------------
    1          1          -0.000145365    0.000000000    0.000462622
    2          6          -0.000773390    0.000000000   -0.001704072
    3          1           0.000208510    0.000000000    0.000108842
    4          6          -0.000704868    0.000000000   -0.002984752
    5          1          -0.000209105    0.000000000    0.000081720
    6          6           0.001678661    0.000000000    0.002278867
    7          7           0.003899366    0.000000000    0.001421540
    8          1           0.000432277    0.000000000    0.000161159
    9          7          -0.004386087    0.000000000    0.000174073
 -------------------------------------------------------------------
 Cartesian Forces:  Max     0.004386087 RMS     0.001465231
 Leave Link  716 at Mon Jun 26 18:22:15 2000, MaxMem=   24000000 cpu:       0.0
 (Enter /usr/local/apps/g98a6/g98/l103.exe)

 GradGradGradGradGradGradGradGradGradGradGradGradGradGradGradGradGradGrad
 Berny optimization.
 Use GDIIS/GDPIS optimizer.
 Internal  Forces:  Max     0.003833946 RMS     0.000918324
 Search for a local minimum.
 Step number   4 out of a maximum of  45
 All quantities printed in internal units (Hartrees-Bohrs-Radians)
 Swaping is turned off.
   2   1  0.3053500E-04  0.3467291E-03  0.8806588E-01
 Update second derivatives using information from points  3  4
 Trust test= 9.60D-01 RLast= 6.44D-02 DXMaxT set to 4.24D-01
 lowest eigenvalue of the Hessian is  0.1060E-01.
 RFO step:  Lambda= 6.55010490D-06.
 DIIS coeff's:      1.42412     -0.63135      0.21386     -0.00663
 Cosine:  1.000 >  0.866
 Length:  1.575
 GDIIS step was calculated using  4 of the last  4 vectors.
 Iteration  1 RMS(Cart)=  0.00211558 RMS(Int)=  0.00000948
 Iteration  2 RMS(Cart)=  0.00000367 RMS(Int)=  0.00000873
 Iteration  3 RMS(Cart)=  0.00000000 RMS(Int)=  0.00000873
 Variable       Old X    -DE/DX   Delta X   Delta X   Delta X     New X
                                  (DIIS)     (GDIIS)  (Total)
    R1        2.05907  -0.00012   0.00034  -0.00042  -0.00008   2.05899
    R2        2.63555   0.00131   0.00104   0.00018   0.00121   2.63676
    R3        2.62416   0.00159   0.00231   0.00002   0.00234   2.62651
    R4        2.05309  -0.00004   0.00070  -0.00062   0.00008   2.05317
    R5        2.67396   0.00305   0.00361   0.00152   0.00512   2.67908
    R6        2.05745  -0.00020   0.00014  -0.00045  -0.00031   2.05713
    R7        2.57317  -0.00005  -0.00080  -0.00049  -0.00129   2.57189
    R8        2.54727   0.00383   0.00438   0.00156   0.00595   2.55322
    R9        1.86383  -0.00022  -0.00002  -0.00024  -0.00026   1.86357
    A1        2.25252   0.00046   0.00328   0.00086   0.00414   2.25667
    A2        2.18410  -0.00051  -0.00342  -0.00141  -0.00483   2.17927
    A3        1.84656   0.00004   0.00014   0.00055   0.00068   1.84725
    A4        2.20816   0.00024   0.00081   0.00177   0.00259   2.21076
    A5        1.86376  -0.00001   0.00062  -0.00162  -0.00102   1.86273
    A6        2.21126  -0.00023  -0.00143  -0.00016  -0.00157   2.20970
    A7        2.25558  -0.00007   0.00214  -0.00190   0.00025   2.25583
    A8        1.90059   0.00033  -0.00058   0.00213   0.00154   1.90213
    A9        2.12702  -0.00026  -0.00156  -0.00024  -0.00179   2.12523
   A10        1.87164  -0.00021   0.00109  -0.00196  -0.00084   1.87080
   A11        1.94223  -0.00016  -0.00127   0.00089  -0.00036   1.94187
   A12        2.22997   0.00046   0.00325   0.00050   0.00374   2.23371
   A13        2.11098  -0.00030  -0.00198  -0.00140  -0.00338   2.10760
    D1        0.00000   0.00000   0.00000   0.00000   0.00000   0.00000
    D2        3.14159   0.00000   0.00000   0.00000   0.00000   3.14159
    D3        3.14159   0.00000   0.00000   0.00000   0.00000   3.14159
    D4        3.14159   0.00000   0.00000   0.00000   0.00000   3.14159
    D5        0.00000   0.00000   0.00000   0.00000   0.00000   0.00000
    D6        0.00000   0.00000   0.00000   0.00000   0.00000   0.00000
    D7        3.14159   0.00000   0.00000   0.00000   0.00000   3.14159
    D8        0.00000   0.00000   0.00000   0.00000   0.00000   0.00000
    D9        0.00000   0.00000   0.00000   0.00000   0.00000   0.00000
   D10        0.00000   0.00000   0.00000   0.00000   0.00000   0.00000
   D11        3.14159   0.00000   0.00000   0.00000   0.00000   3.14159
   D12        0.00000   0.00000   0.00000   0.00000   0.00000   0.00000
   D13        3.14159   0.00000   0.00000   0.00000   0.00000   3.14159
         Item               Value     Threshold  Converged?
 Maximum Force            0.003834     0.000450     NO 
 RMS     Force            0.000918     0.000300     NO 
 Maximum Displacement     0.005692     0.001800     NO 
 RMS     Displacement     0.002114     0.001200     NO 
 Predicted change in Energy=-4.165466D-05
 GradGradGradGradGradGradGradGradGradGradGradGradGradGradGradGradGradGrad

 Leave Link  103 at Mon Jun 26 18:22:16 2000, MaxMem=   24000000 cpu:       0.1
 (Enter /usr/local/apps/g98a6/g98/l202.exe)
                          Input orientation:                          
 ---------------------------------------------------------------------
 Center     Atomic     Atomic              Coordinates (Angstroms)
 Number     Number      Type              X           Y           Z
 ---------------------------------------------------------------------
    1          1             0       -1.875560    0.000000   -1.234761
    2          6             0       -0.942969    0.000000   -0.671344
    3          1             0        0.691300    0.000000   -2.177043
    4          6             0        0.371785    0.000000   -1.138595
    5          1             0        2.298054    0.000000    0.060275
    6          6             0        1.210915    0.000000    0.004101
    7          7             0        0.435657    0.000000    1.122694
    8          1             0       -1.588879    0.000000    1.371729
    9          7             0       -0.852663    0.000000    0.715606
 ---------------------------------------------------------------------
                    Distance matrix (angstroms):
                    1          2          3          4          5
     1  H    0.000000
     2  C    1.089570   0.000000
     3  H    2.734349   2.222153   0.000000
     4  C    2.249401   1.395315   1.086492   0.000000
     5  H    4.369916   3.322574   2.754496   2.268876   0.000000
     6  C    3.325824   2.257310   2.242184   1.417707   1.088589
     7  N    3.301411   2.262561   3.309625   2.262190   2.144121
     8  H    2.622208   2.142743   4.218175   3.185267   4.102214
     9  N    2.202328   1.389887   3.278909   2.222011   3.218148
                    6          7          8          9
     6  C    0.000000
     7  N    1.360983   0.000000
     8  H    3.115967   2.039795   0.000000
     9  N    2.182795   1.351107   0.986159   0.000000
 Stoichiometry    C3H4N2
 Framework group  CS[SG(C3H4N2)]
 Deg. of freedom   15
 Full point group                 CS      NOp   2
 Largest Abelian subgroup         CS      NOp   2
 Largest concise Abelian subgroup C1      NOp   1
                         Standard orientation:                         
 ---------------------------------------------------------------------
 Center     Atomic     Atomic              Coordinates (Angstroms)
 Number     Number      Type              X           Y           Z
 ---------------------------------------------------------------------
    1          1             0        2.151371    0.642404    0.000000
    2          6             0        1.120161    0.290597    0.000000
    3          1             0        1.222152   -1.929214    0.000000
    4          6             0        0.632427   -1.016697    0.000000
    5          1             0       -1.524445   -1.720761    0.000000
    6          6             0       -0.782272   -0.924391    0.000000
    7          7             0       -1.140274    0.388663    0.000000
    8          1             0       -0.028966    2.099148    0.000000
    9          7             0        0.000000    1.113414    0.000000
 ---------------------------------------------------------------------
 Rotational constants (GHZ):      9.4017731      9.2201895      4.6550480
 Isotopes: H-1,C-12,H-1,C-12,H-1,C-12,N-14,H-1,N-14
 Leave Link  202 at Mon Jun 26 18:22:16 2000, MaxMem=   24000000 cpu:       0.1
 (Enter /usr/local/apps/g98a6/g98/l301.exe)
 Standard basis: VSTO-3G (5D, 7F)
 There are    19 symmetry adapted basis functions of A'  symmetry.
 There are     5 symmetry adapted basis functions of A"  symmetry.
 Crude estimate of integral set expansion from redundant integrals=1.000.
 Integral buffers will be    262144 words long.
 Raffenetti 1 integral format.
 Two-electron integral symmetry is turned on.
    24 basis functions       72 primitive gaussians
    13 alpha electrons       13 beta electrons
       nuclear repulsion energy        83.7612123173 Hartrees.
 Leave Link  301 at Mon Jun 26 18:22:17 2000, MaxMem=   24000000 cpu:       0.2
 (Enter /usr/local/apps/g98a6/g98/l401.exe)
 Initial guess read from the read-write file:
 Guess basis functions will be translated to current atomic coordinates.
 Initial guess orbital symmetries:
       Occupied  (A') (A') (A') (A') (A') (A') (A') (A') (A") (A')
                 (A') (A") (A")
       Virtual   (A") (A') (A") (A') (A') (A') (A') (A') (A') (A')
                 (A')
 Leave Link  401 at Mon Jun 26 18:22:17 2000, MaxMem=   24000000 cpu:       0.1
 (Enter /usr/local/apps/g98a6/g98/l402.exe)
 RHF-PM3 calculation of energy and first derivatives.
 MO and density RWFs will be updated.
 Closed-shell calculation:      13 occupied levels.
 NNHCO=    0.
 References:
  H: (PM3): J. J. P. STEWART, J. COMP. CHEM.     10, 209 (1989).
  C: (PM3): J. J. P. STEWART, J. COMP. CHEM.     10, 209 (1989).
  N: (PM3): J. J. P. STEWART, J. COMP. CHEM.     10, 209 (1989).
 Ext34=T Pulay=F Camp-King=F BShift= 0.00D+00
 It=  1 PL= 8.17D-01 DiagD=T ESCF=    208.232004 Diff= 1.65D+01 RMSDP= 3.00D-01.
 It=  2 PL= 1.21D-01 DiagD=T ESCF=     33.748580 Diff=-1.74D+01 RMSDP= 1.62D-02.
 It=  3 PL= 3.62D-02 DiagD=T ESCF=     22.381536 Diff=-1.14D+00 RMSDP= 7.38D-03.
 It=  4 PL= 7.91D-03 DiagD=F ESCF=     20.685026 Diff=-1.70D-01 RMSDP= 1.05D-03.
 It=  5 PL= 4.41D-03 DiagD=F ESCF=     21.154598 Diff= 4.70D-02 RMSDP= 5.72D-04.
 It=  6 PL= 2.70D-03 DiagD=F ESCF=     21.144617 Diff=-9.98D-04 RMSDP= 8.45D-04.
 It=  7 PL= 2.96D-04 DiagD=F ESCF=     21.131326 Diff=-1.33D-03 RMSDP= 4.36D-05.
 It=  8 PL= 1.64D-04 DiagD=F ESCF=     21.139325 Diff= 8.00D-04 RMSDP= 2.07D-05.
 It=  9 PL= 9.09D-05 DiagD=F ESCF=     21.139311 Diff=-1.46D-06 RMSDP= 2.28D-05.
 It= 10 PL= 1.24D-05 DiagD=F ESCF=     21.139300 Diff=-1.10D-06 RMSDP= 1.89D-06.
 It= 11 PL= 7.08D-06 DiagD=F ESCF=     21.139306 Diff= 6.18D-07 RMSDP= 9.27D-07.
 Energy=    0.077687030103 NIter=  12.
 Dipole moment=  0.817102  0.452712  0.000000
 Leave Link  402 at Mon Jun 26 18:22:17 2000, MaxMem=   24000000 cpu:       0.0
 (Enter /usr/local/apps/g98a6/g98/l716.exe)
 Dipole        = 8.17101841D-01 4.52712296D-01-3.85830174D-16
 ***** Axes restored to original set *****
 -------------------------------------------------------------------
 Center     Atomic                   Forces (Hartrees/Bohr)
 Number     Number              X              Y              Z
 -------------------------------------------------------------------
    1          1           0.000059176    0.000000000    0.000170379
    2          6           0.000542740    0.000000000   -0.000556356
    3          1           0.000054812    0.000000000    0.000194654
    4          6          -0.000787729    0.000000000   -0.000356575
    5          1          -0.000120089    0.000000000   -0.000105434
    6          6           0.000129770    0.000000000    0.000984646
    7          7           0.001714864    0.000000000   -0.000199792
    8          1           0.000129208    0.000000000   -0.000027399
    9          7          -0.001722753    0.000000000   -0.000104122
 -------------------------------------------------------------------
 Cartesian Forces:  Max     0.001722753 RMS     0.000558236
 Leave Link  716 at Mon Jun 26 18:22:17 2000, MaxMem=   24000000 cpu:       0.0
 (Enter /usr/local/apps/g98a6/g98/l103.exe)

 GradGradGradGradGradGradGradGradGradGradGradGradGradGradGradGradGradGrad
 Berny optimization.
 Use GDIIS/GDPIS optimizer.
 Internal  Forces:  Max     0.001372769 RMS     0.000297160
 Search for a local minimum.
 Step number   5 out of a maximum of  45
 All quantities printed in internal units (Hartrees-Bohrs-Radians)
 Swaping is turned off.
   2   1 -0.4352625E-04  0.5659677E-04  0.7690588    
 Update second derivatives using information from points  4  5
 Trust test= 7.99D-01 RLast= 1.24D-02 DXMaxT set to 4.24D-01
 lowest eigenvalue of the Hessian is  0.1059E-01.
 RFO step:  Lambda= 1.89170911D-06.
 DIIS coeff's:      1.19189      0.00728     -0.29789      0.09902     -0.00029
 Cosine:  0.995 >  0.866
 Length:  0.942
 GDIIS step was calculated using  5 of the last  5 vectors.
 Iteration  1 RMS(Cart)=  0.00080182 RMS(Int)=  0.00000377
 Iteration  2 RMS(Cart)=  0.00000075 RMS(Int)=  0.00000370
 Variable       Old X    -DE/DX   Delta X   Delta X   Delta X     New X
                                  (DIIS)     (GDIIS)  (Total)
    R1        2.05899  -0.00014  -0.00031   0.00011  -0.00020   2.05879
    R2        2.63676  -0.00040   0.00017  -0.00108  -0.00092   2.63584
    R3        2.62651   0.00016   0.00087  -0.00005   0.00083   2.62734
    R4        2.05317  -0.00017  -0.00010  -0.00015  -0.00025   2.05292
    R5        2.67908   0.00053   0.00203  -0.00010   0.00192   2.68100
    R6        2.05713  -0.00013  -0.00043   0.00021  -0.00022   2.05691
    R7        2.57189  -0.00063  -0.00119  -0.00047  -0.00166   2.57023
    R8        2.55322   0.00137   0.00262   0.00093   0.00355   2.55677
    R9        1.86357  -0.00011  -0.00026   0.00008  -0.00018   1.86339
    A1        2.25667   0.00008   0.00225  -0.00037   0.00188   2.25855
    A2        2.17927  -0.00015  -0.00253   0.00009  -0.00244   2.17684
    A3        1.84725   0.00007   0.00028   0.00028   0.00056   1.84780
    A4        2.21076   0.00001   0.00092   0.00040   0.00133   2.21208
    A5        1.86273   0.00021   0.00004   0.00013   0.00016   1.86289
    A6        2.20970  -0.00022  -0.00096  -0.00053  -0.00148   2.20821
    A7        2.25583  -0.00013   0.00096  -0.00146  -0.00050   2.25533
    A8        1.90213   0.00006   0.00002   0.00021   0.00023   1.90236
    A9        2.12523   0.00007  -0.00097   0.00125   0.00027   2.12550
   A10        1.87080  -0.00006   0.00040  -0.00031   0.00010   1.87090
   A11        1.94187  -0.00027  -0.00074  -0.00031  -0.00104   1.94083
   A12        2.23371   0.00020   0.00219  -0.00015   0.00203   2.23575
   A13        2.10760   0.00007  -0.00145   0.00046  -0.00099   2.10661
    D1        0.00000   0.00000   0.00000   0.00000   0.00000   0.00000
    D2        3.14159   0.00000   0.00000   0.00000   0.00000   3.14159
    D3        3.14159   0.00000   0.00000   0.00000   0.00000   3.14159
    D4        3.14159   0.00000   0.00000   0.00000   0.00000   3.14159
    D5        0.00000   0.00000   0.00000   0.00000   0.00000   0.00000
    D6        0.00000   0.00000   0.00000   0.00000   0.00000   0.00000
    D7        3.14159   0.00000   0.00000   0.00000   0.00000   3.14159
    D8        0.00000   0.00000   0.00000   0.00000   0.00000   0.00000
    D9        0.00000   0.00000   0.00000   0.00000   0.00000   0.00000
   D10        0.00000   0.00000   0.00000   0.00000   0.00000   0.00000
   D11        3.14159   0.00000   0.00000   0.00000   0.00000   3.14159
   D12        0.00000   0.00000   0.00000   0.00000   0.00000   0.00000
   D13        3.14159   0.00000   0.00000   0.00000   0.00000   3.14159
         Item               Value     Threshold  Converged?
 Maximum Force            0.001373     0.000450     NO 
 RMS     Force            0.000297     0.000300     YES
 Maximum Displacement     0.002224     0.001800     NO 
 RMS     Displacement     0.000802     0.001200     YES
 Predicted change in Energy=-4.415356D-06
 GradGradGradGradGradGradGradGradGradGradGradGradGradGradGradGradGradGrad

 Leave Link  103 at Mon Jun 26 18:22:18 2000, MaxMem=   24000000 cpu:       0.1
 (Enter /usr/local/apps/g98a6/g98/l202.exe)
                          Input orientation:                          
 ---------------------------------------------------------------------
 Center     Atomic     Atomic              Coordinates (Angstroms)
 Number     Number      Type              X           Y           Z
 ---------------------------------------------------------------------
    1          1             0       -1.876372    0.000000   -1.233548
    2          6             0       -0.942924    0.000000   -0.671755
    3          1             0        0.692523    0.000000   -2.176413
    4          6             0        0.371464    0.000000   -1.138582
    5          1             0        2.298195    0.000000    0.060638
    6          6             0        1.211148    0.000000    0.004968
    7          7             0        0.436594    0.000000    1.122983
    8          1             0       -1.588940    0.000000    1.372703
    9          7             0       -0.853636    0.000000    0.715701
 ---------------------------------------------------------------------
                    Distance matrix (angstroms):
                    1          2          3          4          5
     1  H    0.000000
     2  C    1.089466   0.000000
     3  H    2.736461   2.222315   0.000000
     4  C    2.249842   1.394828   1.086357   0.000000
     5  H    4.370575   3.322838   2.753649   2.269454   0.000000
     6  C    3.326665   2.257871   2.242186   1.418724   1.088472
     7  N    3.301977   2.263660   3.309307   2.262503   2.143394
     8  H    2.622052   2.144095   4.219159   3.185866   4.102601
     9  N    2.201263   1.390326   3.279471   2.222439   3.219184
                    6          7          8          9
     6  C    0.000000
     7  N    1.360107   0.000000
     8  H    3.116279   2.040870   0.000000
     9  N    2.183683   1.352986   0.986065   0.000000
 Stoichiometry    C3H4N2
 Framework group  CS[SG(C3H4N2)]
 Deg. of freedom   15
 Full point group                 CS      NOp   2
 Largest Abelian subgroup         CS      NOp   2
 Largest concise Abelian subgroup C1      NOp   1
                         Standard orientation:                         
 ---------------------------------------------------------------------
 Center     Atomic     Atomic              Coordinates (Angstroms)
 Number     Number      Type              X           Y           Z
 ---------------------------------------------------------------------
    1          1             0        2.150733    0.645109    0.000000
    2          6             0        1.120456    0.290896    0.000000
    3          1             0        1.222412   -1.929078    0.000000
    4          6             0        0.633527   -1.016178    0.000000
    5          1             0       -1.523427   -1.721846    0.000000
    6          6             0       -0.782245   -0.924715    0.000000
    7          7             0       -1.141155    0.387183    0.000000
    8          1             0       -0.030899    2.099632    0.000000
    9          7             0        0.000000    1.114051    0.000000
 ---------------------------------------------------------------------
 Rotational constants (GHZ):      9.3956814      9.2165209      4.6526194
 Isotopes: H-1,C-12,H-1,C-12,H-1,C-12,N-14,H-1,N-14
 Leave Link  202 at Mon Jun 26 18:22:18 2000, MaxMem=   24000000 cpu:       0.1
 (Enter /usr/local/apps/g98a6/g98/l301.exe)
 Standard basis: VSTO-3G (5D, 7F)
 There are    19 symmetry adapted basis functions of A'  symmetry.
 There are     5 symmetry adapted basis functions of A"  symmetry.
 Crude estimate of integral set expansion from redundant integrals=1.000.
 Integral buffers will be    262144 words long.
 Raffenetti 1 integral format.
 Two-electron integral symmetry is turned on.
    24 basis functions       72 primitive gaussians
    13 alpha electrons       13 beta electrons
       nuclear repulsion energy        83.7404054916 Hartrees.
 Leave Link  301 at Mon Jun 26 18:22:18 2000, MaxMem=   24000000 cpu:       0.2
 (Enter /usr/local/apps/g98a6/g98/l401.exe)
 Initial guess read from the read-write file:
 Guess basis functions will be translated to current atomic coordinates.
 Initial guess orbital symmetries:
       Occupied  (A') (A') (A') (A') (A') (A') (A') (A') (A") (A')
                 (A') (A") (A")
       Virtual   (A") (A') (A") (A') (A') (A') (A') (A') (A') (A')
                 (A')
 Leave Link  401 at Mon Jun 26 18:22:19 2000, MaxMem=   24000000 cpu:       0.1
 (Enter /usr/local/apps/g98a6/g98/l402.exe)
 RHF-PM3 calculation of energy and first derivatives.
 MO and density RWFs will be updated.
 Closed-shell calculation:      13 occupied levels.
 NNHCO=    0.
 References:
  H: (PM3): J. J. P. STEWART, J. COMP. CHEM.     10, 209 (1989).
  C: (PM3): J. J. P. STEWART, J. COMP. CHEM.     10, 209 (1989).
  N: (PM3): J. J. P. STEWART, J. COMP. CHEM.     10, 209 (1989).
 Ext34=T Pulay=F Camp-King=F BShift= 0.00D+00
 It=  1 PL= 8.18D-01 DiagD=T ESCF=    208.081015 Diff= 1.65D+01 RMSDP= 3.00D-01.
 It=  2 PL= 1.21D-01 DiagD=T ESCF=     33.750863 Diff=-1.74D+01 RMSDP= 1.62D-02.
 It=  3 PL= 3.62D-02 DiagD=T ESCF=     22.383196 Diff=-1.14D+00 RMSDP= 7.39D-03.
 It=  4 PL= 7.97D-03 DiagD=F ESCF=     20.682184 Diff=-1.70D-01 RMSDP= 1.05D-03.
 It=  5 PL= 4.45D-03 DiagD=F ESCF=     21.153351 Diff= 4.71D-02 RMSDP= 5.75D-04.
 It=  6 PL= 2.72D-03 DiagD=F ESCF=     21.143272 Diff=-1.01D-03 RMSDP= 8.49D-04.
 It=  7 PL= 2.95D-04 DiagD=F ESCF=     21.129855 Diff=-1.34D-03 RMSDP= 4.36D-05.
 It=  8 PL= 1.64D-04 DiagD=F ESCF=     21.137927 Diff= 8.07D-04 RMSDP= 2.07D-05.
 It=  9 PL= 9.07D-05 DiagD=F ESCF=     21.137912 Diff=-1.46D-06 RMSDP= 2.28D-05.
 It= 10 PL= 1.20D-05 DiagD=F ESCF=     21.137901 Diff=-1.10D-06 RMSDP= 1.88D-06.
 It= 11 PL= 6.80D-06 DiagD=F ESCF=     21.137907 Diff= 6.16D-07 RMSDP= 9.20D-07.
 Energy=    0.077681890609 NIter=  12.
 Dipole moment=  0.816848  0.450383  0.000000
 Leave Link  402 at Mon Jun 26 18:22:19 2000, MaxMem=   24000000 cpu:       0.0
 (Enter /usr/local/apps/g98a6/g98/l716.exe)
 Dipole        = 8.16848064D-01 4.50383019D-01 2.64579628D-17
 ***** Axes restored to original set *****
 -------------------------------------------------------------------
 Center     Atomic                   Forces (Hartrees/Bohr)
 Number     Number              X              Y              Z
 -------------------------------------------------------------------
    1          1           0.000084353    0.000000000   -0.000001409
    2          6           0.000353127    0.000000000    0.000006312
    3          1          -0.000001882    0.000000000    0.000092405
    4          6          -0.000301570    0.000000000    0.000164668
    5          1          -0.000045562    0.000000000   -0.000118355
    6          6          -0.000275434    0.000000000    0.000298066
    7          7           0.000368104    0.000000000   -0.000282237
    8          1          -0.000006048    0.000000000   -0.000077949
    9          7          -0.000175089    0.000000000   -0.000081500
 -------------------------------------------------------------------
 Cartesian Forces:  Max     0.000368104 RMS     0.000160764
 Leave Link  716 at Mon Jun 26 18:22:19 2000, MaxMem=   24000000 cpu:       0.0
 (Enter /usr/local/apps/g98a6/g98/l103.exe)

 GradGradGradGradGradGradGradGradGradGradGradGradGradGradGradGradGradGrad
 Berny optimization.
 Use GDIIS/GDPIS optimizer.
 Internal  Forces:  Max     0.000436584 RMS     0.000116356
 Search for a local minimum.
 Step number   6 out of a maximum of  45
 All quantities printed in internal units (Hartrees-Bohrs-Radians)
 Swaping is turned off.
   2   1 -0.7719249E-06  0.2528984E-05  0.3052312    
 Update second derivatives using information from points  5  6
 Trust test= 1.16D+00 RLast= 6.41D-03 DXMaxT set to 4.24D-01
 lowest eigenvalue of the Hessian is  0.1058E-01.
 RFO step:  Lambda= 2.06863561D-07.
 DIIS coeff's:      2.16427     -1.38987      0.03310      0.28414     -0.09317
 DIIS coeff's:      0.00153
 Cosine:  1.000 >  0.500
 Length:  1.717
 GDIIS step was calculated using  6 of the last  6 vectors.
 Iteration  1 RMS(Cart)=  0.00068745 RMS(Int)=  0.00000373
 Iteration  2 RMS(Cart)=  0.00000048 RMS(Int)=  0.00000369
 Variable       Old X    -DE/DX   Delta X   Delta X   Delta X     New X
                                  (DIIS)     (GDIIS)  (Total)
    R1        2.05879  -0.00007  -0.00023  -0.00002  -0.00025   2.05854
    R2        2.63584  -0.00044  -0.00136  -0.00007  -0.00142   2.63442
    R3        2.62734  -0.00015  -0.00020   0.00014  -0.00006   2.62727
    R4        2.05292  -0.00009  -0.00048   0.00016  -0.00033   2.05259
    R5        2.68100  -0.00015  -0.00010   0.00011   0.00002   2.68102
    R6        2.05691  -0.00005  -0.00013  -0.00006  -0.00019   2.05672
    R7        2.57023  -0.00036  -0.00084  -0.00036  -0.00120   2.56903
    R8        2.55677   0.00015   0.00113   0.00005   0.00118   2.55795
    R9        1.86339  -0.00005  -0.00011  -0.00006  -0.00016   1.86323
    A1        2.25855  -0.00006  -0.00022  -0.00004  -0.00026   2.25828
    A2        2.17684   0.00003  -0.00014   0.00017   0.00003   2.17687
    A3        1.84780   0.00003   0.00036  -0.00013   0.00024   1.84804
    A4        2.21208  -0.00001   0.00057  -0.00005   0.00052   2.21260
    A5        1.86289   0.00007   0.00015   0.00001   0.00017   1.86306
    A6        2.20821  -0.00006  -0.00072   0.00004  -0.00069   2.20752
    A7        2.25533  -0.00014  -0.00162  -0.00002  -0.00164   2.25368
    A8        1.90236   0.00005   0.00017   0.00009   0.00026   1.90262
    A9        2.12550   0.00010   0.00146  -0.00007   0.00138   2.12688
   A10        1.87090  -0.00007  -0.00021  -0.00003  -0.00024   1.87066
   A11        1.94083  -0.00007  -0.00047   0.00005  -0.00043   1.94040
   A12        2.23575  -0.00002  -0.00002  -0.00016  -0.00017   2.23558
   A13        2.10661   0.00009   0.00049   0.00011   0.00060   2.10721
    D1        0.00000   0.00000   0.00000   0.00000   0.00000   0.00000
    D2        3.14159   0.00000   0.00000   0.00000   0.00000   3.14159
    D3        3.14159   0.00000   0.00000   0.00000   0.00000   3.14159
    D4        3.14159   0.00000   0.00000   0.00000   0.00000   3.14159
    D5        0.00000   0.00000   0.00000   0.00000   0.00000   0.00000
    D6        0.00000   0.00000   0.00000   0.00000   0.00000   0.00000
    D7        3.14159   0.00000   0.00000   0.00000   0.00000   3.14159
    D8        0.00000   0.00000   0.00000   0.00000   0.00000   0.00000
    D9        0.00000   0.00000   0.00000   0.00000   0.00000   0.00000
   D10        0.00000   0.00000   0.00000   0.00000   0.00000   0.00000
   D11        3.14159   0.00000   0.00000   0.00000   0.00000   3.14159
   D12        0.00000   0.00000   0.00000   0.00000   0.00000   0.00000
   D13        3.14159   0.00000   0.00000   0.00000   0.00000   3.14159
         Item               Value     Threshold  Converged?
 Maximum Force            0.000437     0.000450     YES
 RMS     Force            0.000116     0.000300     YES
 Maximum Displacement     0.002754     0.001800     NO 
 RMS     Displacement     0.000688     0.001200     YES
 Predicted change in Energy=-1.612447D-06
 GradGradGradGradGradGradGradGradGradGradGradGradGradGradGradGradGradGrad

 Leave Link  103 at Mon Jun 26 18:22:20 2000, MaxMem=   24000000 cpu:       0.1
[...]
             6             7             8             9            10
   6  0.341511D+00
   7  0.736348D-02  0.484995D+00
   8 -0.738413D-03  0.782055D-01  0.351840D+00
   9  0.350930D-05  0.351414D-02  0.265264D-02  0.425379D+00
  10 -0.407895D-03 -0.414530D-01  0.993608D-03 -0.243331D-02  0.683709D-01
  11 -0.521601D-03 -0.438490D-01 -0.118077D-02 -0.146810D-03 -0.215106D-01
  12  0.929496D-03  0.853020D-01  0.187166D-03  0.258012D-02 -0.468603D-01
  13 -0.120755D-02 -0.429860D-02 -0.334339D-01 -0.815529D-04 -0.981408D-02
  14  0.234068D-02  0.140007D-01  0.658078D-01  0.235444D-03  0.207200D-01
  15 -0.113313D-02 -0.970214D-02 -0.323739D-01 -0.153891D-03 -0.109060D-01
  16  0.805321D-02  0.107327D-01  0.327051D-02  0.376197D-03  0.270746D-02
  17 -0.834549D-02 -0.417840D-01 -0.111436D-02 -0.721482D-03 -0.189718D-02
  18  0.292278D-03  0.310513D-01 -0.215614D-02  0.345286D-03 -0.810282D-03
  19  0.441851D-02 -0.619382D-01 -0.394559D-01  0.366396D-02  0.449441D-02
  20  0.656799D-03  0.441946D-02 -0.254247D-01 -0.575804D-02  0.235430D-01
  21 -0.374030D-03 -0.344380D-03  0.674815D-02  0.388383D-02 -0.124134D-01
  22 -0.282769D-03 -0.407508D-02  0.186766D-01  0.187422D-02 -0.111296D-01
  23  0.000000D+00  0.000000D+00  0.000000D+00  0.000000D+00  0.000000D+00
  24  0.000000D+00  0.000000D+00  0.000000D+00  0.000000D+00  0.000000D+00
  25  0.000000D+00  0.000000D+00  0.000000D+00  0.000000D+00  0.000000D+00
  26  0.000000D+00  0.000000D+00  0.000000D+00  0.000000D+00  0.000000D+00
  27  0.000000D+00  0.000000D+00  0.000000D+00  0.000000D+00  0.000000D+00
  28  0.000000D+00  0.000000D+00  0.000000D+00  0.000000D+00  0.000000D+00
  29  0.000000D+00  0.000000D+00  0.000000D+00  0.000000D+00  0.000000D+00
  30  0.000000D+00  0.000000D+00  0.000000D+00  0.000000D+00  0.000000D+00
  31  0.000000D+00  0.000000D+00  0.000000D+00  0.000000D+00  0.000000D+00
  32  0.000000D+00  0.000000D+00  0.000000D+00  0.000000D+00  0.000000D+00
  33  0.000000D+00  0.000000D+00  0.000000D+00  0.000000D+00  0.000000D+00
  34  0.000000D+00  0.000000D+00  0.000000D+00  0.000000D+00  0.000000D+00
  35  0.000000D+00  0.000000D+00  0.000000D+00  0.000000D+00  0.000000D+00
            11            12            13            14            15
  11  0.711669D-01
  12 -0.496563D-01  0.965166D-01
  13 -0.117265D-01  0.215406D-01  0.694105D-01
  14  0.239094D-01 -0.446294D-01 -0.461330D-01  0.923489D-01
  15 -0.121829D-01  0.230889D-01 -0.232775D-01 -0.462159D-01  0.694935D-01
  16 -0.197042D-02 -0.737038D-03 -0.115606D-01  0.229020D-01 -0.113415D-01
  17  0.607577D-02 -0.417859D-02  0.238181D-01 -0.478475D-01  0.240294D-01
  18 -0.410534D-02  0.491563D-02 -0.122575D-01  0.249454D-01 -0.126879D-01
  19 -0.473449D-02  0.240071D-03  0.400844D-02  0.161488D-02 -0.562332D-02
  20  0.244056D-01 -0.479486D-01 -0.323410D-02 -0.148688D-02  0.472098D-02
  21 -0.111620D-01  0.235754D-01  0.331728D-02 -0.186972D-02 -0.144756D-02
  22 -0.132436D-01  0.243732D-01 -0.831799D-04  0.335660D-02 -0.327342D-02
  23  0.000000D+00  0.000000D+00  0.000000D+00  0.000000D+00  0.000000D+00
  24  0.000000D+00  0.000000D+00  0.000000D+00  0.000000D+00  0.000000D+00
  25  0.000000D+00  0.000000D+00  0.000000D+00  0.000000D+00  0.000000D+00
  26  0.000000D+00  0.000000D+00  0.000000D+00  0.000000D+00  0.000000D+00
  27  0.000000D+00  0.000000D+00  0.000000D+00  0.000000D+00  0.000000D+00
  28  0.000000D+00  0.000000D+00  0.000000D+00  0.000000D+00  0.000000D+00
  29  0.000000D+00  0.000000D+00  0.000000D+00  0.000000D+00  0.000000D+00
  30  0.000000D+00  0.000000D+00  0.000000D+00  0.000000D+00  0.000000D+00
  31  0.000000D+00  0.000000D+00  0.000000D+00  0.000000D+00  0.000000D+00
  32  0.000000D+00  0.000000D+00  0.000000D+00  0.000000D+00  0.000000D+00
  33  0.000000D+00  0.000000D+00  0.000000D+00  0.000000D+00  0.000000D+00
  34  0.000000D+00  0.000000D+00  0.000000D+00  0.000000D+00  0.000000D+00
  35  0.000000D+00  0.000000D+00  0.000000D+00  0.000000D+00  0.000000D+00
            16            17            18            19            20
  16  0.695582D-01
  17 -0.530639D-01  0.108229D+00
  18 -0.164943D-01 -0.551653D-01  0.716596D-01
  19  0.321832D-01 -0.678267D-01  0.356436D-01  0.136810D+00
  20 -0.128425D-02  0.116236D-01 -0.103393D-01 -0.708381D-01  0.108650D+00
  21 -0.918674D-03 -0.142648D-02  0.234516D-02  0.329771D-01 -0.532563D-01
  22  0.220293D-02 -0.101971D-01  0.799414D-02  0.378610D-01 -0.553938D-01
  23  0.000000D+00  0.000000D+00  0.000000D+00  0.000000D+00  0.000000D+00
  24  0.000000D+00  0.000000D+00  0.000000D+00  0.000000D+00  0.000000D+00
  25  0.000000D+00  0.000000D+00  0.000000D+00  0.000000D+00  0.000000D+00
  26  0.000000D+00  0.000000D+00  0.000000D+00  0.000000D+00  0.000000D+00
  27  0.000000D+00  0.000000D+00  0.000000D+00  0.000000D+00  0.000000D+00
  28  0.000000D+00  0.000000D+00  0.000000D+00  0.000000D+00  0.000000D+00
  29  0.000000D+00  0.000000D+00  0.000000D+00  0.000000D+00  0.000000D+00
  30  0.000000D+00  0.000000D+00  0.000000D+00  0.000000D+00  0.000000D+00
  31  0.000000D+00  0.000000D+00  0.000000D+00  0.000000D+00  0.000000D+00
  32  0.000000D+00  0.000000D+00  0.000000D+00  0.000000D+00  0.000000D+00
  33  0.000000D+00  0.000000D+00  0.000000D+00  0.000000D+00  0.000000D+00
  34  0.000000D+00  0.000000D+00  0.000000D+00  0.000000D+00  0.000000D+00
  35  0.000000D+00  0.000000D+00  0.000000D+00  0.000000D+00  0.000000D+00
            21            22            23            24            25
  21  0.716312D-01
  22 -0.183750D-01  0.737687D-01
  23  0.000000D+00  0.000000D+00  0.118042D-01
  24  0.000000D+00  0.000000D+00  0.155803D-03  0.870438D-02
  25  0.000000D+00  0.000000D+00  0.116159D-02 -0.188102D-02  0.235714D-01
  26  0.000000D+00  0.000000D+00 -0.232832D-03 -0.570558D-02  0.696957D-02
  27  0.000000D+00  0.000000D+00 -0.612588D-03 -0.203454D-02  0.109739D-03
  28  0.000000D+00  0.000000D+00  0.977459D-02 -0.379031D-02 -0.141028D-01
  29  0.000000D+00  0.000000D+00  0.724310D-02 -0.404442D-02  0.217636D-02
  30  0.000000D+00  0.000000D+00  0.796721D-02 -0.744645D-02 -0.205379D-01
  31  0.000000D+00  0.000000D+00 -0.436138D-02  0.447196D-02 -0.854789D-03
  32  0.000000D+00  0.000000D+00 -0.199947D-02  0.510915D-02  0.118795D-01
  33  0.000000D+00  0.000000D+00 -0.133809D-02  0.200183D-02 -0.886709D-02
  34  0.000000D+00  0.000000D+00 -0.487893D-02 -0.828854D-03  0.139253D-02
  35  0.000000D+00  0.000000D+00 -0.453121D-02 -0.419027D-02  0.767379D-02
            26            27            28            29            30
  26  0.973990D-02
  27  0.161323D-02  0.324790D-02
  28  0.296733D-02  0.934010D-03  0.254198D-01
  29  0.396427D-02  0.286596D-03  0.872863D-02  0.129194D-01
  30 -0.542125D-02  0.128083D-02  0.213826D-01  0.669014D-02  0.392231D-01
  31 -0.148786D-02 -0.113000D-02 -0.478518D-02  0.167444D-02 -0.866547D-02
  32  0.719121D-02 -0.707816D-03 -0.585944D-02 -0.136325D-02 -0.260522D-01
  33 -0.138127D-02  0.200287D-03  0.569840D-02 -0.705294D-02  0.366246D-02
  34 -0.637684D-02 -0.141787D-03 -0.122740D-01 -0.462194D-02  0.293656D-02
  35  0.106441D-02 -0.163858D-02 -0.104122D-01 -0.125445D-02 -0.320025D-02
            31            32            33            34            35
  31  0.104745D-01
  32  0.571860D-02  0.223617D-01
  33 -0.372560D-02 -0.188604D-03  0.959856D-02
  34 -0.587116D-03 -0.103615D-01 -0.345772D-02  0.142077D-01
  35 -0.914797D-03 -0.312865D-02 -0.490589D-02  0.849850D-02  0.109735D-01
 Leave Link  716 at Mon Jun 26 18:22:29 2000, MaxMem=   24000000 cpu:       0.1
 (Enter /usr/local/apps/g98a6/g98/l103.exe)

 GradGradGradGradGradGradGradGradGradGradGradGradGradGradGradGradGradGrad
 Berny optimization.
 Internal  Forces:  Max     0.000282263 RMS     0.000063802
 Search for a local minimum.
 Step number   1 out of a maximum of  45
 All quantities printed in internal units (Hartrees-Bohrs-Radians)
 Second derivative matrix not updated -- analytic derivatives used.
     Eigenvalues ---    0.00454   0.01295   0.01717   0.03299   0.04567
     Eigenvalues ---    0.08258   0.08806   0.08894   0.08933   0.09192
     Eigenvalues ---    0.22381   0.26479   0.33699   0.34212   0.34531
     Eigenvalues ---    0.35743   0.39895   0.42413   0.45240   0.52967
     Eigenvalues ---    0.735041000.000001000.000001000.000001000.00000
     Eigenvalues --- 1000.000001000.000001000.000001000.000001000.00000
     Eigenvalues --- 1000.000001000.000001000.000001000.000001000.00000
 Angle between quadratic step and forces=  33.32 degrees.
 Linear search not attempted -- first point.
 Iteration  1 RMS(Cart)=  0.00013032 RMS(Int)=  0.00000001
 Iteration  2 RMS(Cart)=  0.00000001 RMS(Int)=  0.00000000
 Variable       Old X    -DE/DX   Delta X   Delta X   Delta X     New X
                                 (Linear)    (Quad)   (Total)
    R1        2.05854   0.00004   0.00000   0.00009   0.00009   2.05863
    R2        2.63442   0.00028   0.00000   0.00055   0.00055   2.63497
    R3        2.62727   0.00005   0.00000  -0.00001  -0.00001   2.62726
    R4        2.05259   0.00005   0.00000   0.00011   0.00011   2.05270
    R5        2.68102   0.00011   0.00000   0.00007   0.00007   2.68108
    R6        2.05672   0.00004   0.00000   0.00010   0.00010   2.05682
    R7        2.56903   0.00015   0.00000   0.00034   0.00034   2.56937
    R8        2.55795  -0.00008   0.00000  -0.00040  -0.00040   2.55755
    R9        1.86323   0.00002   0.00000   0.00005   0.00005   1.86329
    A1        2.25828   0.00000   0.00000  -0.00018  -0.00018   2.25810
    A2        2.17687   0.00002   0.00000   0.00025   0.00025   2.17711
    A3        1.84804  -0.00001   0.00000  -0.00006  -0.00006   1.84797
    A4        2.21260   0.00002   0.00000  -0.00009  -0.00009   2.21251
    A5        1.86306  -0.00005   0.00000  -0.00010  -0.00010   1.86296
    A6        2.20752   0.00003   0.00000   0.00019   0.00019   2.20771
    A7        2.25368   0.00002   0.00000   0.00006   0.00006   2.25375
    A8        1.90262  -0.00004   0.00000  -0.00010  -0.00010   1.90252
    A9        2.12688   0.00002   0.00000   0.00004   0.00004   2.12692
   A10        1.87066   0.00007   0.00000   0.00013   0.00013   1.87079
   A11        1.94040   0.00003   0.00000   0.00013   0.00013   1.94053
   A12        2.23558  -0.00003   0.00000  -0.00025  -0.00025   2.23532
   A13        2.10721   0.00000   0.00000   0.00012   0.00012   2.10733
    D1        0.00000   0.00000   0.00000   0.00000   0.00000   0.00000
    D2        3.14159   0.00000   0.00000   0.00000   0.00000   3.14159
    D3        3.14159   0.00000   0.00000   0.00000   0.00000   3.14159
    D4        3.14159   0.00000   0.00000   0.00000   0.00000   3.14159
    D5        0.00000   0.00000   0.00000   0.00000   0.00000   0.00000
    D6        0.00000   0.00000   0.00000   0.00000   0.00000   0.00000
    D7        3.14159   0.00000   0.00000   0.00000   0.00000   3.14159
    D8        0.00000   0.00000   0.00000   0.00000   0.00000   0.00000
    D9        0.00000   0.00000   0.00000   0.00000   0.00000   0.00000
   D10        0.00000   0.00000   0.00000   0.00000   0.00000   0.00000
   D11        3.14159   0.00000   0.00000   0.00000   0.00000   3.14159
   D12        0.00000   0.00000   0.00000   0.00000   0.00000   0.00000
   D13        3.14159   0.00000   0.00000   0.00000   0.00000   3.14159
         Item               Value     Threshold  Converged?
 Maximum Force            0.000282     0.000450     YES
 RMS     Force            0.000064     0.000300     YES
 Maximum Displacement     0.000342     0.001800     YES
 RMS     Displacement     0.000130     0.001200     YES
 Predicted change in Energy=-1.488217D-07
 Optimization completed.
    -- Stationary point found.
                         ----------------------------
                         !   Optimized Parameters   !
                         ! (Angstroms and Degrees)  !
 ------------------------                            -------------------------
 ! Name  Definition              Value          Derivative Info.             !
 -----------------------------------------------------------------------------
 ! R1    R(1,2)                  1.0893         -DE/DX =    0.               !
 ! R2    R(2,4)                  1.3941         -DE/DX =    0.0003           !
 ! R3    R(2,9)                  1.3903         -DE/DX =    0.0001           !
 ! R4    R(3,4)                  1.0862         -DE/DX =    0.               !
 ! R5    R(4,6)                  1.4187         -DE/DX =    0.0001           !
 ! R6    R(5,6)                  1.0884         -DE/DX =    0.               !
 ! R7    R(6,7)                  1.3595         -DE/DX =    0.0002           !
 ! R8    R(7,9)                  1.3536         -DE/DX =   -0.0001           !
 ! R9    R(8,9)                  0.986          -DE/DX =    0.               !
 ! A1    A(1,2,4)              129.3901         -DE/DX =    0.               !
 ! A2    A(1,2,9)              124.7252         -DE/DX =    0.               !
 ! A3    A(4,2,9)              105.8847         -DE/DX =    0.               !
 ! A4    A(2,4,3)              126.7726         -DE/DX =    0.               !
 ! A5    A(2,4,6)              106.7456         -DE/DX =   -0.0001           !
 ! A6    A(3,4,6)              126.4818         -DE/DX =    0.               !
 ! A7    A(4,6,5)              129.1266         -DE/DX =    0.               !
 ! A8    A(4,6,7)              109.012          -DE/DX =    0.               !
 ! A9    A(5,6,7)              121.8614         -DE/DX =    0.               !
 ! A10   A(6,7,9)              107.1809         -DE/DX =    0.0001           !
 ! A11   A(2,9,7)              111.1768         -DE/DX =    0.               !
 ! A12   A(2,9,8)              128.0891         -DE/DX =    0.               !
 ! A13   A(7,9,8)              120.7341         -DE/DX =    0.               !
 ! D1    D(1,2,4,3)              0.             -DE/DX =    0.               !
 ! D2    D(1,2,4,6)            180.             -DE/DX =    0.               !
 ! D3    D(9,2,4,3)            180.             -DE/DX =    0.               !
 ! D4    D(1,2,9,7)            180.             -DE/DX =    0.               !
 ! D5    D(1,2,9,8)              0.             -DE/DX =    0.               !
 ! D6    D(4,2,9,7)              0.             -DE/DX =    0.               !
 ! D7    D(2,4,6,5)            180.             -DE/DX =    0.               !
 ! D8    D(2,4,6,7)              0.             -DE/DX =    0.               !
 ! D9    D(3,4,6,5)              0.             -DE/DX =    0.               !
 ! D10   D(4,6,7,9)              0.             -DE/DX =    0.               !
 ! D11   D(5,6,7,9)            180.             -DE/DX =    0.               !
 ! D12   D(6,7,9,2)              0.             -DE/DX =    0.               !
 ! D13   D(6,7,9,8)            180.             -DE/DX =    0.               !
 -----------------------------------------------------------------------------
 GradGradGradGradGradGradGradGradGradGradGradGradGradGradGradGradGradGrad

 Leave Link  103 at Mon Jun 26 18:22:30 2000, MaxMem=   24000000 cpu:       0.1
 (Enter /usr/local/apps/g98a6/g98/l9999.exe)
 1\1\GINC-QUANTUM\Freq\RPM3\ZDO\C3H4N2\AMANICHA\26-Jun-2000\0\\#P GEOM=
 ALLCHECK GUESS=TCHECK RPM3/ZDO FREQ\\1H pyrazole C3H4N2 casno=288131\\
 0,1\H,-1.8757220765,0.,-1.2337038842\C,-0.9425937152,0.,-0.6716403595\
 H,0.6927814204,0.,-2.1755501807\C,0.3711342163,0.,-1.1380829877\H,2.29
 79469014,0.,0.0592158253\C,1.2109062686,0.,0.0054141891\N,0.437086288,
 0.,1.1231662339\H,-1.5893502563,0.,1.3723829345\N,-0.8537749016,0.,0.7
 158121535\\Version=IBM-RS6000-G98RevA.6\State=1-A'\HF=0.0776813\RMSD=0
 .000e+00\RMSF=9.396e-05\Dipole=-0.8691604,0.,-0.3372927\DipoleDeriv=0.
 1827178,0.,0.0774355,0.,0.2008177,0.,0.092391,0.,0.1184198,-0.1051031,
 0.,-0.2339064,0.,-0.1851824,0.,-0.6207872,0.,0.1567207,0.0765155,0.,-0
 .0427554,0.,0.1643705,0.,-0.0435404,0.,0.1865684,-0.5044729,0.,0.16449
 2,0.,-0.2286504,0.,-0.0836557,0.,-0.1655682,0.2246471,0.,0.0053717,0.,
 0.1399602,0.,0.0028809,0.,0.0446492,-0.0531295,0.,0.0111938,0.,-0.0682
 79,0.,0.5577246,0.,0.1403587,0.2325477,0.,-0.4828896,0.,-0.2796005,0.,
 -0.2331979,0.,-0.8199821,0.0690988,0.,-0.0694133,0.,0.2510299,0.,-0.08
 4389,0.,0.0600014,-0.1226904,0.,0.5704923,0.,0.005293,0.,0.4125766,0.,
 0.2790195\PG=CS [SG(C3H4N2)]\NImag=0\\0.26521952,0.,0.02025600,0.13115
 015,0.,0.12045613,-0.24854506,0.,-0.12081480,0.89410084,0.,-0.03355631
 ,0.,0.,0.12081118,-0.12305344,0.,-0.11095357,0.12411351,0.,0.65653143,
 -0.00024452,0.,0.00003590,-0.00898094,0.,0.02640830,0.07106087,0.,-0.0
 0107534,0.,0.,0.00420220,0.,0.,0.02162505,0.00032921,0.,0.00020628,0.0
 0548958,0.,-0.00440793,-0.08741438,0.,0.32628946,-0.02067227,0.,0.0095
 0705,-0.41052131,0.,0.03978976,-0.06474242,0.,0.08095036,0.67924910,0.
 ,0.00512938,0.,0.,-0.07090498,0.,0.,-0.03541411,0.,0.,0.13486134,-0.00
 978957,0.,0.00935503,0.16113385,0.,-0.15201371,0.08026691,0.,-0.301399
 42,-0.10631002,0.,0.87131096,-0.00011570,0.,-0.00002394,-0.00029929,0.
 ,0.00038777,0.00008035,0.,-0.00035511,-0.01123464,0.,-0.00412263,0.340
 40501,0.,-0.00006246,0.,0.,0.00412255,0.,0.,-0.00074982,0.,0.,0.004513
 52,0.,0.,0.02137612,-0.00021053,0.,0.00026003,-0.00079326,0.,-0.003758
 05,-0.00014215,0.,-0.00008179,-0.02328666,0.,-0.00044718,0.01858236,0.
 ,0.04226461,-0.00208325,0.,0.00233946,-0.08700062,0.,-0.02716702,0.007
 95809,0.,0.00228206,-0.21328533,0.,-0.18700109,-0.31907478,0.,-0.01771
 949,0.93269036,0.,0.00367537,0.,0.,0.01468464,0.,0.,0.00342663,0.,0.,-
 0.07262700,0.,0.,-0.03464614,0.,0.,0.13609277,0.00093293,0.,-0.0024549
 0,-0.09352663,0.,0.08584546,-0.01728336,0.,-0.01986906,-0.05651674,0.,
 -0.27400092,-0.01662752,0.,-0.04157614,-0.01167584,0.,0.62658907,0.001
 46272,0.,-0.00162652,-0.05970427,0.,-0.02473948,-0.00223808,0.,-0.0008
 7367,0.07834059,0.,0.03578938,-0.00972377,0.,0.02122428,-0.20873739,0.
 ,0.10416175,0.47595338,0.,0.00449171,0.,0.,0.00522193,0.,0.,0.00421310
 ,0.,0.,0.02068246,0.,0.,0.00083546,0.,0.,-0.06250798,0.,0.,0.07161481,
 0.00181712,0.,-0.00257027,-0.02717137,0.,-0.08505627,-0.00262024,0.,-0
 .00126196,-0.04897792,0.,-0.10150853,0.00133875,0.,0.00615723,0.201152
 39,0.,-0.34778477,-0.03756632,0.,0.62737069,0.00010375,0.,0.00034982,0
 .01112596,0.,-0.00531931,0.00024835,0.,0.00003739,-0.00279707,0.,-0.00
 253968,-0.00005540,0.,0.00042607,-0.00486401,0.,0.00213044,-0.00704171
 ,0.,0.01572802,0.25895265,0.,0.00011791,0.,0.,-0.00934550,0.,0.,0.0012
 7877,0.,0.,0.00347185,0.,0.,0.00134167,0.,0.,0.00334528,0.,0.,-0.00991
 781,0.,0.,0.00716706,0.00001216,0.,-0.00161738,0.01574571,0.,-0.007571
 76,0.00033001,0.,0.00005162,0.00230965,0.,-0.00266774,-0.00005831,0.,0
 .00049995,-0.00225602,0.,-0.00464234,-0.00737415,0.,0.01526086,-0.1853
 8243,0.,0.21888787,0.00487628,0.,-0.02091745,-0.09017617,0.,-0.0104237
 3,-0.00314008,0.,-0.00044562,-0.03433743,0.,0.03257306,0.00001954,0.,0
 .00191983,-0.10560890,0.,0.08841222,-0.26829505,0.,-0.10370673,-0.2556
 6962,0.,0.17667520,0.75231521,0.,0.00102589,0.,0.,-0.03523866,0.,0.,0.
 00249601,0.,0.,0.01028411,0.,0.,0.00327209,0.,0.,0.00855287,0.,0.,-0.0
 3463298,0.,0.,0.00253739,0.,0.,0.04170829,-0.00118762,0.,-0.01267966,-
 0.06418800,0.,-0.37860589,0.00041915,0.,0.00047406,0.10254408,0.,-0.04
 863025,0.00087815,0.,-0.00331703,0.04004633,0.,-0.02210993,-0.08899886
 ,0.,-0.11060447,0.17457130,0.,-0.21819834,-0.16408381,0.,0.79365723\\0
 .00002759,0.,0.00002816,0.00026478,0.,-0.00009441,-0.00001032,0.,0.000
 04654,-0.00019280,0.,0.00016325,-0.00003914,0.,0.00000122,-0.00014448,
 0.,0.00000295,0.00019918,0.,-0.00005464,0.00002860,0.,-0.00000355,-0.0
 0013341,0.,-0.00008953\\\@


 THE DIFFICULTY IN SCIENCE IS OFTEN NOT SO MUCH HOW
 TO MAKE A DISCOVERY BUT RATHER TO KNOW ONE HAS MADE IT.

                                                   -- J. D. BERNAL
 Job cpu time:  0 days  0 hours  0 minutes  4.2 seconds.
 File lengths (MBytes):  RWF=    6 Int=    0 D2E=    0 Chk=    3 Scr=    1
 Normal termination of Gaussian 98.
