 Entering Link 1 = C:\G03W\l1.exe PID=    107392.
  
 Copyright (c) 1988,1990,1992,1993,1995,1998,2003, Gaussian, Inc.
                  All Rights Reserved.
  
 This is the Gaussian(R) 03 program.  It is based on the
 the Gaussian(R) 98 system (copyright 1998, Gaussian, Inc.),
 the Gaussian(R) 94 system (copyright 1995, Gaussian, Inc.),
 the Gaussian 92(TM) system (copyright 1992, Gaussian, Inc.),
 the Gaussian 90(TM) system (copyright 1990, Gaussian, Inc.),
 the Gaussian 88(TM) system (copyright 1988, Gaussian, Inc.),
 the Gaussian 86(TM) system (copyright 1986, Carnegie Mellon
 University), and the Gaussian 82(TM) system (copyright 1983,
 Carnegie Mellon University). Gaussian is a federally registered
 trademark of Gaussian, Inc.
  
 This software contains proprietary and confidential information,
 including trade secrets, belonging to Gaussian, Inc.
  
 This software is provided under written license and may be
 used, copied, transmitted, or stored only in accord with that
 written license.
  
 The following legend is applicable only to US Government
 contracts under DFARS:
  
                    RESTRICTED RIGHTS LEGEND
  
 Use, duplication or disclosure by the US Government is subject
 to restrictions as set forth in subparagraph (c)(1)(ii) of the
 Rights in Technical Data and Computer Software clause at DFARS
 252.227-7013.
  
 Gaussian, Inc.
 Carnegie Office Park, Building 6, Pittsburgh, PA 15106 USA
  
 The following legend is applicable only to US Government
 contracts under FAR:
  
                    RESTRICTED RIGHTS LEGEND
  
 Use, reproduction and disclosure by the US Government is subject
 to restrictions as set forth in subparagraph (c) of the
 Commercial Computer Software - Restricted Rights clause at FAR
 52.227-19.
  
 Gaussian, Inc.
 Carnegie Office Park, Building 6, Pittsburgh, PA 15106 USA
  
  
 ---------------------------------------------------------------
 Warning -- This program may not be used in any manner that
 competes with the business of Gaussian, Inc. or will provide
 assistance to any competitor of Gaussian, Inc.  The licensee
 of this program is prohibited from giving any competitor of
 Gaussian, Inc. access to this program.  By using this program,
 the user acknowledges that Gaussian, Inc. is engaged in the
 business of creating and licensing software in the field of
 computational chemistry and represents and warrants to the
 licensee that it is not a competitor of Gaussian, Inc. and that
 it will not use this program in any manner prohibited above.
 ---------------------------------------------------------------
  

 Cite this work as:
 Gaussian 03, Revision B.05,
 M. J. Frisch, G. W. Trucks, H. B. Schlegel, G. E. Scuseria, 
 M. A. Robb, J. R. Cheeseman, J. A. Montgomery, Jr., T. Vreven, 
 K. N. Kudin, J. C. Burant, J. M. Millam, S. S. Iyengar, J. Tomasi, 
 V. Barone, B. Mennucci, M. Cossi, G. Scalmani, N. Rega, 
 G. A. Petersson, H. Nakatsuji, M. Hada, M. Ehara, K. Toyota, 
 R. Fukuda, J. Hasegawa, M. Ishida, T. Nakajima, Y. Honda, O. Kitao, 
 H. Nakai, M. Klene, X. Li, J. E. Knox, H. P. Hratchian, J. B. Cross, 
 C. Adamo, J. Jaramillo, R. Gomperts, R. E. Stratmann, O. Yazyev, 
 A. J. Austin, R. Cammi, C. Pomelli, J. W. Ochterski, P. Y. Ayala, 
 K. Morokuma, G. A. Voth, P. Salvador, J. J. Dannenberg, 
 V. G. Zakrzewski, S. Dapprich, A. D. Daniels, M. C. Strain, 
 O. Farkas, D. K. Malick, A. D. Rabuck, K. Raghavachari, 
 J. B. Foresman, J. V. Ortiz, Q. Cui, A. G. Baboul, S. Clifford, 
 J. Cioslowski, B. B. Stefanov, G. Liu, A. Liashenko, P. Piskorz, 
 I. Komaromi, R. L. Martin, D. J. Fox, T. Keith, M. A. Al-Laham, 
 C. Y. Peng, A. Nanayakkara, M. Challacombe, P. M. W. Gill, 
 B. Johnson, W. Chen, M. W. Wong, C. Gonzalez, and J. A. Pople, 
 Gaussian, Inc., Pittsburgh PA, 2003.
 
 **********************************************
 Gaussian 03:  x86-Win32-G03RevB.05  8-Nov-2003
                  21-May-2007 
 **********************************************
 %mem=36000000
 ----------------------------
 #HF/6-311+G(3df,2p) opt freq
 ----------------------------
 1/18=20,38=1/1,3;
 2/9=110,17=6,18=5,40=1/2;
 3/5=4,6=6,7=216,11=9,16=1,25=1,30=1/1,2,3;
 4//1;
 5/5=2,38=5/2;
 6/7=2,8=2,9=2,10=2,28=1/1;
 7//1,2,3,16;
 1/18=20/3(1);
 99//99;
 2/9=110/2;
 3/5=4,6=6,7=216,11=9,16=1,25=1,30=1/1,2,3;
 4/5=5,16=3/1;
 5/5=2,38=5/2;
 7//1,2,3,16;
 1/18=20/3(-5);
 2/9=110/2;
 6/7=2,8=2,9=2,10=2,19=2,28=1/1;
 99/9=1/99;
 -----------------------------------------------------------
 1hpyraz 1H-Pyrazole casno=288131 method=1 basis=10 config=1
 -----------------------------------------------------------
 Symbolic Z-matrix:
 Charge =  0 Multiplicity = 1
 H                     2.08045   0.72242   0. 
 C                     1.09639   0.3024    0. 
 H                     1.25554  -1.87978   0. 
 C                     0.66281  -0.9897    0. 
 H                    -1.47487  -1.65877   0. 
 C                    -0.74554  -0.87448   0. 
 N                    -1.12786   0.37057   0. 
 H                    -0.04808   2.06666   0. 
 N                     0.        1.07516   0. 
 

 GradGradGradGradGradGradGradGradGradGradGradGradGradGradGradGradGradGrad
 Berny optimization.
 Initialization pass.
                           ----------------------------
                           !    Initial Parameters    !
                           ! (Angstroms and Degrees)  !
 --------------------------                            --------------------------
 ! Name  Definition              Value          Derivative Info.                !
 --------------------------------------------------------------------------------
 ! R1    R(1,2)                  1.0699         estimate D2E/DX2                !
 ! R2    R(2,4)                  1.3629         estimate D2E/DX2                !
 ! R3    R(2,9)                  1.3414         estimate D2E/DX2                !
 ! R4    R(3,4)                  1.0694         estimate D2E/DX2                !
 ! R5    R(4,6)                  1.4131         estimate D2E/DX2                !
 ! R6    R(5,6)                  1.071          estimate D2E/DX2                !
 ! R7    R(6,7)                  1.3024         estimate D2E/DX2                !
 ! R8    R(7,9)                  1.3299         estimate D2E/DX2                !
 ! R9    R(8,9)                  0.9927         estimate D2E/DX2                !
 ! A1    A(1,2,4)              131.6638         estimate D2E/DX2                !
 ! A2    A(1,2,9)              121.709          estimate D2E/DX2                !
 ! A3    A(4,2,9)              106.6272         estimate D2E/DX2                !
 ! A4    A(2,4,3)              127.7894         estimate D2E/DX2                !
 ! A5    A(2,4,6)              103.8727         estimate D2E/DX2                !
 ! A6    A(3,4,6)              128.3379         estimate D2E/DX2                !
 ! A7    A(4,6,5)              128.2433         estimate D2E/DX2                !
 ! A8    A(4,6,7)              111.7472         estimate D2E/DX2                !
 ! A9    A(5,6,7)              120.0095         estimate D2E/DX2                !
 ! A10   A(6,7,9)              104.9237         estimate D2E/DX2                !
 ! A11   A(2,9,7)              112.8292         estimate D2E/DX2                !
 ! A12   A(2,9,8)              127.9532         estimate D2E/DX2                !
 ! A13   A(7,9,8)              119.2176         estimate D2E/DX2                !
 ! D1    D(1,2,4,3)              0.0            estimate D2E/DX2                !
 ! D2    D(1,2,4,6)            180.0            estimate D2E/DX2                !
 ! D3    D(9,2,4,3)            180.0            estimate D2E/DX2                !
 ! D4    D(9,2,4,6)              0.0            estimate D2E/DX2                !
 ! D5    D(1,2,9,7)            180.0            estimate D2E/DX2                !
 ! D6    D(1,2,9,8)              0.0            estimate D2E/DX2                !
 ! D7    D(4,2,9,7)              0.0            estimate D2E/DX2                !
 ! D8    D(4,2,9,8)            180.0            estimate D2E/DX2                !
 ! D9    D(2,4,6,5)            180.0            estimate D2E/DX2                !
 ! D10   D(2,4,6,7)              0.0            estimate D2E/DX2                !
 ! D11   D(3,4,6,5)              0.0            estimate D2E/DX2                !
 ! D12   D(3,4,6,7)            180.0            estimate D2E/DX2                !
 ! D13   D(4,6,7,9)              0.0            estimate D2E/DX2                !
 ! D14   D(5,6,7,9)            180.0            estimate D2E/DX2                !
 ! D15   D(6,7,9,2)              0.0            estimate D2E/DX2                !
 ! D16   D(6,7,9,8)            180.0            estimate D2E/DX2                !
 --------------------------------------------------------------------------------
 Trust Radius=3.00D-01 FncErr=1.00D-07 GrdErr=1.00D-07
 Number of steps in this run=  48 maximum allowed number of steps= 100.
 GradGradGradGradGradGradGradGradGradGradGradGradGradGradGradGradGradGrad

                          Input orientation:                          
 ---------------------------------------------------------------------
 Center     Atomic     Atomic              Coordinates (Angstroms)
 Number     Number      Type              X           Y           Z
 ---------------------------------------------------------------------
    1          1             0        2.080447    0.722417    0.000000
    2          6             0        1.096394    0.302400    0.000000
    3          1             0        1.255542   -1.879784    0.000000
    4          6             0        0.662812   -0.989701    0.000000
    5          1             0       -1.474873   -1.658768    0.000000
    6          6             0       -0.745544   -0.874478    0.000000
    7          7             0       -1.127859    0.370571    0.000000
    8          1             0       -0.048078    2.066660    0.000000
    9          7             0        0.000000    1.075164    0.000000
 ---------------------------------------------------------------------
                    Distance matrix (angstroms):
                    1          2          3          4          5
     1  H    0.000000
     2  C    1.069941   0.000000
     3  H    2.729820   2.187980   0.000000
     4  C    2.222844   1.362908   1.069381   0.000000
     5  H    4.279059   3.233820   2.739346   2.239944   0.000000
     6  C    3.245967   2.185813   2.239416   1.413062   1.070996
     7  N    3.227541   2.225297   3.277911   2.248742   2.058795
     8  H    2.517461   2.102957   4.156182   3.137946   3.989305
     9  N    2.110140   1.341359   3.210624   2.168637   3.106386
                    6          7          8          9
     6  C    0.000000
     7  N    1.302425   0.000000
     8  H    3.022706   2.010633   0.000000
     9  N    2.087328   1.329856   0.992661   0.000000
 Stoichiometry    C3H4N2
 Framework group  CS[SG(C3H4N2)]
 Deg. of freedom    15
 Full point group                 CS      NOp   2
 Largest Abelian subgroup         CS      NOp   2
 Largest concise Abelian subgroup C1      NOp   1
                         Standard orientation:                         
 ---------------------------------------------------------------------
 Center     Atomic     Atomic              Coordinates (Angstroms)
 Number     Number      Type              X           Y           Z
 ---------------------------------------------------------------------
    1          1             0        2.080447    0.722417    0.000000
    2          6             0        1.096394    0.302400    0.000000
    3          1             0        1.255542   -1.879784    0.000000
    4          6             0        0.662812   -0.989701    0.000000
    5          1             0       -1.474873   -1.658768    0.000000
    6          6             0       -0.745544   -0.874478    0.000000
    7          7             0       -1.127859    0.370571    0.000000
    8          1             0       -0.048078    2.066660    0.000000
    9          7             0        0.000000    1.075164    0.000000
 ---------------------------------------------------------------------
 Rotational constants (GHZ):      9.8799678      9.6409251      4.8794914
 Standard basis: 6-311+G(3df,2p) (5D, 7F)
 There are   158 symmetry adapted basis functions of A'  symmetry.
 There are    73 symmetry adapted basis functions of A"  symmetry.
 Integral buffers will be    262144 words long.
 Raffenetti 1 integral format.
 Two-electron integral symmetry is turned on.
   231 basis functions,   334 primitive gaussians,   261 cartesian basis functions
    18 alpha electrons       18 beta electrons
       nuclear repulsion energy       164.9559149755 Hartrees.
 NAtoms=    9 NActive=    9 NUniq=    9 SFac= 1.00D+00 NAtFMM=   60 Big=F
 One-electron integrals computed using PRISM.
 NBasis=   231 RedAO= T  NBF=   158    73
 NBsUse=   231 1.00D-06 NBFU=   158    73
 Harris functional with IExCor=  205 diagonalized for initial guess.
 ExpMin= 4.38D-02 ExpMax= 6.29D+03 ExpMxC= 9.49D+02 IAcc=2 IRadAn=         4 AccDes= 0.00D+00
 HarFok:  IExCor= 205 AccDes= 0.00D+00 IRadAn=         4 IDoV=1
 ScaDFX=  1.000000  1.000000  1.000000  1.000000
 Initial guess orbital symmetries:
       Occupied  (A') (A') (A') (A') (A') (A') (A') (A') (A') (A')
                 (A') (A') (A') (A") (A') (A') (A") (A")
       Virtual   (A") (A") (A') (A') (A') (A') (A') (A") (A') (A')
                 (A') (A") (A") (A') (A') (A') (A') (A') (A') (A')
                 (A") (A') (A") (A') (A') (A') (A') (A") (A') (A')
                 (A') (A') (A') (A') (A") (A') (A") (A") (A') (A")
                 (A") (A') (A') (A') (A') (A') (A') (A") (A") (A')
                 (A') (A') (A") (A") (A') (A') (A") (A') (A") (A')
                 (A') (A') (A') (A') (A") (A') (A') (A') (A") (A")
                 (A') (A') (A") (A") (A') (A') (A") (A') (A') (A")
                 (A') (A') (A') (A") (A') (A") (A') (A') (A') (A')
                 (A') (A") (A') (A') (A") (A') (A') (A') (A") (A')
                 (A") (A') (A') (A") (A') (A') (A') (A") (A") (A')
                 (A') (A') (A") (A') (A") (A') (A") (A') (A') (A")
                 (A") (A') (A") (A') (A') (A") (A') (A") (A') (A')
                 (A") (A') (A') (A") (A') (A") (A') (A') (A') (A")
                 (A') (A') (A') (A') (A') (A") (A') (A") (A") (A')
                 (A') (A') (A") (A') (A') (A") (A') (A") (A') (A')
                 (A") (A") (A') (A') (A') (A") (A') (A") (A') (A")
                 (A') (A') (A") (A") (A') (A') (A') (A') (A') (A')
                 (A') (A') (A') (A") (A") (A") (A") (A') (A') (A')
                 (A") (A") (A') (A') (A') (A') (A') (A') (A") (A")
                 (A') (A") (A') (A') (A") (A') (A') (A') (A') (A')
                 (A') (A') (A')
 The electronic state of the initial guess is 1-A'.
 Requested convergence on RMS density matrix=1.00D-08 within 128 cycles.
 Requested convergence on MAX density matrix=1.00D-06.
 Requested convergence on             energy=1.00D-06.
 No special actions if energy rises.
 SCF Done:  E(RHF) =  -224.873354099     A.U. after   13 cycles
             Convg  =    0.7733D-08             -V/T =  2.0004
             S**2   =   0.0000

 **********************************************************************

            Population analysis using the SCF density.

 **********************************************************************

 Orbital symmetries:
       Occupied  (A') (A') (A') (A') (A') (A') (A') (A') (A') (A')
                 (A') (A') (A") (A') (A') (A') (A") (A")
       Virtual   (A') (A') (A') (A') (A") (A') (A") (A") (A') (A')
                 (A') (A") (A') (A') (A") (A') (A") (A') (A') (A')
                 (A") (A') (A') (A') (A') (A') (A') (A') (A") (A')
                 (A') (A') (A') (A") (A') (A") (A') (A") (A') (A")
                 (A') (A') (A') (A") (A') (A') (A") (A') (A") (A')
                 (A') (A") (A') (A") (A') (A') (A') (A") (A") (A')
                 (A') (A') (A') (A') (A') (A") (A') (A") (A') (A")
                 (A') (A') (A") (A') (A") (A') (A") (A') (A') (A")
                 (A') (A') (A') (A') (A') (A") (A') (A') (A") (A')
                 (A') (A') (A") (A') (A") (A') (A') (A') (A') (A")
                 (A") (A') (A') (A") (A') (A') (A') (A") (A") (A')
                 (A') (A') (A") (A') (A') (A') (A") (A") (A') (A")
                 (A") (A') (A") (A') (A') (A") (A') (A") (A') (A')
                 (A") (A') (A') (A") (A') (A") (A') (A') (A") (A')
                 (A') (A') (A') (A") (A') (A') (A') (A") (A') (A")
                 (A') (A") (A') (A') (A") (A') (A') (A') (A") (A')
                 (A") (A") (A') (A') (A') (A") (A") (A') (A') (A")
                 (A') (A') (A") (A") (A') (A') (A') (A') (A') (A')
                 (A') (A') (A') (A") (A") (A") (A") (A') (A') (A')
                 (A") (A") (A') (A') (A') (A') (A') (A') (A") (A")
                 (A') (A") (A') (A') (A") (A') (A') (A') (A') (A')
                 (A') (A') (A')
 The electronic state is 1-A'.
 Alpha  occ. eigenvalues --  -15.63564 -15.58172 -11.27238 -11.24654 -11.21692
 Alpha  occ. eigenvalues --   -1.39053  -1.10745  -1.05731  -0.82815  -0.80931
 Alpha  occ. eigenvalues --   -0.74892  -0.61762  -0.61668  -0.59668  -0.56593
 Alpha  occ. eigenvalues --   -0.45873  -0.36850  -0.35042
 Alpha virt. eigenvalues --    0.05747   0.07515   0.08507   0.10485   0.11269
 Alpha virt. eigenvalues --    0.11398   0.12550   0.14806   0.15069   0.16710
 Alpha virt. eigenvalues --    0.17750   0.18536   0.20051   0.21580   0.22294
 Alpha virt. eigenvalues --    0.24741   0.26612   0.27175   0.28745   0.29597
 Alpha virt. eigenvalues --    0.29664   0.30903   0.32492   0.32898   0.35903
 Alpha virt. eigenvalues --    0.38392   0.40955   0.44274   0.46724   0.49067
 Alpha virt. eigenvalues --    0.50009   0.55885   0.58092   0.59607   0.60189
 Alpha virt. eigenvalues --    0.61045   0.63434   0.64061   0.65037   0.66172
 Alpha virt. eigenvalues --    0.69176   0.69695   0.71255   0.71437   0.75844
 Alpha virt. eigenvalues --    0.78996   0.80047   0.81499   0.83169   0.83578
 Alpha virt. eigenvalues --    0.85150   0.85942   0.90673   0.90769   0.92711
 Alpha virt. eigenvalues --    0.95820   0.97661   0.98348   0.99659   1.04420
 Alpha virt. eigenvalues --    1.10041   1.10392   1.14338   1.16652   1.19865
 Alpha virt. eigenvalues --    1.20274   1.22912   1.24833   1.26254   1.26750
 Alpha virt. eigenvalues --    1.28417   1.29732   1.31265   1.35541   1.37923
 Alpha virt. eigenvalues --    1.38892   1.40655   1.41517   1.43746   1.45164
 Alpha virt. eigenvalues --    1.46934   1.53738   1.57751   1.60870   1.68369
 Alpha virt. eigenvalues --    1.69825   1.70382   1.74741   1.76479   1.81548
 Alpha virt. eigenvalues --    1.84689   1.86846   1.92010   1.92943   2.03263
 Alpha virt. eigenvalues --    2.13981   2.18560   2.22047   2.33277   2.35555
 Alpha virt. eigenvalues --    2.36771   2.38607   2.40918   2.47816   2.55288
 Alpha virt. eigenvalues --    2.59935   2.63579   2.67128   2.81030   2.81925
 Alpha virt. eigenvalues --    2.86703   2.89241   2.98364   2.99430   3.02287
 Alpha virt. eigenvalues --    3.04938   3.05420   3.12935   3.15496   3.23561
 Alpha virt. eigenvalues --    3.26662   3.28760   3.31212   3.33914   3.38565
 Alpha virt. eigenvalues --    3.39775   3.42971   3.48678   3.49482   3.58124
 Alpha virt. eigenvalues --    3.62343   3.65616   3.69375   3.74350   3.80535
 Alpha virt. eigenvalues --    3.82521   3.83373   3.93236   3.97870   4.00506
 Alpha virt. eigenvalues --    4.07941   4.12331   4.18677   4.21851   4.24316
 Alpha virt. eigenvalues --    4.28047   4.33610   4.36585   4.40060   4.42072
 Alpha virt. eigenvalues --    4.45322   4.46937   4.47609   4.54872   4.61768
 Alpha virt. eigenvalues --    4.63013   4.69130   4.71896   4.73207   4.73515
 Alpha virt. eigenvalues --    4.78378   4.81267   4.92089   5.01447   5.09777
 Alpha virt. eigenvalues --    5.11640   5.25806   5.28599   5.31203   5.31694
 Alpha virt. eigenvalues --    5.44589   5.48164   5.50644   5.66849   5.72118
 Alpha virt. eigenvalues --    5.89293   6.06971   6.27155   6.34187   6.71530
 Alpha virt. eigenvalues --    6.79619   7.18669   7.26665   7.55371   7.59649
 Alpha virt. eigenvalues --    7.71585   7.73689   7.77020   7.89484   7.98653
 Alpha virt. eigenvalues --    7.99973   8.09137   8.19948   8.49598   8.59492
 Alpha virt. eigenvalues --    8.77482   8.93036   9.01942  10.68990  11.00950
 Alpha virt. eigenvalues --   11.06646  11.11036  11.33538  11.40317  11.40759
 Alpha virt. eigenvalues --   11.55007  12.03649  12.78444  25.73657  26.49090
 Alpha virt. eigenvalues --   26.79404  37.61554  37.77456
          Condensed to atoms (all electrons):
              1          2          3          4          5          6
     1  H    0.465133   0.491224  -0.001412  -0.090239  -0.000046   0.005475
     2  C    0.491224   5.383606  -0.084760  -0.017909   0.009917  -0.275536
     3  H   -0.001412  -0.084760   0.478732   0.510326  -0.000762  -0.072694
     4  C   -0.090239  -0.017909   0.510326   5.890241  -0.119680   0.095180
     5  H   -0.000046   0.009917  -0.000762  -0.119680   0.490559   0.513091
     6  C    0.005475  -0.275536  -0.072694   0.095180   0.513091   5.164013
     7  N    0.006418  -0.146767  -0.000096  -0.043363  -0.055819   0.415522
     8  H   -0.001067  -0.042215   0.000009  -0.002630  -0.000174   0.004654
     9  N   -0.042719   0.237975   0.009511  -0.153651   0.013816  -0.214335
              7          8          9
     1  H    0.006418  -0.001067  -0.042719
     2  C   -0.146767  -0.042215   0.237975
     3  H   -0.000096   0.000009   0.009511
     4  C   -0.043363  -0.002630  -0.153651
     5  H   -0.055819  -0.000174   0.013816
     6  C    0.415522   0.004654  -0.214335
     7  N    7.953719  -0.065758  -0.253475
     8  H   -0.065758   0.479618   0.458767
     9  N   -0.253475   0.458767   7.520825
 Mulliken atomic charges:
              1
     1  H    0.167234
     2  C    0.444467
     3  H    0.161146
     4  C   -0.068274
     5  H    0.149099
     6  C    0.364628
     7  N   -0.810381
     8  H    0.168797
     9  N   -0.576715
 Sum of Mulliken charges=   0.00000
 Atomic charges with hydrogens summed into heavy atoms:
              1
     1  H    0.000000
     2  C    0.611700
     3  H    0.000000
     4  C    0.092871
     5  H    0.000000
     6  C    0.513728
     7  N   -0.810381
     8  H    0.000000
     9  N   -0.407918
 Sum of Mulliken charges=   0.00000
 Electronic spatial extent (au):  <R**2>=   282.1143
 Charge=     0.0000 electrons
 Dipole moment (field-independent basis, Debye):
    X=     2.2445    Y=     0.7328    Z=     0.0000  Tot=     2.3611
 Quadrupole moment (field-independent basis, Debye-Ang):
   XX=   -29.9487   YY=   -22.3680   ZZ=   -32.6270
   XY=     2.8551   XZ=     0.0000   YZ=     0.0000
 Traceless Quadrupole moment (field-independent basis, Debye-Ang):
   XX=    -1.6341   YY=     5.9466   ZZ=    -4.3125
   XY=     2.8551   XZ=     0.0000   YZ=     0.0000
 Octapole moment (field-independent basis, Debye-Ang**2):
  XXX=    10.1028  YYY=    11.6948  ZZZ=     0.0000  XYY=     0.2216
  XXY=    -2.3522  XXZ=     0.0000  XZZ=    -1.0161  YZZ=     2.2736
  YYZ=     0.0000  XYZ=     0.0000
 Hexadecapole moment (field-independent basis, Debye-Ang**3):
 XXXX=  -174.8506 YYYY=  -131.0323 ZZZZ=   -37.3773 XXXY=    11.9878
 XXXZ=     0.0000 YYYX=    -1.0370 YYYZ=     0.0000 ZZZX=     0.0000
 ZZZY=     0.0000 XXYY=   -51.0315 XXZZ=   -39.6865 YYZZ=   -37.8689
 XXYZ=     0.0000 YYXZ=     0.0000 ZZXY=     0.4808
 N-N= 1.649559149755D+02 E-N=-8.555090079227D+02  KE= 2.247892928476D+02
 Symmetry A'   KE= 2.170182694229D+02
 Symmetry A"   KE= 7.771023424764D+00
 ***** Axes restored to original set *****
 -------------------------------------------------------------------
 Center     Atomic                   Forces (Hartrees/Bohr)
 Number     Number              X              Y              Z
 -------------------------------------------------------------------
    1          1          -0.001125771   -0.000609204    0.000000000
    2          6          -0.004789601    0.000978236    0.000000000
    3          1          -0.001029509    0.001548124    0.000000000
    4          6           0.000021927    0.001514374    0.000000000
    5          1           0.000828455    0.000734562    0.000000000
    6          6          -0.001588212    0.002917516    0.000000000
    7          7           0.006834774   -0.003717991    0.000000000
    8          1           0.000741427   -0.003300574    0.000000000
    9          7           0.000106512   -0.000065044    0.000000000
 -------------------------------------------------------------------
 Cartesian Forces:  Max     0.006834774 RMS     0.002068664

 GradGradGradGradGradGradGradGradGradGradGradGradGradGradGradGradGradGrad
 Berny optimization.
 Internal  Forces:  Max     0.005330005 RMS     0.001663055
 Search for a local minimum.
 Step number   1 out of a maximum of  48
 All quantities printed in internal units (Hartrees-Bohrs-Radians)
 Second derivative matrix not updated -- first step.
     Eigenvalues ---    0.02140   0.02277   0.02344   0.02397   0.02534
     Eigenvalues ---    0.02554   0.16000   0.16000   0.16000   0.16000
     Eigenvalues ---    0.22000   0.22929   0.37105   0.37238   0.37308
     Eigenvalues ---    0.40394   0.48796   0.49002   0.53148   0.57511
     Eigenvalues ---    0.639231000.000001000.000001000.000001000.00000
     Eigenvalues --- 1000.000001000.000001000.000001000.000001000.00000
     Eigenvalues --- 1000.000001000.000001000.000001000.000001000.00000
     Eigenvalues --- 1000.000001000.000001000.00000
 RFO step:  Lambda=-2.10009640D-04.
 Linear search not attempted -- first point.
 Iteration  1 RMS(Cart)=  0.00404315 RMS(Int)=  0.00000657
 Iteration  2 RMS(Cart)=  0.00000866 RMS(Int)=  0.00000131
 Iteration  3 RMS(Cart)=  0.00000000 RMS(Int)=  0.00000131
 Variable       Old X    -DE/DX   Delta X   Delta X   Delta X     New X
                                 (Linear)    (Quad)   (Total)
    R1        2.02190  -0.00127   0.00000  -0.00342  -0.00342   2.01848
    R2        2.57552  -0.00260   0.00000  -0.00471  -0.00471   2.57081
    R3        2.53480  -0.00533   0.00000  -0.00958  -0.00958   2.52522
    R4        2.02084  -0.00186   0.00000  -0.00498  -0.00498   2.01586
    R5        2.67030  -0.00234   0.00000  -0.00493  -0.00493   2.66537
    R6        2.02389  -0.00110   0.00000  -0.00297  -0.00297   2.02092
    R7        2.46123  -0.00511   0.00000  -0.00768  -0.00768   2.45354
    R8        2.51306  -0.00357   0.00000  -0.00635  -0.00635   2.50671
    R9        1.87586  -0.00333   0.00000  -0.00680  -0.00680   1.86906
    A1        2.29797  -0.00036   0.00000  -0.00201  -0.00201   2.29596
    A2        2.12422  -0.00012   0.00000  -0.00052  -0.00052   2.12371
    A3        1.86100   0.00049   0.00000   0.00253   0.00252   1.86352
    A4        2.23035   0.00013   0.00000  -0.00024  -0.00024   2.23011
    A5        1.81292  -0.00026   0.00000   0.00046   0.00046   1.81338
    A6        2.23992   0.00013   0.00000  -0.00022  -0.00022   2.23970
    A7        2.23827   0.00056   0.00000   0.00189   0.00189   2.24016
    A8        1.95036  -0.00134   0.00000  -0.00513  -0.00513   1.94523
    A9        2.09456   0.00078   0.00000   0.00324   0.00324   2.09780
   A10        1.83126   0.00188   0.00000   0.00665   0.00665   1.83791
   A11        1.96924  -0.00077   0.00000  -0.00451  -0.00450   1.96474
   A12        2.23320  -0.00016   0.00000  -0.00115  -0.00115   2.23206
   A13        2.08074   0.00093   0.00000   0.00565   0.00565   2.08639
    D1        0.00000   0.00000   0.00000   0.00000   0.00000   0.00000
    D2        3.14159   0.00000   0.00000   0.00000   0.00000   3.14159
    D3        3.14159   0.00000   0.00000   0.00000   0.00000   3.14159
    D4        0.00000   0.00000   0.00000   0.00000   0.00000   0.00000
    D5        3.14159   0.00000   0.00000   0.00000   0.00000   3.14159
    D6        0.00000   0.00000   0.00000   0.00000   0.00000   0.00000
    D7        0.00000   0.00000   0.00000   0.00000   0.00000   0.00000
    D8        3.14159   0.00000   0.00000   0.00000   0.00000   3.14159
    D9        3.14159   0.00000   0.00000   0.00000   0.00000   3.14159
   D10        0.00000   0.00000   0.00000   0.00000   0.00000   0.00000
   D11        0.00000   0.00000   0.00000   0.00000   0.00000   0.00000
   D12        3.14159   0.00000   0.00000   0.00000   0.00000   3.14159
   D13        0.00000   0.00000   0.00000   0.00000   0.00000   0.00000
   D14        3.14159   0.00000   0.00000   0.00000   0.00000   3.14159
   D15        0.00000   0.00000   0.00000   0.00000   0.00000   0.00000
   D16        3.14159   0.00000   0.00000   0.00000   0.00000   3.14159
         Item               Value     Threshold  Converged?
 Maximum Force            0.005330     0.000450     NO 
 RMS     Force            0.001663     0.000300     NO 
 Maximum Displacement     0.011678     0.001800     NO 
 RMS     Displacement     0.004044     0.001200     NO 
 Predicted change in Energy=-1.050599D-04
 GradGradGradGradGradGradGradGradGradGradGradGradGradGradGradGradGradGrad

                          Input orientation:                          
 ---------------------------------------------------------------------
 Center     Atomic     Atomic              Coordinates (Angstroms)
 Number     Number      Type              X           Y           Z
 ---------------------------------------------------------------------
    1          1             0        2.075051    0.721381    0.000000
    2          6             0        1.092316    0.302888    0.000000
    3          1             0        1.253578   -1.874411    0.000000
    4          6             0        0.661051   -0.987360    0.000000
    5          1             0       -1.473348   -1.657608    0.000000
    6          6             0       -0.744890   -0.874653    0.000000
    7          7             0       -1.121679    0.367831    0.000000
    8          1             0       -0.044341    2.062216    0.000000
    9          7             0        0.001103    1.074197    0.000000
 ---------------------------------------------------------------------
                    Distance matrix (angstroms):
                    1          2          3          4          5
     1  H    0.000000
     2  C    1.068131   0.000000
     3  H    2.722674   2.183263   0.000000
     4  C    2.217926   1.360416   1.066746   0.000000
     5  H    4.272087   3.228960   2.735530   2.237161   0.000000
     6  C    3.240277   2.182185   2.234589   1.410452   1.069425
     7  N    3.216222   2.214948   3.266419   2.239346   2.055742
     8  H    2.507919   2.094570   4.145072   3.130094   3.984865
     9  N    2.103745   1.336287   3.203588   2.164613   3.104314
                    6          7          8          9
     6  C    0.000000
     7  N    1.298359   0.000000
     8  H    3.019266   2.007884   0.000000
     9  N    2.086749   1.326496   0.989064   0.000000
 Stoichiometry    C3H4N2
 Framework group  CS[SG(C3H4N2)]
 Deg. of freedom    15
 Full point group                 CS      NOp   2
 Largest Abelian subgroup         CS      NOp   2
 Largest concise Abelian subgroup C1      NOp   1
                         Standard orientation:                         
 ---------------------------------------------------------------------
 Center     Atomic     Atomic              Coordinates (Angstroms)
 Number     Number      Type              X           Y           Z
 ---------------------------------------------------------------------
    1          1             0        2.074148    0.722806    0.000000
    2          6             0        1.091651    0.303756    0.000000
    3          1             0        1.254146   -1.873451    0.000000
    4          6             0        0.661117   -0.986736    0.000000
    5          1             0       -1.472902   -1.658194    0.000000
    6          6             0       -0.744888   -0.874826    0.000000
    7          7             0       -1.122381    0.367444    0.000000
    8          1             0       -0.046003    2.062439    0.000000
    9          7             0        0.000000    1.074446    0.000000
 ---------------------------------------------------------------------
 Rotational constants (GHZ):      9.8986405      9.7197197      4.9041821
 Standard basis: 6-311+G(3df,2p) (5D, 7F)
 There are   158 symmetry adapted basis functions of A'  symmetry.
 There are    73 symmetry adapted basis functions of A"  symmetry.
 Integral buffers will be    262144 words long.
 Raffenetti 1 integral format.
 Two-electron integral symmetry is turned on.
   231 basis functions,   334 primitive gaussians,   261 cartesian basis functions
    18 alpha electrons       18 beta electrons
       nuclear repulsion energy       165.3753743785 Hartrees.
 NAtoms=    9 NActive=    9 NUniq=    9 SFac= 1.00D+00 NAtFMM=   60 Big=F
 One-electron integrals computed using PRISM.
 NBasis=   231 RedAO= T  NBF=   158    73
 NBsUse=   231 1.00D-06 NBFU=   158    73
 Initial guess read from the read-write file:
 Initial guess orbital symmetries:
       Occupied  (A') (A') (A') (A') (A') (A') (A') (A') (A') (A')
                 (A') (A') (A") (A') (A') (A') (A") (A")
       Virtual   (A') (A') (A') (A') (A") (A') (A") (A") (A') (A')
                 (A') (A") (A') (A') (A") (A') (A") (A') (A') (A')
                 (A") (A') (A') (A') (A') (A') (A') (A') (A") (A')
                 (A') (A') (A') (A") (A') (A") (A') (A") (A') (A")
                 (A') (A') (A') (A") (A') (A') (A") (A') (A") (A')
                 (A') (A") (A') (A") (A') (A') (A') (A") (A") (A')
                 (A') (A') (A') (A') (A') (A") (A') (A") (A') (A")
                 (A') (A') (A") (A') (A") (A') (A") (A') (A') (A")
                 (A') (A') (A') (A') (A') (A") (A') (A') (A") (A')
                 (A') (A') (A") (A') (A") (A') (A') (A') (A') (A")
                 (A") (A') (A') (A") (A') (A') (A') (A") (A") (A')
                 (A') (A') (A") (A') (A') (A') (A") (A") (A') (A")
                 (A") (A') (A") (A') (A') (A") (A') (A") (A') (A')
                 (A") (A') (A') (A") (A') (A") (A') (A') (A") (A')
                 (A') (A') (A') (A") (A') (A') (A') (A") (A') (A")
                 (A') (A") (A') (A') (A") (A') (A') (A') (A") (A')
                 (A") (A") (A') (A') (A') (A") (A") (A') (A') (A")
                 (A') (A') (A") (A") (A') (A') (A') (A') (A') (A')
                 (A') (A') (A') (A") (A") (A") (A") (A') (A') (A')
                 (A") (A") (A') (A') (A') (A') (A') (A') (A") (A")
                 (A') (A") (A') (A') (A") (A') (A') (A') (A') (A')
                 (A') (A') (A')
 Requested convergence on RMS density matrix=1.00D-08 within 128 cycles.
 Requested convergence on MAX density matrix=1.00D-06.
 Requested convergence on             energy=1.00D-06.
 No special actions if energy rises.
 SCF Done:  E(RHF) =  -224.873445812     A.U. after   10 cycles
             Convg  =    0.3256D-08             -V/T =  2.0001
             S**2   =   0.0000
 ***** Axes restored to original set *****
 -------------------------------------------------------------------
 Center     Atomic                   Forces (Hartrees/Bohr)
 Number     Number              X              Y              Z
 -------------------------------------------------------------------
    1          1           0.000305023   -0.000153189    0.000000000
    2          6           0.000350617    0.000414271    0.000000000
    3          1           0.000224079   -0.000120351    0.000000000
    4          6           0.000888309   -0.000646090    0.000000000
    5          1          -0.000056837    0.000009171    0.000000000
    6          6          -0.000120894    0.000870526    0.000000000
    7          7          -0.000655951    0.000852564    0.000000000
    8          1          -0.000060201    0.000272881    0.000000000
    9          7          -0.000874145   -0.001499783    0.000000000
 -------------------------------------------------------------------
 Cartesian Forces:  Max     0.001499783 RMS     0.000498395

 GradGradGradGradGradGradGradGradGradGradGradGradGradGradGradGradGradGrad
 Berny optimization.
 Internal  Forces:  Max     0.000938182 RMS     0.000346222
 Search for a local minimum.
 Step number   2 out of a maximum of  48
 All quantities printed in internal units (Hartrees-Bohrs-Radians)
 Update second derivatives using D2CorX and points  1  2
 Trust test= 8.73D-01 RLast= 2.19D-02 DXMaxT set to 3.00D-01
     Eigenvalues ---    0.02140   0.02277   0.02345   0.02397   0.02533
     Eigenvalues ---    0.02555   0.15813   0.16000   0.16000   0.16085
     Eigenvalues ---    0.21965   0.25551   0.37025   0.37261   0.37475
     Eigenvalues ---    0.40745   0.48789   0.49476   0.53716   0.56325
     Eigenvalues ---    0.646401000.000001000.000001000.000001000.00000
     Eigenvalues --- 1000.000001000.000001000.000001000.000001000.00000
     Eigenvalues --- 1000.000001000.000001000.000001000.000001000.00000
     Eigenvalues --- 1000.000001000.000001000.00000
 RFO step:  Lambda=-9.88410568D-06.
 Quartic linear search produced a step of -0.11437.
 Iteration  1 RMS(Cart)=  0.00119769 RMS(Int)=  0.00000080
 Iteration  2 RMS(Cart)=  0.00000078 RMS(Int)=  0.00000021
 Variable       Old X    -DE/DX   Delta X   Delta X   Delta X     New X
                                 (Linear)    (Quad)   (Total)
    R1        2.01848   0.00022   0.00039  -0.00003   0.00036   2.01883
    R2        2.57081  -0.00006   0.00054  -0.00076  -0.00022   2.57059
    R3        2.52522   0.00058   0.00110  -0.00069   0.00041   2.52563
    R4        2.01586   0.00022   0.00057  -0.00028   0.00029   2.01615
    R5        2.66537   0.00094   0.00056   0.00122   0.00179   2.66715
    R6        2.02092   0.00003   0.00034  -0.00041  -0.00007   2.02085
    R7        2.45354   0.00008   0.00088  -0.00117  -0.00030   2.45325
    R8        2.50671  -0.00056   0.00073  -0.00198  -0.00125   2.50546
    R9        1.86906   0.00028   0.00078  -0.00061   0.00017   1.86923
    A1        2.29596  -0.00015   0.00023  -0.00139  -0.00116   2.29480
    A2        2.12371   0.00037   0.00006   0.00177   0.00183   2.12554
    A3        1.86352  -0.00022  -0.00029  -0.00038  -0.00067   1.86285
    A4        2.23011   0.00014   0.00003   0.00013   0.00015   2.23026
    A5        1.81338  -0.00051  -0.00005  -0.00159  -0.00164   1.81173
    A6        2.23970   0.00038   0.00003   0.00146   0.00149   2.24119
    A7        2.24016  -0.00027  -0.00022  -0.00074  -0.00096   2.23920
    A8        1.94523   0.00064   0.00059   0.00180   0.00238   1.94761
    A9        2.09780  -0.00037  -0.00037  -0.00106  -0.00143   2.09637
   A10        1.83791  -0.00074  -0.00076  -0.00205  -0.00281   1.83511
   A11        1.96474   0.00083   0.00052   0.00222   0.00274   1.96748
   A12        2.23206  -0.00037   0.00013  -0.00143  -0.00130   2.23076
   A13        2.08639  -0.00046  -0.00065  -0.00080  -0.00144   2.08495
    D1        0.00000   0.00000   0.00000   0.00000   0.00000   0.00000
    D2        3.14159   0.00000   0.00000   0.00000   0.00000   3.14159
    D3        3.14159   0.00000   0.00000   0.00000   0.00000   3.14159
    D4        0.00000   0.00000   0.00000   0.00000   0.00000   0.00000
    D5        3.14159   0.00000   0.00000   0.00000   0.00000   3.14159
    D6        0.00000   0.00000   0.00000   0.00000   0.00000   0.00000
    D7        0.00000   0.00000   0.00000   0.00000   0.00000   0.00000
    D8        3.14159   0.00000   0.00000   0.00000   0.00000   3.14159
    D9        3.14159   0.00000   0.00000   0.00000   0.00000   3.14159
   D10        0.00000   0.00000   0.00000   0.00000   0.00000   0.00000
   D11        0.00000   0.00000   0.00000   0.00000   0.00000   0.00000
   D12        3.14159   0.00000   0.00000   0.00000   0.00000   3.14159
   D13        0.00000   0.00000   0.00000   0.00000   0.00000   0.00000
   D14        3.14159   0.00000   0.00000   0.00000   0.00000   3.14159
   D15        0.00000   0.00000   0.00000   0.00000   0.00000   0.00000
   D16        3.14159   0.00000   0.00000   0.00000   0.00000   3.14159
         Item               Value     Threshold  Converged?
 Maximum Force            0.000938     0.000450     NO 
 RMS     Force            0.000346     0.000300     NO 
 Maximum Displacement     0.002931     0.001800     NO 
 RMS     Displacement     0.001198     0.001200     YES
 Predicted change in Energy=-6.527470D-06
 GradGradGradGradGradGradGradGradGradGradGradGradGradGradGradGradGradGrad

                          Input orientation:                          
 ---------------------------------------------------------------------
 Center     Atomic     Atomic              Coordinates (Angstroms)
 Number     Number      Type              X           Y           Z
 ---------------------------------------------------------------------
    1          1             0        2.075687    0.720700    0.000000
    2          6             0        1.092512    0.302757    0.000000
    3          1             0        1.254897   -1.874566    0.000000
    4          6             0        0.661958   -0.987606    0.000000
    5          1             0       -1.473359   -1.656058    0.000000
    6          6             0       -0.744798   -0.873247    0.000000
    7          7             0       -1.123110    0.368611    0.000000
    8          1             0       -0.045146    2.061001    0.000000
    9          7             0        0.000201    1.072888    0.000000
 ---------------------------------------------------------------------
                    Distance matrix (angstroms):
                    1          2          3          4          5
     1  H    0.000000
     2  C    1.068321   0.000000
     3  H    2.721967   2.183370   0.000000
     4  C    2.217417   1.360299   1.066900   0.000000
     5  H    4.271382   3.228102   2.736991   2.237499   0.000000
     6  C    3.239723   2.181443   2.236385   1.411396   1.069389
     7  N    3.218115   2.216600   3.269061   2.241827   2.054741
     8  H    2.508852   2.094203   4.144732   3.129536   3.981999
     9  N    2.105155   1.336504   3.203396   2.164152   3.101374
                    6          7          8          9
     6  C    0.000000
     7  N    1.298203   0.000000
     8  H    3.016509   2.006536   0.000000
     9  N    2.083858   1.325832   0.989154   0.000000
 Stoichiometry    C3H4N2
 Framework group  CS[SG(C3H4N2)]
 Deg. of freedom    15
 Full point group                 CS      NOp   2
 Largest Abelian subgroup         CS      NOp   2
 Largest concise Abelian subgroup C1      NOp   1
                         Standard orientation:                         
 ---------------------------------------------------------------------
 Center     Atomic     Atomic              Coordinates (Angstroms)
 Number     Number      Type              X           Y           Z
 ---------------------------------------------------------------------
    1          1             0        2.075463    0.720760    0.000000
    2          6             0        1.092261    0.302880    0.000000
    3          1             0        1.254504   -1.874453    0.000000
    4          6             0        0.661623   -0.987454    0.000000
    5          1             0       -1.473737   -1.655767    0.000000
    6          6             0       -0.745126   -0.873004    0.000000
    7          7             0       -1.123356    0.368879    0.000000
    8          1             0       -0.045282    2.061199    0.000000
    9          7             0        0.000000    1.073082    0.000000
 ---------------------------------------------------------------------
 Rotational constants (GHZ):      9.9168597      9.7019642      4.9041175
 Standard basis: 6-311+G(3df,2p) (5D, 7F)
 There are   158 symmetry adapted basis functions of A'  symmetry.
 There are    73 symmetry adapted basis functions of A"  symmetry.
 Integral buffers will be    262144 words long.
 Raffenetti 1 integral format.
 Two-electron integral symmetry is turned on.
   231 basis functions,   334 primitive gaussians,   261 cartesian basis functions
    18 alpha electrons       18 beta electrons
       nuclear repulsion energy       165.3782198566 Hartrees.
 NAtoms=    9 NActive=    9 NUniq=    9 SFac= 1.00D+00 NAtFMM=   60 Big=F
 One-electron integrals computed using PRISM.
 NBasis=   231 RedAO= T  NBF=   158    73
 NBsUse=   231 1.00D-06 NBFU=   158    73
 Initial guess read from the read-write file:
 Initial guess orbital symmetries:
       Occupied  (A') (A') (A') (A') (A') (A') (A') (A') (A') (A')
                 (A') (A') (A") (A') (A') (A') (A") (A")
       Virtual   (A') (A') (A') (A') (A") (A') (A") (A") (A') (A')
                 (A') (A") (A') (A') (A") (A') (A") (A') (A') (A')
                 (A") (A') (A') (A') (A') (A') (A') (A') (A") (A')
                 (A') (A') (A') (A") (A') (A") (A') (A") (A') (A")
                 (A') (A') (A') (A") (A') (A') (A") (A') (A") (A')
                 (A') (A") (A') (A") (A') (A') (A') (A") (A") (A')
                 (A') (A') (A') (A') (A') (A") (A') (A") (A') (A")
                 (A') (A') (A") (A') (A") (A') (A") (A') (A') (A")
                 (A') (A') (A') (A') (A') (A") (A') (A') (A") (A')
                 (A') (A') (A") (A') (A") (A') (A') (A') (A') (A")
                 (A") (A') (A') (A") (A') (A') (A') (A") (A") (A')
                 (A') (A') (A") (A') (A') (A') (A") (A") (A') (A")
                 (A") (A') (A") (A') (A') (A") (A') (A") (A') (A')
                 (A") (A') (A') (A") (A') (A") (A') (A') (A") (A')
                 (A') (A') (A') (A") (A') (A') (A') (A") (A') (A")
                 (A') (A") (A') (A') (A") (A') (A') (A') (A") (A')
                 (A") (A") (A') (A') (A') (A") (A") (A') (A') (A")
                 (A') (A') (A") (A") (A') (A') (A') (A') (A') (A')
                 (A') (A') (A') (A") (A") (A") (A") (A') (A') (A')
                 (A") (A") (A') (A') (A') (A') (A') (A') (A") (A")
                 (A') (A") (A') (A') (A") (A') (A') (A') (A') (A')
                 (A') (A') (A')
 Requested convergence on RMS density matrix=1.00D-08 within 128 cycles.
 Requested convergence on MAX density matrix=1.00D-06.
 Requested convergence on             energy=1.00D-06.
 No special actions if energy rises.
 SCF Done:  E(RHF) =  -224.873449669     A.U. after    8 cycles
             Convg  =    0.9398D-08             -V/T =  2.0001
             S**2   =   0.0000
 ***** Axes restored to original set *****
 -------------------------------------------------------------------
 Center     Atomic                   Forces (Hartrees/Bohr)
 Number     Number              X              Y              Z
 -------------------------------------------------------------------
    1          1           0.000043538    0.000028763    0.000000000
    2          6           0.000045076    0.000220877    0.000000000
    3          1           0.000007463   -0.000069067    0.000000000
    4          6          -0.000082480   -0.000203207    0.000000000
    5          1          -0.000033417   -0.000138695    0.000000000
    6          6          -0.000423272   -0.000592145    0.000000000
    7          7           0.000423443   -0.000060041    0.000000000
    8          1           0.000068131    0.000239744    0.000000000
    9          7          -0.000048482    0.000573772    0.000000000
 -------------------------------------------------------------------
 Cartesian Forces:  Max     0.000592145 RMS     0.000213715

 GradGradGradGradGradGradGradGradGradGradGradGradGradGradGradGradGradGrad
 Berny optimization.
 Internal  Forces:  Max     0.000565825 RMS     0.000191022
 Search for a local minimum.
 Step number   3 out of a maximum of  48
 All quantities printed in internal units (Hartrees-Bohrs-Radians)
 Update second derivatives using D2CorX and points  1  2  3
 Trust test= 5.91D-01 RLast= 6.57D-03 DXMaxT set to 3.00D-01
     Eigenvalues ---    0.02140   0.02277   0.02345   0.02397   0.02533
     Eigenvalues ---    0.02554   0.15229   0.16000   0.16004   0.16140
     Eigenvalues ---    0.21904   0.35588   0.37205   0.37397   0.37426
     Eigenvalues ---    0.39743   0.49100   0.50086   0.54257   0.61749
     Eigenvalues ---    0.661941000.000001000.000001000.000001000.00000
     Eigenvalues --- 1000.000001000.000001000.000001000.000001000.00000
     Eigenvalues --- 1000.000001000.000001000.000001000.000001000.00000
     Eigenvalues --- 1000.000001000.000001000.00000
 RFO step:  Lambda=-1.12164167D-06.
 Quartic linear search produced a step of -0.28958.
 Iteration  1 RMS(Cart)=  0.00047824 RMS(Int)=  0.00000013
 Iteration  2 RMS(Cart)=  0.00000010 RMS(Int)=  0.00000006
 Variable       Old X    -DE/DX   Delta X   Delta X   Delta X     New X
                                 (Linear)    (Quad)   (Total)
    R1        2.01883   0.00005  -0.00010   0.00026   0.00016   2.01899
    R2        2.57059   0.00057   0.00006   0.00068   0.00075   2.57134
    R3        2.52563   0.00010  -0.00012   0.00037   0.00025   2.52588
    R4        2.01615   0.00006  -0.00008   0.00027   0.00019   2.01634
    R5        2.66715   0.00007  -0.00052   0.00082   0.00031   2.66746
    R6        2.02085   0.00012   0.00002   0.00023   0.00025   2.02110
    R7        2.45325   0.00034   0.00009   0.00032   0.00040   2.45365
    R8        2.50546   0.00023   0.00036  -0.00014   0.00023   2.50569
    R9        1.86923   0.00024  -0.00005   0.00046   0.00041   1.86964
    A1        2.29480  -0.00006   0.00034  -0.00057  -0.00023   2.29457
    A2        2.12554  -0.00007  -0.00053   0.00045  -0.00008   2.12545
    A3        1.86285   0.00013   0.00019   0.00012   0.00032   1.86317
    A4        2.23026  -0.00003  -0.00004   0.00000  -0.00004   2.23022
    A5        1.81173   0.00012   0.00048  -0.00023   0.00025   1.81198
    A6        2.24119  -0.00009  -0.00043   0.00023  -0.00020   2.24098
    A7        2.23920   0.00013   0.00028  -0.00010   0.00018   2.23938
    A8        1.94761  -0.00039  -0.00069  -0.00020  -0.00089   1.94672
    A9        2.09637   0.00027   0.00041   0.00030   0.00071   2.09709
   A10        1.83511   0.00053   0.00081   0.00039   0.00120   1.83630
   A11        1.96748  -0.00039  -0.00079  -0.00008  -0.00087   1.96660
   A12        2.23076   0.00012   0.00038  -0.00020   0.00017   2.23093
   A13        2.08495   0.00027   0.00042   0.00028   0.00070   2.08565
    D1        0.00000   0.00000   0.00000   0.00000   0.00000   0.00000
    D2        3.14159   0.00000   0.00000   0.00000   0.00000   3.14159
    D3        3.14159   0.00000   0.00000   0.00000   0.00000   3.14159
    D4        0.00000   0.00000   0.00000   0.00000   0.00000   0.00000
    D5        3.14159   0.00000   0.00000   0.00000   0.00000   3.14159
    D6        0.00000   0.00000   0.00000   0.00000   0.00000   0.00000
    D7        0.00000   0.00000   0.00000   0.00000   0.00000   0.00000
    D8        3.14159   0.00000   0.00000   0.00000   0.00000   3.14159
    D9        3.14159   0.00000   0.00000   0.00000   0.00000   3.14159
   D10        0.00000   0.00000   0.00000   0.00000   0.00000   0.00000
   D11        0.00000   0.00000   0.00000   0.00000   0.00000   0.00000
   D12        3.14159   0.00000   0.00000   0.00000   0.00000   3.14159
   D13        0.00000   0.00000   0.00000   0.00000   0.00000   0.00000
   D14        3.14159   0.00000   0.00000   0.00000   0.00000   3.14159
   D15        0.00000   0.00000   0.00000   0.00000   0.00000   0.00000
   D16        3.14159   0.00000   0.00000   0.00000   0.00000   3.14159
         Item               Value     Threshold  Converged?
 Maximum Force            0.000566     0.000450     NO 
 RMS     Force            0.000191     0.000300     YES
 Maximum Displacement     0.001579     0.001800     YES
 RMS     Displacement     0.000478     0.001200     YES
 Predicted change in Energy=-1.329650D-06
 GradGradGradGradGradGradGradGradGradGradGradGradGradGradGradGradGradGrad

                          Input orientation:                          
 ---------------------------------------------------------------------
 Center     Atomic     Atomic              Coordinates (Angstroms)
 Number     Number      Type              X           Y           Z
 ---------------------------------------------------------------------
    1          1             0        2.075813    0.720763    0.000000
    2          6             0        1.092478    0.302983    0.000000
    3          1             0        1.254905   -1.874768    0.000000
    4          6             0        0.661843   -0.987770    0.000000
    5          1             0       -1.473676   -1.656775    0.000000
    6          6             0       -0.745107   -0.873791    0.000000
    7          7             0       -1.122721    0.368501    0.000000
    8          1             0       -0.044969    2.061836    0.000000
    9          7             0        0.000276    1.073501    0.000000
 ---------------------------------------------------------------------
                    Distance matrix (angstroms):
                    1          2          3          4          5
     1  H    0.000000
     2  C    1.068405   0.000000
     3  H    2.722254   2.183799   0.000000
     4  C    2.217745   1.360694   1.067000   0.000000
     5  H    4.272184   3.228900   2.737275   2.237858   0.000000
     6  C    3.240400   2.182089   2.236515   1.411559   1.069522
     7  N    3.217874   2.216168   3.268847   2.241459   2.055459
     8  H    2.509223   2.094601   4.145663   3.130444   3.983626
     9  N    2.105298   1.336639   3.204120   2.164834   3.102731
                    6          7          8          9
     6  C    0.000000
     7  N    1.298416   0.000000
     8  H    3.017963   2.007220   0.000000
     9  N    2.085076   1.325952   0.989370   0.000000
 Stoichiometry    C3H4N2
 Framework group  CS[SG(C3H4N2)]
 Deg. of freedom    15
 Full point group                 CS      NOp   2
 Largest Abelian subgroup         CS      NOp   2
 Largest concise Abelian subgroup C1      NOp   1
                         Standard orientation:                         
 ---------------------------------------------------------------------
 Center     Atomic     Atomic              Coordinates (Angstroms)
 Number     Number      Type              X           Y           Z
 ---------------------------------------------------------------------
    1          1             0        2.075535    0.720924    0.000000
    2          6             0        1.092196    0.303152    0.000000
    3          1             0        1.254606   -1.874600    0.000000
    4          6             0        0.661551   -0.987597    0.000000
    5          1             0       -1.473974   -1.656586    0.000000
    6          6             0       -0.745398   -0.873608    0.000000
    7          7             0       -1.123003    0.368688    0.000000
    8          1             0       -0.045237    2.062014    0.000000
    9          7             0        0.000000    1.073679    0.000000
 ---------------------------------------------------------------------
 Rotational constants (GHZ):      9.9077803      9.7045054      4.9025447
 Standard basis: 6-311+G(3df,2p) (5D, 7F)
 There are   158 symmetry adapted basis functions of A'  symmetry.
 There are    73 symmetry adapted basis functions of A"  symmetry.
 Integral buffers will be    262144 words long.
 Raffenetti 1 integral format.
 Two-electron integral symmetry is turned on.
   231 basis functions,   334 primitive gaussians,   261 cartesian basis functions
    18 alpha electrons       18 beta electrons
       nuclear repulsion energy       165.3516615994 Hartrees.
 NAtoms=    9 NActive=    9 NUniq=    9 SFac= 1.00D+00 NAtFMM=   60 Big=F
 One-electron integrals computed using PRISM.
 NBasis=   231 RedAO= T  NBF=   158    73
 NBsUse=   231 1.00D-06 NBFU=   158    73
 Initial guess read from the read-write file:
 Initial guess orbital symmetries:
       Occupied  (A') (A') (A') (A') (A') (A') (A') (A') (A') (A')
                 (A') (A') (A") (A') (A') (A') (A") (A")
       Virtual   (A') (A') (A') (A') (A") (A') (A") (A") (A') (A')
                 (A') (A") (A') (A') (A") (A') (A") (A') (A') (A')
                 (A") (A') (A') (A') (A') (A') (A') (A') (A") (A')
                 (A') (A') (A') (A") (A') (A") (A') (A") (A') (A")
                 (A') (A') (A') (A") (A') (A') (A") (A') (A") (A')
                 (A') (A") (A') (A") (A') (A') (A') (A") (A") (A')
                 (A') (A') (A') (A') (A') (A") (A') (A") (A') (A")
                 (A') (A') (A") (A') (A") (A') (A") (A') (A') (A")
                 (A') (A') (A') (A') (A') (A") (A') (A') (A") (A')
                 (A') (A') (A") (A') (A") (A') (A') (A') (A') (A")
                 (A") (A') (A') (A") (A') (A') (A') (A") (A") (A')
                 (A') (A') (A") (A') (A') (A') (A") (A") (A') (A")
                 (A") (A') (A") (A') (A') (A") (A') (A") (A') (A')
                 (A") (A') (A') (A") (A') (A") (A') (A') (A") (A')
                 (A') (A') (A') (A") (A') (A') (A') (A") (A') (A")
                 (A') (A") (A') (A') (A") (A') (A') (A') (A") (A')
                 (A") (A") (A') (A') (A') (A") (A") (A') (A') (A")
                 (A') (A') (A") (A") (A') (A') (A') (A') (A') (A')
                 (A') (A') (A') (A") (A") (A") (A") (A') (A') (A')
                 (A") (A") (A') (A') (A') (A') (A') (A') (A") (A")
                 (A') (A") (A') (A') (A") (A') (A') (A') (A') (A')
                 (A') (A') (A')
 Requested convergence on RMS density matrix=1.00D-08 within 128 cycles.
 Requested convergence on MAX density matrix=1.00D-06.
 Requested convergence on             energy=1.00D-06.
 No special actions if energy rises.
 SCF Done:  E(RHF) =  -224.873450969     A.U. after    7 cycles
             Convg  =    0.7546D-08             -V/T =  2.0001
             S**2   =   0.0000
 ***** Axes restored to original set *****
 -------------------------------------------------------------------
 Center     Atomic                   Forces (Hartrees/Bohr)
 Number     Number              X              Y              Z
 -------------------------------------------------------------------
    1          1          -0.000004420   -0.000010750    0.000000000
    2          6           0.000026359   -0.000015195    0.000000000
    3          1          -0.000000460    0.000010758    0.000000000
    4          6          -0.000027319    0.000059862    0.000000000
    5          1           0.000005031    0.000004055    0.000000000
    6          6          -0.000001927   -0.000006704    0.000000000
    7          7           0.000029211   -0.000001209    0.000000000
    8          1           0.000006627   -0.000005208    0.000000000
    9          7          -0.000033100   -0.000035609    0.000000000
 -------------------------------------------------------------------
 Cartesian Forces:  Max     0.000059862 RMS     0.000018142

 GradGradGradGradGradGradGradGradGradGradGradGradGradGradGradGradGradGrad
 Berny optimization.
 Internal  Forces:  Max     0.000043772 RMS     0.000012445
 Search for a local minimum.
 Step number   4 out of a maximum of  48
 All quantities printed in internal units (Hartrees-Bohrs-Radians)
 Update second derivatives using D2CorX and points  1  2  3  4
 Trust test= 9.78D-01 RLast= 2.35D-03 DXMaxT set to 3.00D-01
     Eigenvalues ---    0.02140   0.02277   0.02345   0.02397   0.02533
     Eigenvalues ---    0.02554   0.14850   0.15999   0.16010   0.16142
     Eigenvalues ---    0.22009   0.35090   0.37161   0.37318   0.37497
     Eigenvalues ---    0.39784   0.49067   0.49920   0.54677   0.62258
     Eigenvalues ---    0.683961000.000001000.000001000.000001000.00000
     Eigenvalues --- 1000.000001000.000001000.000001000.000001000.00000
     Eigenvalues --- 1000.000001000.000001000.000001000.000001000.00000
     Eigenvalues --- 1000.000001000.000001000.00000
 RFO step:  Lambda=-1.54723008D-08.
 Quartic linear search produced a step of -0.02136.
 Iteration  1 RMS(Cart)=  0.00004839 RMS(Int)=  0.00000000
 Iteration  2 RMS(Cart)=  0.00000000 RMS(Int)=  0.00000000
 Variable       Old X    -DE/DX   Delta X   Delta X   Delta X     New X
                                 (Linear)    (Quad)   (Total)
    R1        2.01899  -0.00001   0.00000  -0.00002  -0.00002   2.01897
    R2        2.57134  -0.00004  -0.00002  -0.00006  -0.00007   2.57127
    R3        2.52588  -0.00001  -0.00001   0.00000   0.00000   2.52588
    R4        2.01634  -0.00001   0.00000  -0.00002  -0.00002   2.01632
    R5        2.66746  -0.00002  -0.00001  -0.00003  -0.00003   2.66743
    R6        2.02110  -0.00001  -0.00001  -0.00001  -0.00001   2.02109
    R7        2.45365  -0.00002  -0.00001  -0.00002  -0.00003   2.45362
    R8        2.50569  -0.00002   0.00000  -0.00003  -0.00003   2.50565
    R9        1.86964  -0.00001  -0.00001   0.00000   0.00000   1.86963
    A1        2.29457   0.00000   0.00001  -0.00001  -0.00001   2.29456
    A2        2.12545   0.00002   0.00000   0.00010   0.00010   2.12555
    A3        1.86317  -0.00002  -0.00001  -0.00009  -0.00009   1.86307
    A4        2.23022  -0.00002   0.00000  -0.00009  -0.00009   2.23013
    A5        1.81198   0.00003  -0.00001   0.00011   0.00011   1.81209
    A6        2.24098  -0.00001   0.00000  -0.00002  -0.00002   2.24096
    A7        2.23938   0.00001   0.00000   0.00003   0.00003   2.23940
    A8        1.94672  -0.00001   0.00002  -0.00009  -0.00007   1.94665
    A9        2.09709   0.00001  -0.00002   0.00006   0.00004   2.09713
   A10        1.83630   0.00000  -0.00003   0.00003   0.00001   1.83631
   A11        1.96660   0.00001   0.00002   0.00003   0.00005   1.96665
   A12        2.23093  -0.00001   0.00000  -0.00006  -0.00006   2.23087
   A13        2.08565   0.00000  -0.00001   0.00003   0.00002   2.08566
    D1        0.00000   0.00000   0.00000   0.00000   0.00000   0.00000
    D2        3.14159   0.00000   0.00000   0.00000   0.00000   3.14159
    D3        3.14159   0.00000   0.00000   0.00000   0.00000   3.14159
    D4        0.00000   0.00000   0.00000   0.00000   0.00000   0.00000
    D5        3.14159   0.00000   0.00000   0.00000   0.00000   3.14159
    D6        0.00000   0.00000   0.00000   0.00000   0.00000   0.00000
    D7        0.00000   0.00000   0.00000   0.00000   0.00000   0.00000
    D8        3.14159   0.00000   0.00000   0.00000   0.00000   3.14159
    D9        3.14159   0.00000   0.00000   0.00000   0.00000   3.14159
   D10        0.00000   0.00000   0.00000   0.00000   0.00000   0.00000
   D11        0.00000   0.00000   0.00000   0.00000   0.00000   0.00000
   D12        3.14159   0.00000   0.00000   0.00000   0.00000   3.14159
   D13        0.00000   0.00000   0.00000   0.00000   0.00000   0.00000
   D14        3.14159   0.00000   0.00000   0.00000   0.00000   3.14159
   D15        0.00000   0.00000   0.00000   0.00000   0.00000   0.00000
   D16        3.14159   0.00000   0.00000   0.00000   0.00000   3.14159
         Item               Value     Threshold  Converged?
 Maximum Force            0.000044     0.000450     YES
 RMS     Force            0.000012     0.000300     YES
 Maximum Displacement     0.000185     0.001800     YES
 RMS     Displacement     0.000048     0.001200     YES
 Predicted change in Energy=-8.355750D-09
 Optimization completed.
    -- Stationary point found.
                           ----------------------------
                           !   Optimized Parameters   !
                           ! (Angstroms and Degrees)  !
 --------------------------                            --------------------------
 ! Name  Definition              Value          Derivative Info.                !
 --------------------------------------------------------------------------------
 ! R1    R(1,2)                  1.0684         -DE/DX =    0.0                 !
 ! R2    R(2,4)                  1.3607         -DE/DX =    0.0                 !
 ! R3    R(2,9)                  1.3366         -DE/DX =    0.0                 !
 ! R4    R(3,4)                  1.067          -DE/DX =    0.0                 !
 ! R5    R(4,6)                  1.4116         -DE/DX =    0.0                 !
 ! R6    R(5,6)                  1.0695         -DE/DX =    0.0                 !
 ! R7    R(6,7)                  1.2984         -DE/DX =    0.0                 !
 ! R8    R(7,9)                  1.326          -DE/DX =    0.0                 !
 ! R9    R(8,9)                  0.9894         -DE/DX =    0.0                 !
 ! A1    A(1,2,4)              131.469          -DE/DX =    0.0                 !
 ! A2    A(1,2,9)              121.7794         -DE/DX =    0.0                 !
 ! A3    A(4,2,9)              106.7516         -DE/DX =    0.0                 !
 ! A4    A(2,4,3)              127.7823         -DE/DX =    0.0                 !
 ! A5    A(2,4,6)              103.8188         -DE/DX =    0.0                 !
 ! A6    A(3,4,6)              128.3988         -DE/DX =    0.0                 !
 ! A7    A(4,6,5)              128.3068         -DE/DX =    0.0                 !
 ! A8    A(4,6,7)              111.539          -DE/DX =    0.0                 !
 ! A9    A(5,6,7)              120.1542         -DE/DX =    0.0                 !
 ! A10   A(6,7,9)              105.2125         -DE/DX =    0.0                 !
 ! A11   A(2,9,7)              112.6781         -DE/DX =    0.0                 !
 ! A12   A(2,9,8)              127.823          -DE/DX =    0.0                 !
 ! A13   A(7,9,8)              119.4988         -DE/DX =    0.0                 !
 ! D1    D(1,2,4,3)              0.0            -DE/DX =    0.0                 !
 ! D2    D(1,2,4,6)            180.0            -DE/DX =    0.0                 !
 ! D3    D(9,2,4,3)            180.0            -DE/DX =    0.0                 !
 ! D4    D(9,2,4,6)              0.0            -DE/DX =    0.0                 !
 ! D5    D(1,2,9,7)            180.0            -DE/DX =    0.0                 !
 ! D6    D(1,2,9,8)              0.0            -DE/DX =    0.0                 !
 ! D7    D(4,2,9,7)              0.0            -DE/DX =    0.0                 !
 ! D8    D(4,2,9,8)            180.0            -DE/DX =    0.0                 !
 ! D9    D(2,4,6,5)            180.0            -DE/DX =    0.0                 !
 ! D10   D(2,4,6,7)              0.0            -DE/DX =    0.0                 !
 ! D11   D(3,4,6,5)              0.0            -DE/DX =    0.0                 !
 ! D12   D(3,4,6,7)            180.0            -DE/DX =    0.0                 !
 ! D13   D(4,6,7,9)              0.0            -DE/DX =    0.0                 !
 ! D14   D(5,6,7,9)            180.0            -DE/DX =    0.0                 !
 ! D15   D(6,7,9,2)              0.0            -DE/DX =    0.0                 !
 ! D16   D(6,7,9,8)            180.0            -DE/DX =    0.0                 !
 --------------------------------------------------------------------------------
 GradGradGradGradGradGradGradGradGradGradGradGradGradGradGradGradGradGrad

                          Input orientation:                          
 ---------------------------------------------------------------------
 Center     Atomic     Atomic              Coordinates (Angstroms)
 Number     Number      Type              X           Y           Z
 ---------------------------------------------------------------------
    1          1             0        2.075813    0.720763    0.000000
    2          6             0        1.092478    0.302983    0.000000
    3          1             0        1.254905   -1.874768    0.000000
    4          6             0        0.661843   -0.987770    0.000000
    5          1             0       -1.473676   -1.656775    0.000000
    6          6             0       -0.745107   -0.873791    0.000000
    7          7             0       -1.122721    0.368501    0.000000
    8          1             0       -0.044969    2.061836    0.000000
    9          7             0        0.000276    1.073501    0.000000
 ---------------------------------------------------------------------
                    Distance matrix (angstroms):
                    1          2          3          4          5
     1  H    0.000000
     2  C    1.068405   0.000000
     3  H    2.722254   2.183799   0.000000
     4  C    2.217745   1.360694   1.067000   0.000000
     5  H    4.272184   3.228900   2.737275   2.237858   0.000000
     6  C    3.240400   2.182089   2.236515   1.411559   1.069522
     7  N    3.217874   2.216168   3.268847   2.241459   2.055459
     8  H    2.509223   2.094601   4.145663   3.130444   3.983626
     9  N    2.105298   1.336639   3.204120   2.164834   3.102731
                    6          7          8          9
     6  C    0.000000
     7  N    1.298416   0.000000
     8  H    3.017963   2.007220   0.000000
     9  N    2.085076   1.325952   0.989370   0.000000
 Stoichiometry    C3H4N2
 Framework group  CS[SG(C3H4N2)]
 Deg. of freedom    15
 Full point group                 CS      NOp   2
 Largest Abelian subgroup         CS      NOp   2
 Largest concise Abelian subgroup C1      NOp   1
                         Standard orientation:                         
 ---------------------------------------------------------------------
 Center     Atomic     Atomic              Coordinates (Angstroms)
 Number     Number      Type              X           Y           Z
 ---------------------------------------------------------------------
    1          1             0        2.075535    0.720924    0.000000
    2          6             0        1.092196    0.303152    0.000000
    3          1             0        1.254606   -1.874600    0.000000
    4          6             0        0.661551   -0.987597    0.000000
    5          1             0       -1.473974   -1.656586    0.000000
    6          6             0       -0.745398   -0.873608    0.000000
    7          7             0       -1.123003    0.368688    0.000000
    8          1             0       -0.045237    2.062014    0.000000
    9          7             0        0.000000    1.073679    0.000000
 ---------------------------------------------------------------------
 Rotational constants (GHZ):      9.9077803      9.7045054      4.9025447

 **********************************************************************

            Population analysis using the SCF density.

 **********************************************************************

 Orbital symmetries:
       Occupied  (A') (A') (A') (A') (A') (A') (A') (A') (A') (A')
                 (A') (A') (A") (A') (A') (A') (A") (A")
       Virtual   (A') (A') (A') (A') (A") (A') (A") (A") (A') (A')
                 (A') (A") (A') (A') (A") (A') (A") (A') (A') (A')
                 (A") (A') (A') (A') (A') (A') (A') (A') (A") (A')
                 (A') (A') (A') (A") (A') (A") (A') (A") (A') (A")
                 (A') (A') (A') (A") (A') (A') (A") (A') (A") (A')
                 (A') (A") (A') (A") (A') (A') (A') (A") (A") (A')
                 (A') (A') (A') (A') (A') (A") (A') (A") (A') (A")
                 (A') (A') (A") (A') (A") (A') (A") (A') (A') (A")
                 (A') (A') (A') (A') (A') (A") (A') (A') (A") (A')
                 (A') (A') (A") (A') (A") (A') (A') (A') (A') (A")
                 (A") (A') (A') (A") (A') (A') (A') (A") (A") (A')
                 (A') (A') (A") (A') (A') (A') (A") (A") (A') (A")
                 (A") (A') (A") (A') (A') (A") (A') (A") (A') (A')
                 (A") (A') (A') (A") (A') (A") (A') (A') (A") (A')
                 (A') (A') (A') (A") (A') (A') (A') (A") (A') (A")
                 (A') (A") (A') (A') (A") (A') (A') (A') (A") (A')
                 (A") (A") (A') (A') (A') (A") (A") (A') (A') (A")
                 (A') (A') (A") (A") (A') (A') (A') (A') (A') (A')
                 (A') (A') (A') (A") (A") (A") (A") (A') (A') (A')
                 (A") (A") (A') (A') (A') (A') (A') (A') (A") (A")
                 (A') (A") (A') (A') (A") (A') (A') (A') (A') (A')
                 (A') (A') (A')
 The electronic state is 1-A'.
 Alpha  occ. eigenvalues --  -15.63520 -15.58040 -11.27076 -11.24532 -11.21548
 Alpha  occ. eigenvalues --   -1.39394  -1.10954  -1.05811  -0.82916  -0.81111
 Alpha  occ. eigenvalues --   -0.74983  -0.61923  -0.61872  -0.59733  -0.56607
 Alpha  occ. eigenvalues --   -0.45776  -0.36921  -0.35043
 Alpha virt. eigenvalues --    0.05739   0.07518   0.08506   0.10493   0.11273
 Alpha virt. eigenvalues --    0.11398   0.12577   0.14819   0.15062   0.16717
 Alpha virt. eigenvalues --    0.17759   0.18637   0.20039   0.21574   0.22331
 Alpha virt. eigenvalues --    0.24729   0.26641   0.27175   0.28796   0.29609
 Alpha virt. eigenvalues --    0.29690   0.30961   0.32481   0.32947   0.35997
 Alpha virt. eigenvalues --    0.38432   0.41060   0.44373   0.46754   0.49151
 Alpha virt. eigenvalues --    0.50046   0.55970   0.58186   0.59624   0.60260
 Alpha virt. eigenvalues --    0.61114   0.63605   0.64080   0.65186   0.66198
 Alpha virt. eigenvalues --    0.69262   0.69784   0.71325   0.71411   0.76033
 Alpha virt. eigenvalues --    0.79005   0.80015   0.81675   0.83191   0.83707
 Alpha virt. eigenvalues --    0.85133   0.85945   0.90683   0.90782   0.92916
 Alpha virt. eigenvalues --    0.95879   0.97799   0.98431   0.99786   1.04502
 Alpha virt. eigenvalues --    1.10165   1.10559   1.14498   1.16746   1.20001
 Alpha virt. eigenvalues --    1.20363   1.23092   1.25020   1.26526   1.26877
 Alpha virt. eigenvalues --    1.28316   1.29675   1.31319   1.35559   1.38088
 Alpha virt. eigenvalues --    1.39137   1.40640   1.41582   1.43846   1.45292
 Alpha virt. eigenvalues --    1.47010   1.53861   1.57825   1.60994   1.68402
 Alpha virt. eigenvalues --    1.70004   1.70746   1.74818   1.76699   1.81824
 Alpha virt. eigenvalues --    1.84769   1.87014   1.92070   1.92674   2.03578
 Alpha virt. eigenvalues --    2.14254   2.18410   2.22397   2.33393   2.35756
 Alpha virt. eigenvalues --    2.37022   2.38998   2.41206   2.47667   2.55788
 Alpha virt. eigenvalues --    2.59825   2.63754   2.67319   2.81252   2.82428
 Alpha virt. eigenvalues --    2.87234   2.89411   2.98464   2.99927   3.02406
 Alpha virt. eigenvalues --    3.05056   3.05712   3.13098   3.15777   3.23825
 Alpha virt. eigenvalues --    3.26864   3.29192   3.31392   3.34238   3.38782
 Alpha virt. eigenvalues --    3.40142   3.43201   3.49219   3.49541   3.58358
 Alpha virt. eigenvalues --    3.62898   3.65959   3.69675   3.74633   3.81092
 Alpha virt. eigenvalues --    3.83361   3.83860   3.93861   3.98268   4.01232
 Alpha virt. eigenvalues --    4.08470   4.13238   4.19413   4.22500   4.24946
 Alpha virt. eigenvalues --    4.28963   4.34131   4.36732   4.40620   4.42183
 Alpha virt. eigenvalues --    4.45849   4.47528   4.48197   4.55393   4.62245
 Alpha virt. eigenvalues --    4.63209   4.69685   4.72579   4.73499   4.73870
 Alpha virt. eigenvalues --    4.78767   4.82031   4.92743   5.02968   5.10669
 Alpha virt. eigenvalues --    5.12518   5.26751   5.29060   5.32336   5.33112
 Alpha virt. eigenvalues --    5.45374   5.49827   5.51827   5.68044   5.72664
 Alpha virt. eigenvalues --    5.89085   6.07763   6.27718   6.34986   6.73569
 Alpha virt. eigenvalues --    6.81464   7.20876   7.29198   7.55559   7.59960
 Alpha virt. eigenvalues --    7.71841   7.73842   7.77070   7.89623   7.98848
 Alpha virt. eigenvalues --    8.00241   8.09264   8.20223   8.50196   8.60080
 Alpha virt. eigenvalues --    8.78436   8.93695   9.02425  10.69326  11.01590
 Alpha virt. eigenvalues --   11.07493  11.11537  11.34072  11.40924  11.41689
 Alpha virt. eigenvalues --   11.56309  12.04981  12.79716  25.75383  26.51286
 Alpha virt. eigenvalues --   26.81736  37.63578  37.79922
          Condensed to atoms (all electrons):
              1          2          3          4          5          6
     1  H    0.465763   0.492729  -0.001436  -0.091264  -0.000045   0.005469
     2  C    0.492729   5.383513  -0.085651  -0.018739   0.009896  -0.276114
     3  H   -0.001436  -0.085651   0.478527   0.511406  -0.000759  -0.072702
     4  C   -0.091264  -0.018739   0.511406   5.894335  -0.120081   0.095048
     5  H   -0.000045   0.009896  -0.000759  -0.120081   0.490111   0.513659
     6  C    0.005469  -0.276114  -0.072702   0.095048   0.513659   5.160606
     7  N    0.006541  -0.147112  -0.000110  -0.042944  -0.056086   0.415905
     8  H   -0.001084  -0.042246   0.000013  -0.002323  -0.000163   0.004293
     9  N   -0.043193   0.237528   0.009540  -0.155517   0.014032  -0.212087
              7          8          9
     1  H    0.006541  -0.001084  -0.043193
     2  C   -0.147112  -0.042246   0.237528
     3  H   -0.000110   0.000013   0.009540
     4  C   -0.042944  -0.002323  -0.155517
     5  H   -0.056086  -0.000163   0.014032
     6  C    0.415905   0.004293  -0.212087
     7  N    7.972670  -0.065963  -0.268771
     8  H   -0.065963   0.476724   0.460626
     9  N   -0.268771   0.460626   7.533161
 Mulliken atomic charges:
              1
     1  H    0.166519
     2  C    0.446196
     3  H    0.161173
     4  C   -0.069922
     5  H    0.149436
     6  C    0.365924
     7  N   -0.814131
     8  H    0.170122
     9  N   -0.575318
 Sum of Mulliken charges=   0.00000
 Atomic charges with hydrogens summed into heavy atoms:
              1
     1  H    0.000000
     2  C    0.612715
     3  H    0.000000
     4  C    0.091251
     5  H    0.000000
     6  C    0.515361
     7  N   -0.814131
     8  H    0.000000
     9  N   -0.405196
 Sum of Mulliken charges=   0.00000
 Electronic spatial extent (au):  <R**2>=   281.0834
 Charge=     0.0000 electrons
 Dipole moment (field-independent basis, Debye):
    X=     2.2326    Y=     0.7465    Z=     0.0000  Tot=     2.3541
 Quadrupole moment (field-independent basis, Debye-Ang):
   XX=   -29.9576   YY=   -22.3691   ZZ=   -32.5760
   XY=     2.8604   XZ=     0.0000   YZ=     0.0000
 Traceless Quadrupole moment (field-independent basis, Debye-Ang):
   XX=    -1.6567   YY=     5.9318   ZZ=    -4.2751
   XY=     2.8604   XZ=     0.0000   YZ=     0.0000
 Octapole moment (field-independent basis, Debye-Ang**2):
  XXX=    10.0092  YYY=    11.6975  ZZZ=     0.0000  XYY=     0.2199
  XXY=    -2.3583  XXZ=     0.0000  XZZ=    -1.0178  YZZ=     2.2838
  YYZ=     0.0000  XYZ=     0.0000
 Hexadecapole moment (field-independent basis, Debye-Ang**3):
 XXXX=  -174.0862 YYYY=  -130.6800 ZZZZ=   -37.2704 XXXY=    11.7953
 XXXZ=     0.0000 YYYX=    -1.0146 YYYZ=     0.0000 ZZZX=     0.0000
 ZZZY=     0.0000 XXYY=   -50.8419 XXZZ=   -39.4876 YYZZ=   -37.7022
 XXYZ=     0.0000 YYXZ=     0.0000 ZZXY=     0.4541
 N-N= 1.653516615994D+02 E-N=-8.563467931270D+02  KE= 2.248517823533D+02
 Symmetry A'   KE= 2.170732815247D+02
 Symmetry A"   KE= 7.778500828616D+00
 1|1|UNPC-UNK|FOpt|RHF|6-311+G(3df,2p)|C3H4N2|PCUSER|21-May-2007|0||#HF
 /6-311+G(3DF,2P) OPT FREQ||1hpyraz 1H-Pyrazole casno=288131 method=1 b
 asis=10 config=1||0,1|H,2.0755291592,0.7209401275,0.|C,1.0921934083,0.
 3031603792,0.|H,1.2546203129,-1.8745899708,0.|C,0.6615584317,-0.987591
 8928,0.|H,-1.4739604373,-1.6565972333,0.|C,-0.745391121,-0.8736136791,
 0.|N,-1.1230057815,0.3686789602,0.|H,-0.0452535562,2.0620140406,0.|N,-
 0.0000084745,1.0736787816,0.||Version=x86-Win32-G03RevB.05|State=1-A'|
 HF=-224.873451|RMSD=7.546e-009|RMSF=1.814e-005|Dipole=0.8783856,0.2937
 068,0.|PG=CS [SG(C3H4N2)]||@


 LAW OF COMPENSATION:
      NO CALCULATION IS EVER A COMPLETE FAILURE; IT 
      CAN ALWAYS SERVE AS A BAD EXAMPLE.

                                           -- ANON
 Job cpu time:  0 days  0 hours 50 minutes 59.0 seconds.
 File lengths (MBytes):  RWF=     43 Int=      0 D2E=      0 Chk=      7 Scr=      1
[...]
 IR Inten    --     2.6340                 0.5504               117.3465
 Raman Activ --    31.4990               111.4955                78.3335
 Depolar (P) --     0.7474                 0.1243                 0.2180
 Depolar (U) --     0.8555                 0.2212                 0.3580
 Atom AN      X      Y      Z        X      Y      Z        X      Y      Z
   1   1     0.76   0.32   0.00    -0.49  -0.21   0.00     0.01   0.00   0.00
   2   6    -0.07  -0.03   0.00     0.05   0.02   0.00     0.00   0.00   0.00
   3   1    -0.27   0.39   0.00    -0.45   0.68   0.00     0.00   0.00   0.00
   4   6     0.03  -0.03   0.00     0.04  -0.07   0.00     0.00   0.00   0.00
   5   1     0.20   0.21   0.00     0.14   0.15   0.00     0.00   0.00   0.00
   6   6    -0.02  -0.02   0.00    -0.02  -0.01   0.00     0.00   0.00   0.00
   7   7     0.00   0.00   0.00     0.00   0.00   0.00     0.00   0.00   0.00
   8   1    -0.01  -0.01   0.00     0.00   0.01   0.00    -0.05   1.00   0.00
   9   7     0.00   0.00   0.00     0.00   0.00   0.00     0.00  -0.08   0.00

 -------------------
 - Thermochemistry -
 -------------------
 Temperature   298.150 Kelvin.  Pressure   1.00000 Atm.
 Atom  1 has atomic number  1 and mass   1.00783
 Atom  2 has atomic number  6 and mass  12.00000
 Atom  3 has atomic number  1 and mass   1.00783
 Atom  4 has atomic number  6 and mass  12.00000
 Atom  5 has atomic number  1 and mass   1.00783
 Atom  6 has atomic number  6 and mass  12.00000
 Atom  7 has atomic number  7 and mass  14.00307
 Atom  8 has atomic number  1 and mass   1.00783
 Atom  9 has atomic number  7 and mass  14.00307
 Molecular mass:    68.03745 amu.
 Principal axes and moments of inertia in atomic units:
                           1         2         3
     EIGENVALUES --   182.15394 185.96942 368.12336
           X            0.94657   0.32250   0.00000
           Y           -0.32250   0.94657   0.00000
           Z            0.00000   0.00000   1.00000
 This molecule is an asymmetric top.
 Rotational symmetry number  1.
 Rotational temperatures (Kelvin)      0.47550     0.46574     0.23528
 Rotational constants (GHZ):           9.90778     9.70451     4.90254
 Zero-point vibrational energy     200670.8 (Joules/Mol)
                                   47.96147 (Kcal/Mol)
 Warning -- explicit consideration of   1 degrees of freedom as
           vibrations may cause significant error
 Vibrational temperatures:    817.54   989.46  1070.73  1221.74  1421.23
          (Kelvin)           1434.30  1460.85  1477.55  1609.27  1633.14
                             1756.21  1831.57  2013.74  2197.66  2204.77
                             2329.92  2483.52  4867.49  4888.75  4918.93
                             5641.84
 
 Zero-point correction=                           0.076431 (Hartree/Particle)
 Thermal correction to Energy=                    0.079959
 Thermal correction to Enthalpy=                  0.080903
 Thermal correction to Gibbs Free Energy=         0.050276
 Sum of electronic and zero-point Energies=           -224.797020
 Sum of electronic and thermal Energies=              -224.793492
 Sum of electronic and thermal Enthalpies=            -224.792548
 Sum of electronic and thermal Free Energies=         -224.823175
 
                     E (Thermal)             CV                S
                      KCal/Mol        Cal/Mol-Kelvin    Cal/Mol-Kelvin
 Total                   50.175             11.908             64.460
 Electronic               0.000              0.000              0.000
 Translational            0.889              2.981             38.570
 Rotational               0.889              2.981             24.037
 Vibrational             48.398              5.946              1.853
 Vibration  1             0.924              1.100              0.508
                       Q            Log10(Q)             Ln(Q)
 Total Bot       0.749181D-23        -23.125413        -53.248231
 Total V=0       0.107287D+13         12.030547         27.701357
 Vib (Bot)       0.849624D-35        -35.070773        -80.753440
 Vib (Bot)  1    0.271334D+00         -0.566496         -1.304404
 Vib (V=0)       0.121671D+01          0.085186          0.196149
 Vib (V=0)  1    0.106888D+01          0.028928          0.066609
 Electronic      0.100000D+01          0.000000          0.000000
 Translational   0.220586D+08          7.343577         16.909211
 Rotational      0.399745D+05          4.601783         10.595997
 ***** Axes restored to original set *****
 -------------------------------------------------------------------
 Center     Atomic                   Forces (Hartrees/Bohr)
 Number     Number              X              Y              Z
 -------------------------------------------------------------------
    1          1          -0.000004418   -0.000010729    0.000000000
    2          6           0.000026472   -0.000015383    0.000000000
    3          1          -0.000000482    0.000010797    0.000000000
    4          6          -0.000027235    0.000059903    0.000000000
    5          1           0.000005051    0.000004087    0.000000000
    6          6          -0.000001991   -0.000006651    0.000000000
    7          7           0.000029273   -0.000001308    0.000000000
    8          1           0.000006616   -0.000005114    0.000000000
    9          7          -0.000033285   -0.000035602    0.000000000
 -------------------------------------------------------------------
 Cartesian Forces:  Max     0.000059903 RMS     0.000018169

 GradGradGradGradGradGradGradGradGradGradGradGradGradGradGradGradGradGrad
 Berny optimization.
 Internal  Forces:  Max     0.000043849 RMS     0.000012454
 Search for a local minimum.
 Step number   1 out of a maximum of   2
 All quantities printed in internal units (Hartrees-Bohrs-Radians)
 Second derivative matrix not updated -- analytic derivatives used.
     Eigenvalues ---    0.00837   0.01452   0.02081   0.03385   0.06667
     Eigenvalues ---    0.07186   0.10855   0.12189   0.12810   0.13723
     Eigenvalues ---    0.25477   0.28536   0.38673   0.40185   0.40654
     Eigenvalues ---    0.40981   0.46424   0.47343   0.54577   0.56638
     Eigenvalues ---    0.669131000.000001000.000001000.000001000.00000
     Eigenvalues --- 1000.000001000.000001000.000001000.000001000.00000
     Eigenvalues --- 1000.000001000.000001000.000001000.000001000.00000
     Eigenvalues --- 1000.000001000.000001000.00000
 Angle between quadratic step and forces=  28.35 degrees.
 Linear search not attempted -- first point.
 Iteration  1 RMS(Cart)=  0.00004426 RMS(Int)=  0.00000000
 Iteration  2 RMS(Cart)=  0.00000000 RMS(Int)=  0.00000000
 Variable       Old X    -DE/DX   Delta X   Delta X   Delta X     New X
                                 (Linear)    (Quad)   (Total)
    R1        2.01899  -0.00001   0.00000  -0.00003  -0.00003   2.01897
    R2        2.57134  -0.00004   0.00000  -0.00008  -0.00008   2.57126
    R3        2.52588   0.00000   0.00000   0.00002   0.00002   2.52590
    R4        2.01634  -0.00001   0.00000  -0.00002  -0.00002   2.01632
    R5        2.66746  -0.00002   0.00000  -0.00005  -0.00005   2.66741
    R6        2.02110  -0.00001   0.00000  -0.00002  -0.00002   2.02108
    R7        2.45365  -0.00002   0.00000  -0.00001  -0.00001   2.45364
    R8        2.50569  -0.00002   0.00000  -0.00007  -0.00007   2.50562
    R9        1.86964  -0.00001   0.00000  -0.00001  -0.00001   1.86963
    A1        2.29457   0.00000   0.00000  -0.00002  -0.00002   2.29455
    A2        2.12545   0.00002   0.00000   0.00009   0.00009   2.12555
    A3        1.86317  -0.00002   0.00000  -0.00007  -0.00007   1.86309
    A4        2.23022  -0.00002   0.00000  -0.00009  -0.00009   2.23013
    A5        1.81198   0.00003   0.00000   0.00009   0.00009   1.81207
    A6        2.24098  -0.00001   0.00000   0.00000   0.00000   2.24098
    A7        2.23938   0.00001   0.00000   0.00002   0.00002   2.23940
    A8        1.94672  -0.00001   0.00000  -0.00006  -0.00006   1.94666
    A9        2.09709   0.00001   0.00000   0.00004   0.00004   2.09712
   A10        1.83630   0.00000   0.00000   0.00002   0.00002   1.83632
   A11        1.96660   0.00001   0.00000   0.00003   0.00003   1.96664
   A12        2.23093  -0.00001   0.00000  -0.00006  -0.00006   2.23088
   A13        2.08565   0.00000   0.00000   0.00003   0.00003   2.08567
    D1        0.00000   0.00000   0.00000   0.00000   0.00000   0.00000
    D2        3.14159   0.00000   0.00000   0.00000   0.00000   3.14159
    D3        3.14159   0.00000   0.00000   0.00000   0.00000   3.14159
    D4        0.00000   0.00000   0.00000   0.00000   0.00000   0.00000
    D5        3.14159   0.00000   0.00000   0.00000   0.00000   3.14159
    D6        0.00000   0.00000   0.00000   0.00000   0.00000   0.00000
    D7        0.00000   0.00000   0.00000   0.00000   0.00000   0.00000
    D8        3.14159   0.00000   0.00000   0.00000   0.00000   3.14159
    D9        3.14159   0.00000   0.00000   0.00000   0.00000   3.14159
   D10        0.00000   0.00000   0.00000   0.00000   0.00000   0.00000
   D11        0.00000   0.00000   0.00000   0.00000   0.00000   0.00000
   D12        3.14159   0.00000   0.00000   0.00000   0.00000   3.14159
   D13        0.00000   0.00000   0.00000   0.00000   0.00000   0.00000
   D14        3.14159   0.00000   0.00000   0.00000   0.00000   3.14159
   D15        0.00000   0.00000   0.00000   0.00000   0.00000   0.00000
   D16        3.14159   0.00000   0.00000   0.00000   0.00000   3.14159
         Item               Value     Threshold  Converged?
 Maximum Force            0.000044     0.000450     YES
 RMS     Force            0.000012     0.000300     YES
 Maximum Displacement     0.000172     0.001800     YES
 RMS     Displacement     0.000044     0.001200     YES
 Predicted change in Energy=-7.980255D-09
 Optimization completed.
    -- Stationary point found.
                           ----------------------------
                           !   Optimized Parameters   !
                           ! (Angstroms and Degrees)  !
 --------------------------                            --------------------------
 ! Name  Definition              Value          Derivative Info.                !
 --------------------------------------------------------------------------------
 ! R1    R(1,2)                  1.0684         -DE/DX =    0.0                 !
 ! R2    R(2,4)                  1.3607         -DE/DX =    0.0                 !
 ! R3    R(2,9)                  1.3366         -DE/DX =    0.0                 !
 ! R4    R(3,4)                  1.067          -DE/DX =    0.0                 !
 ! R5    R(4,6)                  1.4116         -DE/DX =    0.0                 !
 ! R6    R(5,6)                  1.0695         -DE/DX =    0.0                 !
 ! R7    R(6,7)                  1.2984         -DE/DX =    0.0                 !
 ! R8    R(7,9)                  1.326          -DE/DX =    0.0                 !
 ! R9    R(8,9)                  0.9894         -DE/DX =    0.0                 !
 ! A1    A(1,2,4)              131.469          -DE/DX =    0.0                 !
 ! A2    A(1,2,9)              121.7794         -DE/DX =    0.0                 !
 ! A3    A(4,2,9)              106.7516         -DE/DX =    0.0                 !
 ! A4    A(2,4,3)              127.7823         -DE/DX =    0.0                 !
 ! A5    A(2,4,6)              103.8188         -DE/DX =    0.0                 !
 ! A6    A(3,4,6)              128.3988         -DE/DX =    0.0                 !
 ! A7    A(4,6,5)              128.3068         -DE/DX =    0.0                 !
 ! A8    A(4,6,7)              111.539          -DE/DX =    0.0                 !
 ! A9    A(5,6,7)              120.1542         -DE/DX =    0.0                 !
 ! A10   A(6,7,9)              105.2125         -DE/DX =    0.0                 !
 ! A11   A(2,9,7)              112.6781         -DE/DX =    0.0                 !
 ! A12   A(2,9,8)              127.823          -DE/DX =    0.0                 !
 ! A13   A(7,9,8)              119.4988         -DE/DX =    0.0                 !
 ! D1    D(1,2,4,3)              0.0            -DE/DX =    0.0                 !
 ! D2    D(1,2,4,6)            180.0            -DE/DX =    0.0                 !
 ! D3    D(9,2,4,3)            180.0            -DE/DX =    0.0                 !
 ! D4    D(9,2,4,6)              0.0            -DE/DX =    0.0                 !
 ! D5    D(1,2,9,7)            180.0            -DE/DX =    0.0                 !
 ! D6    D(1,2,9,8)              0.0            -DE/DX =    0.0                 !
 ! D7    D(4,2,9,7)              0.0            -DE/DX =    0.0                 !
 ! D8    D(4,2,9,8)            180.0            -DE/DX =    0.0                 !
 ! D9    D(2,4,6,5)            180.0            -DE/DX =    0.0                 !
 ! D10   D(2,4,6,7)              0.0            -DE/DX =    0.0                 !
 ! D11   D(3,4,6,5)              0.0            -DE/DX =    0.0                 !
 ! D12   D(3,4,6,7)            180.0            -DE/DX =    0.0                 !
 ! D13   D(4,6,7,9)              0.0            -DE/DX =    0.0                 !
 ! D14   D(5,6,7,9)            180.0            -DE/DX =    0.0                 !
 ! D15   D(6,7,9,2)              0.0            -DE/DX =    0.0                 !
 ! D16   D(6,7,9,8)            180.0            -DE/DX =    0.0                 !
 --------------------------------------------------------------------------------
 GradGradGradGradGradGradGradGradGradGradGradGradGradGradGradGradGradGrad

 1|1|UNPC-UNK|Freq|RHF|6-311+G(3df,2p)|C3H4N2|PCUSER|21-May-2007|0||#N 
 GEOM=ALLCHECK GUESS=READ SCRF=CHECK GENCHK RHF/6-311+G(3DF,2P) FREQ||1
 hpyraz 1H-Pyrazole casno=288131 method=1 basis=10 config=1||0,1|H,2.07
 55291592,0.7209401275,0.|C,1.0921934083,0.3031603792,0.|H,1.2546203129
 ,-1.8745899708,0.|C,0.6615584317,-0.9875918928,0.|H,-1.4739604373,-1.6
 565972333,0.|C,-0.745391121,-0.8736136791,0.|N,-1.1230057815,0.3686789
 602,0.|H,-0.0452535562,2.0620140406,0.|N,-0.0000084745,1.0736787816,0.
 ||Version=x86-Win32-G03RevB.05|State=1-A'|HF=-224.873451|RMSD=3.393e-0
 09|RMSF=1.817e-005|Dipole=0.8783855,0.2937052,0.|DipoleDeriv=0.005198,
 -0.0430946,0.,-0.0503648,0.0656586,0.,0.,0.,0.1936454,0.0269723,-0.189
 406,0.,0.0343339,0.5923917,0.,0.,0.,-0.0744473,0.0406678,0.0711994,0.,
 0.0604949,0.0111034,0.,0.,0.,0.2060845,-0.224673,-0.2311163,0.,-0.1559
 755,-0.2360285,0.,0.,0.,-0.2872904,0.0037646,-0.0841757,0.,-0.0543344,
 0.017312,0.,0.,0.,0.1547159,0.5139063,0.1183212,0.,-0.0081362,0.088592
 3,0.,0.,0.,-0.0575165,-0.5899817,0.3710532,0.,0.2232684,-0.0757147,0.,
 0.,0.,-0.2453283,0.1742544,-0.0094823,0.,-0.0272124,0.3017081,0.,0.,0.
 ,0.3230017,0.0498912,-0.0032988,0.,-0.022074,-0.7650229,0.,0.,0.,-0.21
 2865|Polar=50.6625153,1.1530638,52.5654317,0.,0.,32.7363573|PolarDeriv
 =8.011804,2.6521129,1.7842099,0.,0.,0.6539085,2.3078429,1.9689571,1.68
 17902,0.,0.,0.086437,0.,0.,0.,-0.2567694,-0.1479006,0.,2.14783,0.41974
 09,3.7569523,0.,0.,3.3918383,7.6174516,-0.737476,-0.6287951,0.,0.,5.05
 51547,0.,0.,0.,4.1315257,2.2774451,0.,2.7181963,-2.6538149,2.8117227,0
 .,0.,0.2860408,-2.3273782,2.8723461,-6.4422576,0.,0.,-0.4126971,0.,0.,
 0.,0.020459,0.4331719,0.,-7.3463102,0.9921803,3.8983057,0.,0.,1.500637
 2,-6.9216716,-1.0742731,-1.1704507,0.,0.,-5.5763995,0.,0.,0.,1.2448519
 ,-3.9691962,0.,-4.155284,-3.1684897,-2.88995,0.,0.,-0.3635533,-2.97550
 39,-3.2202456,-5.0772355,0.,0.,-0.5794128,0.,0.,0.,-0.2924597,-0.02584
 78,0.,7.3464152,-0.3946197,-5.0435757,0.,0.,-3.2302504,-8.0640959,2.53
 43532,-0.7243129,0.,0.,-3.2271389,0.,0.,0.,-1.8597492,-3.0702057,0.,-8
 .4551182,2.4904295,-2.5709641,0.,0.,-0.7522296,10.447944,-2.9407168,0.
 8989443,0.,0.,3.295525,0.,0.,0.,-2.5340171,1.6006134,0.,-0.2096769,1.1
 863545,-0.3562634,0.,0.,-0.0195678,1.1890223,-0.3350003,9.2322584,0.,0
 .,0.8658809,0.,0.,0.,0.1243102,0.3749114,0.,-0.0578562,-1.5238939,-1.3
 904375,0.,0.,-1.4668237,-1.2736113,0.9320553,2.230059,0.,0.,0.4926507,
 0.,0.,0.,-0.5781514,2.5270084,0.|HyperPolar=-4.8654684,-1.8602964,15.9
 465608,-15.5123962,0.,0.,0.,29.9327633,-37.5373306,0.|PG=CS [SG(C3H4N2
 )]|NImag=0||0.35446059,0.12314988,0.11274438,0.,0.,0.02815980,-0.33553
 391,-0.12290056,0.,0.93578571,-0.11209891,-0.12741746,0.,0.13913808,0.
 76293437,0.,0.,-0.03959810,0.,0.,0.16106439,-0.00022609,0.00116380,0.,
 0.01489462,-0.01199343,0.,0.16395541,-0.00062803,0.00038113,0.,0.02089
 067,-0.01099162,0.,-0.16225783,0.29973339,0.,0.,-0.00379539,0.,0.,-0.0
 0049374,0.,0.,0.02619239,0.00272016,-0.02606630,0.,-0.17145654,-0.0631
 8340,0.,-0.16967598,0.14732585,0.,0.68033525,0.00148986,0.00534494,0.,
 -0.11023469,-0.38992471,0.,0.14975958,-0.29172919,0.,-0.14215393,0.922
 70496,0.,0.,0.00503188,0.,0.,-0.08238225,0.,0.,-0.03273926,0.,0.,0.142
 44912,0.00021113,-0.00156181,0.,-0.00715835,0.00115011,0.,0.00022602,0
 .00082024,0.,-0.00615600,-0.02301538,0.,0.22056599,-0.00007713,0.00079
 796,0.,0.00348209,-0.00065384,0.,-0.00100089,-0.00035668,0.,0.00534659
 ,0.01076971,0.,0.16853156,0.24640647,0.,0.,0.00067727,0.,0.,0.00490289
 ,0.,0.,-0.00198669,0.,0.,0.00310081,0.,0.,0.03143311,0.00022146,-0.003
 19525,0.,-0.03023118,-0.10975879,0.,-0.00049663,-0.00291766,0.,-0.2996
 8972,0.02993603,0.,-0.22570071,-0.15010696,0.,0.76597420,0.00056943,-0
 .00715939,0.,-0.02688991,0.02876487,0.,0.02748957,0.00788927,0.,-0.019
 80627,-0.14233807,0.,-0.16060806,-0.22759055,0.,0.13998749,0.92655404,
 0.,0.,0.00628038,0.,0.,0.01336217,0.,0.,-0.00240770,0.,0.,-0.08154316,
 0.,0.,-0.04252021,0.,0.,0.17736798,-0.00154646,0.00452138,0.,-0.115161
 83,0.01597439,0.,-0.00835834,-0.00254564,0.,-0.03244522,0.01772698,0.,
 0.01493954,-0.02649785,0.,-0.16982981,0.09954426,0.,0.58307338,0.00397
 268,-0.00424105,0.,-0.01354000,-0.04278770,0.,0.00315522,0.00111776,0.
 ,0.11451556,-0.01204403,0.,0.00888731,-0.02164904,0.,0.11537806,-0.439
 20838,0.,-0.06414638,0.69175627,0.,0.,0.00728624,0.,0.,0.01941383,0.,0
 .,0.00658252,0.,0.,0.02640978,0.,0.,-0.00749736,0.,0.,-0.08822454,0.,0
 .,0.12421616,-0.00006861,-0.00109981,0.,0.01423268,0.02806029,0.,0.001
 06871,0.00118372,0.,-0.00666483,0.00538417,0.,0.00090463,-0.00173971,0
 .,-0.00965331,-0.00589465,0.,0.01266617,-0.03942044,0.,0.07949519,0.00
 047382,0.00015195,0.,-0.00443770,-0.00751711,0.,-0.00023538,-0.0000292
 7,0.,0.00465207,0.00227891,0.,0.00037382,-0.00034730,0.,-0.00632347,0.
 00303906,0.,0.00195019,-0.01419257,0.,-0.02142438,0.54511638,0.,0.,-0.
 00220013,0.,0.,-0.00812598,0.,0.,0.00257076,0.,0.,0.00370804,0.,0.,0.0
 0231196,0.,0.,0.00448300,0.,0.,-0.01347941,0.,0.,0.01388907,-0.0202382
 6,0.02598866,0.,-0.30537118,0.11271167,0.,-0.00138772,-0.00187131,0.,0
 .00303289,0.07110738,0.,0.00216776,0.00206230,0.,-0.03059429,-0.054391
 87,0.,-0.28333741,-0.12880201,0.,-0.09198063,0.02497103,0.,0.72770885,
 -0.01685160,0.01939754,0.,0.11449202,-0.21240679,0.,-0.00608064,-0.006
 01480,0.,-0.02063017,-0.10506252,0.,0.00542221,-0.00737673,0.,-0.01299
 944,-0.14995084,0.,-0.04652734,-0.15875125,0.,0.03495081,-0.52850007,0
 .,-0.05177585,1.14866546,0.,0.,-0.00184196,0.,0.,-0.06814322,0.,0.,0.0
 0607711,0.,0.,0.01596504,0.,0.,0.00957821,0.,0.,0.01320207,0.,0.,-0.07
 470721,0.,0.,-0.00315731,0.,0.,0.10302727||0.00000442,0.00001073,0.,-0
 .00002647,0.00001538,0.,0.00000048,-0.00001080,0.,0.00002724,-0.000059
 90,0.,-0.00000505,-0.00000409,0.,0.00000199,0.00000665,0.,-0.00002927,
 0.00000131,0.,-0.00000662,0.00000511,0.,0.00003328,0.00003560,0.|||@


 ASKING FOR EFFICIENCY AND ADAPTABILITY IN THE SAME PROGRAM IS LIKE
 ASKING FOR A BEAUTIFUL AND MODEST WIFE ...
 WE'LL PROBABLY HAVE TO SETTLE FOR ONE OR THE OTHER.

             -- THE PSYCHOLOGY OF COMPUTER PROGRAMMING
                GERALD M. WEINBERG
 Job cpu time:  0 days  1 hours 17 minutes 28.0 seconds.
 File lengths (MBytes):  RWF=     50 Int=      0 D2E=      0 Chk=      7 Scr=      1
 Normal termination of Gaussian 03 at Mon May 21 06:36:34 2007.
