 Entering Gaussian System, Link 0=g98
 Initial command:
 /usr/local/apps/g98a6/g98/l1.exe /wrk/rdj3/Gau-16128.inp -scrdir=/wrk/rdj3/
 Entering Link 1 = /usr/local/apps/g98a6/g98/l1.exe PID=     17320.
  
 Copyright (c) 1988,1990,1992,1993,1995,1998 Gaussian, Inc.
                  All Rights Reserved.
  
 This is part of the Gaussian(R) 98 program.  It is based on
 the Gaussian 94(TM) system (copyright 1995 Gaussian, Inc.),
 the Gaussian 92(TM) system (copyright 1992 Gaussian, Inc.),
 the Gaussian 90(TM) system (copyright 1990 Gaussian, Inc.),
 the Gaussian 88(TM) system (copyright 1988 Gaussian, Inc.),
 the Gaussian 86(TM) system (copyright 1986 Carnegie Mellon
 University), and the Gaussian 82(TM) system (copyright 1983
 Carnegie Mellon University). Gaussian is a federally registered
 trademark of Gaussian, Inc.
  
 This software contains proprietary and confidential information,
 including trade secrets, belonging to Gaussian, Inc.
  
 This software is provided under written license and may be
 used, copied, transmitted, or stored only in accord with that
 written license.
  
 The following legend is applicable only to US Government
 contracts under DFARS:
  
                    RESTRICTED RIGHTS LEGEND
  
 Use, duplication or disclosure by the US Government is subject
 to restrictions as set forth in subparagraph (c)(1)(ii) of the
 Rights in Technical Data and Computer Software clause at DFARS
 252.227-7013.
  
 Gaussian, Inc.
 Carnegie Office Park, Building 6, Pittsburgh, PA 15106 USA
  
 The following legend is applicable only to US Government
 contracts under FAR:
  
                    RESTRICTED RIGHTS LEGEND
  
 Use, reproduction and disclosure by the US Government is subject
 to restrictions as set forth in subparagraph (c) of the
 Commercial Computer Software - Restricted Rights clause at FAR
 52.227-19.
  
 Gaussian, Inc.
 Carnegie Office Park, Building 6, Pittsburgh, PA 15106 USA
  
  
 ---------------------------------------------------------------
 Warning -- This program may not be used in any manner that
 competes with the business of Gaussian, Inc. or will provide
 assistance to any competitor of Gaussian, Inc.  The licensee
 of this program is prohibited from giving any competitor of
 Gaussian, Inc. access to this program.  By using this program,
 the user acknowledges that Gaussian, Inc. is engaged in the
 business of creating and licensing software in the field of
 computational chemistry and represents and warrants to the
 licensee that it is not a competitor of Gaussian, Inc. and that
 it will not use this program in any manner prohibited above.
 ---------------------------------------------------------------
  

 Cite this work as:
 Gaussian 98, Revision A.6,
 M. J. Frisch, G. W. Trucks, H. B. Schlegel, G. E. Scuseria, 
 M. A. Robb, J. R. Cheeseman, V. G. Zakrzewski, J. A. Montgomery, Jr., 
 R. E. Stratmann, J. C. Burant, S. Dapprich, J. M. Millam, 
 A. D. Daniels, K. N. Kudin, M. C. Strain, O. Farkas, J. Tomasi, 
 V. Barone, M. Cossi, R. Cammi, B. Mennucci, C. Pomelli, C. Adamo, 
 S. Clifford, J. Ochterski, G. A. Petersson, P. Y. Ayala, Q. Cui, 
 K. Morokuma, D. K. Malick, A. D. Rabuck, K. Raghavachari, 
 J. B. Foresman, J. Cioslowski, J. V. Ortiz, B. B. Stefanov, G. Liu, 
 A. Liashenko, P. Piskorz, I. Komaromi, R. Gomperts, R. L. Martin, 
 D. J. Fox, T. Keith, M. A. Al-Laham, C. Y. Peng, A. Nanayakkara, 
 C. Gonzalez, M. Challacombe, P. M. W. Gill, B. Johnson, W. Chen, 
 M. W. Wong, J. L. Andres, C. Gonzalez, M. Head-Gordon, 
 E. S. Replogle, and J. A. Pople, 
 Gaussian, Inc., Pittsburgh PA, 1998.

 **********************************************
 Gaussian 98:  IBM-RS6000-G98RevA.6 19-Oct-1998
                   5-Sep-2000 
 **********************************************
 %mem=24000000
 --------------------
 #HF/LANL2DZ opt freq
 --------------------
 1/18=20,38=1/1,3;
 2/9=110,17=6,18=5/2;
 3/5=6,6=3,11=9,16=1,25=1,30=1/1,2,3;
 4/11=1/1;
 5/5=2,38=4/2;
 6/7=2,8=2,9=2,10=2,28=1/1;
 7//1,2,3,16;
 1/18=20/3(1);
 99//99;
 2/9=110/2;
 3/5=6,6=3,11=9,16=1,25=1,30=1/1,2,3;
 4/5=5,11=1,16=2/1;
 5/5=2,38=4/2;
 7//1,2,3,16;
 1/18=20/3(-5);
 2/9=110/2;
 6/7=2,8=2,9=2,10=2,19=2,28=1/1;
 99/9=1/99;
 -------------------------------
 1H pyrazole C3H4N2 casno=288131
 -------------------------------
 Symbolic Z-matrix:
 Charge =  0 Multiplicity = 1
 H                    -1.9125    0.       -0.75938 
 C                    -1.08438   0.       -0.21875 
 H                     0.43438   0.       -1.63125 
 C                     0.15      0.       -0.68438 
 H                     1.9125    0.        0.37188 
 C                     0.92188   0.        0.375 
 N                     0.18125   0.        1.41875 
 H                    -1.74063   0.        1.63125 
 N                    -1.00313   0.        1.05313 

 GradGradGradGradGradGradGradGradGradGradGradGradGradGradGradGradGradGrad
 Berny optimization.
 Initialization pass.
                         ----------------------------
                         !    Initial Parameters    !
                         ! (Angstroms and Degrees)  !
 ------------------------                            -------------------------
 ! Name  Definition              Value          Derivative Info.             !
 -----------------------------------------------------------------------------
 ! R1    R(1,2)                  0.989          estimate D2E/DX2             !
 ! R2    R(2,4)                  1.3193         estimate D2E/DX2             !
 ! R3    R(2,9)                  1.2745         estimate D2E/DX2             !
 ! R4    R(3,4)                  0.9887         estimate D2E/DX2             !
 ! R5    R(4,6)                  1.3108         estimate D2E/DX2             !
 ! R6    R(5,6)                  0.9906         estimate D2E/DX2             !
 ! R7    R(6,7)                  1.2798         estimate D2E/DX2             !
 ! R8    R(7,9)                  1.2395         estimate D2E/DX2             !
 ! R9    R(8,9)                  0.9371         estimate D2E/DX2             !
 ! A1    A(1,2,4)              126.195          estimate D2E/DX2             !
 ! A2    A(1,2,9)              126.7929         estimate D2E/DX2             !
 ! A3    A(4,2,9)              107.012          estimate D2E/DX2             !
 ! A4    A(2,4,3)              127.3838         estimate D2E/DX2             !
 ! A5    A(2,4,6)              105.4104         estimate D2E/DX2             !
 ! A6    A(3,4,6)              127.2058         estimate D2E/DX2             !
 ! A7    A(4,6,5)              125.8968         estimate D2E/DX2             !
 ! A8    A(4,6,7)              108.5636         estimate D2E/DX2             !
 ! A9    A(5,6,7)              125.5395         estimate D2E/DX2             !
 ! A10   A(6,7,9)              108.203          estimate D2E/DX2             !
 ! A11   A(2,9,7)              110.811          estimate D2E/DX2             !
 ! A12   A(2,9,8)              124.4376         estimate D2E/DX2             !
 ! A13   A(7,9,8)              124.7513         estimate D2E/DX2             !
 ! D1    D(1,2,4,3)              0.             estimate D2E/DX2             !
 ! D2    D(1,2,4,6)            180.             estimate D2E/DX2             !
 ! D3    D(9,2,4,3)            180.             estimate D2E/DX2             !
 ! D4    D(9,2,4,6)              0.             estimate D2E/DX2             !
 ! D5    D(1,2,9,7)            180.             estimate D2E/DX2             !
 ! D6    D(1,2,9,8)              0.             estimate D2E/DX2             !
 ! D7    D(4,2,9,7)              0.             estimate D2E/DX2             !
 ! D8    D(4,2,9,8)            180.             estimate D2E/DX2             !
 ! D9    D(2,4,6,5)            180.             estimate D2E/DX2             !
 ! D10   D(2,4,6,7)              0.             estimate D2E/DX2             !
 ! D11   D(3,4,6,5)              0.             estimate D2E/DX2             !
 ! D12   D(3,4,6,7)            180.             estimate D2E/DX2             !
 ! D13   D(4,6,7,9)              0.             estimate D2E/DX2             !
 ! D14   D(5,6,7,9)            180.             estimate D2E/DX2             !
 ! D15   D(6,7,9,2)              0.             estimate D2E/DX2             !
 ! D16   D(6,7,9,8)            180.             estimate D2E/DX2             !
 -----------------------------------------------------------------------------
 Trust Radius=3.00D-01 FncErr=1.00D-07 GrdErr=1.00D-07
 Number of steps in this run=  48 maximum allowed number of steps= 100.
 GradGradGradGradGradGradGradGradGradGradGradGradGradGradGradGradGradGrad

                          Input orientation:                          
 ---------------------------------------------------------------------
 Center     Atomic     Atomic              Coordinates (Angstroms)
 Number     Number      Type              X           Y           Z
 ---------------------------------------------------------------------
    1          1             0       -1.912500    0.000000   -0.759375
    2          6             0       -1.084375    0.000000   -0.218750
    3          1             0        0.434375    0.000000   -1.631250
    4          6             0        0.150000    0.000000   -0.684375
    5          1             0        1.912500    0.000000    0.371875
    6          6             0        0.921875    0.000000    0.375000
    7          7             0        0.181250    0.000000    1.418750
    8          1             0       -1.740625    0.000000    1.631250
    9          7             0       -1.003125    0.000000    1.053125
 ---------------------------------------------------------------------
                    Distance matrix (angstroms):
                    1          2          3          4          5
     1  H    0.000000
     2  C    0.988972   0.000000
     3  H    2.503595   2.074068   0.000000
     4  C    2.063863   1.319276   0.988656   0.000000
     5  H    3.988778   3.054521   2.489450   2.054768   0.000000
     6  C    3.052947   2.092266   2.064630   1.310750   0.990630
     7  N    3.021261   2.069592   3.060486   2.103357   2.023159
     8  H    2.396796   1.962948   3.921037   2.989412   3.864110
     9  N    2.027836   1.274468   3.045041   2.085331   2.994156
                    6          7          8          9
     6  C    0.000000
     7  N    1.279820   0.000000
     8  H    2.943989   1.933587   0.000000
     9  N    2.040950   1.239526   0.937088   0.000000
 Stoichiometry    C3H4N2
 Framework group  CS[SG(C3H4N2)]
 Deg. of freedom   15
 Full point group                 CS      NOp   2
 Largest Abelian subgroup         CS      NOp   2
 Largest concise Abelian subgroup C1      NOp   1
                         Standard orientation:                         
 ---------------------------------------------------------------------
 Center     Atomic     Atomic              Coordinates (Angstroms)
 Number     Number      Type              X           Y           Z
 ---------------------------------------------------------------------
    1          1             0        1.974407    0.585689    0.000000
    2          6             0        1.028833    0.295936    0.000000
    3          1             0        1.140941   -1.775099    0.000000
    4          6             0        0.595873   -0.950271    0.000000
    5          1             0       -1.344123   -1.627388    0.000000
    6          6             0       -0.712074   -0.864589    0.000000
    7          7             0       -1.039336    0.372682    0.000000
    8          1             0        0.028336    1.984773    0.000000
    9          7             0        0.000000    1.048113    0.000000
 ---------------------------------------------------------------------
 Rotational constants (GHZ):     11.1878032     10.4520048      5.4036973
 Isotopes: H-1,C-12,H-1,C-12,H-1,C-12,N-14,H-1,N-14
 Standard basis: LANL2DZ (5D, 7F)
 There are    43 symmetry adapted basis functions of A'  symmetry.
 There are    10 symmetry adapted basis functions of A"  symmetry.
 Crude estimate of integral set expansion from redundant integrals=1.000.
 Integral buffers will be    262144 words long.
 Raffenetti 1 integral format.
 Two-electron integral symmetry is turned on.
    53 basis functions      141 primitive gaussians
    18 alpha electrons       18 beta electrons
       nuclear repulsion energy       173.7391879471 Hartrees.
 One-electron integrals computed using PRISM.
   1 Symmetry operations used in ECPInt.
 ECPInt:  NShTT=     561 NPrTT=    4338 LenC2=     562 LenP2D=    3506.
 LDataN:  DoStor=F MaxTD1= 2 Len=   12
 LDataN:  DoStor=T MaxTD1= 2 Len=   12
 NBasis=    53 RedAO= T  NBF=    43    10
 NBsUse=    53 1.00D-04 NBFU=    43    10
 Projected Huckel Guess.
 Initial guess orbital symmetries:
       Occupied  (A') (A') (A') (A') (A') (A') (A') (A') (A') (A')
                 (A') (A") (A') (A') (A') (A') (A") (A")
       Virtual   (A") (A") (A') (A') (A') (A') (A') (A') (A') (A')
                 (A') (A') (A') (A') (A') (A') (A') (A') (A') (A')
                 (A') (A') (A') (A') (A') (A') (A') (A') (A') (A')
                 (A") (A") (A") (A") (A")
 Requested convergence on RMS density matrix=1.00D-08 within  64 cycles.
 Requested convergence on MAX density matrix=1.00D-06.
 Keep R1 integrals in memory in canonical form, NReq=     1438540.
 SCF Done:  E(RHF) =  -224.655143686     A.U. after   14 cycles
             Convg  =    0.4991D-08             -V/T =  1.9903
             S**2   =   0.0000

 **********************************************************************

            Population analysis using the SCF density.

 **********************************************************************

 Orbital Symmetries:
       Occupied  (A') (A') (A') (A') (A') (A') (A') (A') (A') (A')
                 (A') (A") (A') (A') (A') (A') (A") (A")
       Virtual   (A") (A') (A") (A') (A') (A') (A') (A') (A') (A")
                 (A') (A") (A') (A') (A") (A') (A') (A') (A') (A")
                 (A') (A") (A') (A') (A') (A') (A') (A') (A') (A')
                 (A') (A') (A') (A') (A')
  The electronic state is 1-A'.
 Alpha  occ. eigenvalues --  -15.64094 -15.57593 -11.25535 -11.23067 -11.19991
 Alpha  occ. eigenvalues --   -1.48866  -1.14968  -1.10312  -0.87960  -0.84512
 Alpha  occ. eigenvalues --   -0.78358  -0.66584  -0.66567  -0.61651  -0.57994
 Alpha  occ. eigenvalues --   -0.43830  -0.39010  -0.35339
 Alpha virt. eigenvalues --    0.18277   0.22543   0.23895   0.27869   0.29096
 Alpha virt. eigenvalues --    0.33117   0.34916   0.41515   0.42751   0.46674
 Alpha virt. eigenvalues --    0.50611   0.53199   0.56778   0.58344   0.61804
 Alpha virt. eigenvalues --    0.62143   0.63494   0.71941   0.75272   0.75395
 Alpha virt. eigenvalues --    0.84713   0.85026   0.97265   0.99683   1.08708
 Alpha virt. eigenvalues --    1.11291   1.15553   1.22516   1.30106   1.40938
 Alpha virt. eigenvalues --    1.54609   1.56865   1.62423   1.84020   1.90827
          Condensed to atoms (all electrons):
              1          2          3          4          5          6
  1  H    0.396675   0.361584  -0.000660  -0.015363  -0.000024   0.005669
  2  C    0.361584   5.329434  -0.028681   0.627287   0.004802  -0.147456
  3  H   -0.000660  -0.028681   0.401629   0.376126  -0.000384  -0.016085
  4  C   -0.015363   0.627287   0.376126   5.096162  -0.037540   0.503421
  5  H   -0.000024   0.004802  -0.000384  -0.037540   0.402758   0.382035
  6  C    0.005669  -0.147456  -0.016085   0.503421   0.382035   5.108473
  7  N    0.003499  -0.202347   0.006434  -0.088500  -0.022610   0.680684
  8  H    0.002190  -0.079541   0.000091   0.006732   0.000020   0.002068
  9  N   -0.019953   0.361964   0.007342  -0.142342   0.007807  -0.246945
              7          8          9
  1  H    0.003499   0.002190  -0.019953
  2  C   -0.202347  -0.079541   0.361964
  3  H    0.006434   0.000091   0.007342
  4  C   -0.088500   0.006732  -0.142342
  5  H   -0.022610   0.000020   0.007807
  6  C    0.680684   0.002068  -0.246945
  7  N    6.495913  -0.042491   0.277046
  8  H   -0.042491   0.397030   0.322250
  9  N    0.277046   0.322250   6.675666
 Total atomic charges:
              1
  1  H    0.266383
  2  C   -0.227046
  3  H    0.254188
  4  C   -0.325982
  5  H    0.263136
  6  C   -0.271865
  7  N   -0.107628
  8  H    0.391650
  9  N   -0.242837
 Sum of Mulliken charges=   0.00000
 Atomic charges with hydrogens summed into heavy atoms:
              1
  1  H    0.000000
  2  C    0.039337
  3  H    0.000000
  4  C   -0.071794
  5  H    0.000000
  6  C   -0.008729
  7  N   -0.107628
  8  H    0.000000
  9  N    0.148814
 Sum of Mulliken charges=   0.00000
 Electronic spatial extent (au):  <R**2>=   260.4931
 Charge=     0.0000 electrons
 Dipole moment (Debye):
    X=     2.5078    Y=     0.9129    Z=     0.0000  Tot=     2.6688
 Quadrupole moment (Debye-Ang):
   XX=   -31.0102   YY=   -22.2295   ZZ=   -31.6835
   XY=     3.0161   XZ=     0.0000   YZ=     0.0000
 Octapole moment (Debye-Ang**2):
  XXX=    10.3776  YYY=    10.9298  ZZZ=     0.0000  XYY=     0.7329
  XXY=    -2.7976  XXZ=     0.0000  XZZ=    -0.8850  YZZ=     2.2500
  YYZ=     0.0000  XYZ=     0.0000
 Hexadecapole moment (Debye-Ang**3):
 XXXX=  -153.9249 YYYY=  -118.8754 ZZZZ=   -34.0345 XXXY=     8.7989
 XXXZ=     0.0000 YYYX=     0.4419 YYYZ=     0.0000 ZZZX=     0.0000
 ZZZY=     0.0000 XXYY=   -46.8061 XXZZ=   -34.4744 YYZZ=   -33.9650
 XXYZ=     0.0000 YYXZ=     0.0000 ZZXY=    -0.0243
 N-N= 1.737391879471D+02 E-N=-8.739280706917D+02  KE= 2.268640659211D+02
 Symmetry A'   KE= 2.187595184228D+02
 Symmetry A"   KE= 8.104547498267D+00
   2 Symmetry operations used in ECPInt.
 ECPInt:  NShTT=     561 NPrTT=    4338 LenC2=     562 LenP2D=    3506.
 LDataN:  DoStor=F MaxTD1= 3 Len=   28
 LDataN:  DoStor=T MaxTD1= 3 Len=   28
 ***** Axes restored to original set *****
 -------------------------------------------------------------------
 Center     Atomic                   Forces (Hartrees/Bohr)
 Number     Number              X              Y              Z
 -------------------------------------------------------------------
    1          1          -0.068508359    0.000000000   -0.033365064
    2          6          -0.028914322    0.000000000   -0.067864109
    3          1           0.019444941    0.000000000   -0.073039277
    4          6          -0.017655447    0.000000000   -0.066002869
    5          1           0.072895737    0.000000000    0.012104157
    6          6           0.033742198    0.000000000    0.032915338
    7          7           0.106432855    0.000000000    0.139047454
    8          1          -0.043772038    0.000000000    0.050978371
    9          7          -0.073665564    0.000000000    0.005225998
 -------------------------------------------------------------------
 Cartesian Forces:  Max     0.139047454 RMS     0.050896499

 GradGradGradGradGradGradGradGradGradGradGradGradGradGradGradGradGradGrad
 Berny optimization.
 Internal  Forces:  Max     0.145471100 RMS     0.049322795
 Search for a local minimum.
 Step number   1 out of a maximum of  48
 All quantities printed in internal units (Hartrees-Bohrs-Radians)
 Second derivative matrix not updated -- first step.
     Eigenvalues ---    0.03204   0.03245   0.03263   0.03273   0.03342
     Eigenvalues ---    0.03375   0.16000   0.16000   0.16000   0.16000
     Eigenvalues ---    0.22000   0.22938   0.49374   0.49681   0.49740
     Eigenvalues ---    0.56490   0.56686   0.60708   0.68179   0.73042
     Eigenvalues ---    0.827791000.000001000.000001000.000001000.00000
     Eigenvalues --- 1000.000001000.000001000.000001000.000001000.00000
     Eigenvalues --- 1000.000001000.000001000.000001000.000001000.00000
     Eigenvalues --- 1000.000001000.000001000.00000
 RFO step:  Lambda=-1.20677645D-01.
 Linear search not attempted -- first point.
 Maximum step size (   0.300) exceeded in Quadratic search.
    -- Step size scaled by   0.732
 Iteration  1 RMS(Cart)=  0.06418621 RMS(Int)=  0.00068702
 Iteration  2 RMS(Cart)=  0.00086068 RMS(Int)=  0.00002828
 Iteration  3 RMS(Cart)=  0.00000051 RMS(Int)=  0.00002828
 Variable       Old X    -DE/DX   Delta X   Delta X   Delta X     New X
                                 (Linear)    (Quad)   (Total)
    R1        1.86889   0.07561   0.00000   0.08967   0.08967   1.95855
    R2        2.49307   0.08565   0.00000   0.08251   0.08255   2.57562
    R3        2.40839   0.12099   0.00000   0.10399   0.10396   2.51236
    R4        1.86829   0.07555   0.00000   0.08951   0.08951   1.95780
    R5        2.47696   0.14547   0.00000   0.13610   0.13615   2.61311
    R6        1.87202   0.07286   0.00000   0.08684   0.08684   1.95886
    R7        2.41851   0.07500   0.00000   0.06445   0.06444   2.48295
    R8        2.34237   0.14368   0.00000   0.10858   0.10853   2.45089
    R9        1.77084   0.06590   0.00000   0.06631   0.06631   1.83715
    A1        2.20252   0.01354   0.00000   0.03355   0.03354   2.23606
    A2        2.21295  -0.00424   0.00000  -0.01283  -0.01284   2.20011
    A3        1.86771  -0.00930   0.00000  -0.02071  -0.02070   1.84701
    A4        2.22327  -0.00369   0.00000  -0.00303  -0.00307   2.22020
    A5        1.83976   0.00293   0.00000  -0.00557  -0.00549   1.83427
    A6        2.22016   0.00077   0.00000   0.00860   0.00856   2.22872
    A7        2.19731   0.00376   0.00000   0.01725   0.01723   2.21454
    A8        1.89479   0.01557   0.00000   0.02575   0.02578   1.92058
    A9        2.19108  -0.01933   0.00000  -0.04300  -0.04301   2.14806
   A10        1.88850  -0.02227   0.00000  -0.03679  -0.03686   1.85164
   A11        1.93402   0.01307   0.00000   0.03733   0.03727   1.97128
   A12        2.17185   0.00508   0.00000   0.01164   0.01167   2.18351
   A13        2.17732  -0.01815   0.00000  -0.04896  -0.04893   2.12839
    D1        0.00000   0.00000   0.00000   0.00000   0.00000   0.00000
    D2        3.14159   0.00000   0.00000   0.00000   0.00000   3.14159
    D3        3.14159   0.00000   0.00000   0.00000   0.00000   3.14159
    D4        0.00000   0.00000   0.00000   0.00000   0.00000   0.00000
    D5        3.14159   0.00000   0.00000   0.00000   0.00000   3.14159
    D6        0.00000   0.00000   0.00000   0.00000   0.00000   0.00000
    D7        0.00000   0.00000   0.00000   0.00000   0.00000   0.00000
    D8        3.14159   0.00000   0.00000   0.00000   0.00000   3.14159
    D9        3.14159   0.00000   0.00000   0.00000   0.00000   3.14159
   D10        0.00000   0.00000   0.00000   0.00000   0.00000   0.00000
   D11        0.00000   0.00000   0.00000   0.00000   0.00000   0.00000
   D12        3.14159   0.00000   0.00000   0.00000   0.00000   3.14159
   D13        0.00000   0.00000   0.00000   0.00000   0.00000   0.00000
   D14        3.14159   0.00000   0.00000   0.00000   0.00000   3.14159
   D15        0.00000   0.00000   0.00000   0.00000   0.00000   0.00000
   D16        3.14159   0.00000   0.00000   0.00000   0.00000   3.14159
         Item               Value     Threshold  Converged?
 Maximum Force            0.145471     0.000450     NO 
 RMS     Force            0.049323     0.000300     NO 
 Maximum Displacement     0.177636     0.001800     NO 
 RMS     Displacement     0.064155     0.001200     NO 
 Predicted change in Energy=-2.692724D-02
 GradGradGradGradGradGradGradGradGradGradGradGradGradGradGradGradGradGrad

                          Input orientation:                          
 ---------------------------------------------------------------------
 Center     Atomic     Atomic              Coordinates (Angstroms)
 Number     Number      Type              X           Y           Z
 ---------------------------------------------------------------------
    1          1             0       -1.808324    0.000000   -1.178894
    2          6             0       -0.924795    0.000000   -0.637095
    3          1             0        0.653139    0.000000   -2.103005
    4          6             0        0.352965    0.000000   -1.111421
    5          1             0        2.191465    0.000000    0.040607
    6          6             0        1.155202    0.000000    0.014874
    7          7             0        0.411036    0.000000    1.097742
    8          1             0       -1.568151    0.000000    1.308505
    9          7             0       -0.819569    0.000000    0.688217
 ---------------------------------------------------------------------
                    Distance matrix (angstroms):
                    1          2          3          4          5
     1  H    0.000000
     2  C    1.036421   0.000000
     3  H    2.629216   2.153780   0.000000
     4  C    2.162342   1.362958   1.036023   0.000000
     5  H    4.181566   3.189100   2.638469   2.169620   0.000000
     6  C    3.194929   2.179783   2.176575   1.382796   1.036582
     7  N    3.179406   2.189543   3.209890   2.209925   2.070619
     8  H    2.498966   2.049210   4.070937   3.089777   3.967654
     9  N    2.112756   1.329482   3.155913   2.147913   3.079890
                    6          7          8          9
     6  C    0.000000
     7  N    1.313920   0.000000
     8  H    3.014985   1.990377   0.000000
     9  N    2.086411   1.296957   0.972179   0.000000
 Stoichiometry    C3H4N2
 Framework group  CS[SG(C3H4N2)]
 Deg. of freedom   15
 Full point group                 CS      NOp   2
 Largest Abelian subgroup         CS      NOp   2
 Largest concise Abelian subgroup C1      NOp   1
                         Standard orientation:                         
 ---------------------------------------------------------------------
 Center     Atomic     Atomic              Coordinates (Angstroms)
 Number     Number      Type              X           Y           Z
 ---------------------------------------------------------------------
    1          1             0        2.067936    0.636672    0.000000
    2          6             0        1.086550    0.303429    0.000000
    3          1             0        1.205480   -1.847064    0.000000
    4          6             0        0.634702   -0.982451    0.000000
    5          1             0       -1.426361   -1.660148    0.000000
    6          6             0       -0.744264   -0.879605    0.000000
    7          7             0       -1.101480    0.384825    0.000000
    8          1             0        0.001377    2.041722    0.000000
    9          7             0        0.000000    1.069544    0.000000
 ---------------------------------------------------------------------
 Rotational constants (GHZ):     10.0298272      9.9278817      4.9892970
 Isotopes: H-1,C-12,H-1,C-12,H-1,C-12,N-14,H-1,N-14
 Standard basis: LANL2DZ (5D, 7F)
 There are    43 symmetry adapted basis functions of A'  symmetry.
 There are    10 symmetry adapted basis functions of A"  symmetry.
 Crude estimate of integral set expansion from redundant integrals=1.000.
 Integral buffers will be    262144 words long.
 Raffenetti 1 integral format.
 Two-electron integral symmetry is turned on.
    53 basis functions      141 primitive gaussians
    18 alpha electrons       18 beta electrons
       nuclear repulsion energy       166.9146582910 Hartrees.
 One-electron integrals computed using PRISM.
   1 Symmetry operations used in ECPInt.
 ECPInt:  NShTT=     561 NPrTT=    4338 LenC2=     562 LenP2D=    3468.
 LDataN:  DoStor=F MaxTD1= 2 Len=   12
 LDataN:  DoStor=T MaxTD1= 2 Len=   12
 NBasis=    53 RedAO= T  NBF=    43    10
 NBsUse=    53 1.00D-04 NBFU=    43    10
 Initial guess read from the read-write file:
 Initial guess orbital symmetries:
       Occupied  (A') (A') (A') (A') (A') (A') (A') (A') (A') (A')
                 (A') (A") (A') (A') (A') (A') (A") (A")
       Virtual   (A") (A') (A") (A') (A') (A') (A') (A') (A') (A")
                 (A') (A") (A') (A') (A") (A') (A') (A') (A') (A")
                 (A') (A") (A') (A') (A') (A') (A') (A') (A') (A')
                 (A') (A') (A') (A') (A')
 Requested convergence on RMS density matrix=1.00D-08 within  64 cycles.
 Requested convergence on MAX density matrix=1.00D-06.
 Keep R1 integrals in memory in canonical form, NReq=     1438540.
 SCF Done:  E(RHF) =  -224.711821049     A.U. after   14 cycles
             Convg  =    0.2562D-08             -V/T =  1.9957
             S**2   =   0.0000
   2 Symmetry operations used in ECPInt.
 ECPInt:  NShTT=     561 NPrTT=    4338 LenC2=     562 LenP2D=    3468.
 LDataN:  DoStor=F MaxTD1= 3 Len=   28
 LDataN:  DoStor=T MaxTD1= 3 Len=   28
 ***** Axes restored to original set *****
 -------------------------------------------------------------------
 Center     Atomic                   Forces (Hartrees/Bohr)
 Number     Number              X              Y              Z
 -------------------------------------------------------------------
    1          1          -0.024717589    0.000000000   -0.006818149
    2          6           0.007307082    0.000000000   -0.023840353
    3          1           0.007156418    0.000000000   -0.024115893
    4          6          -0.008850648    0.000000000   -0.015694071
    5          1           0.024266095    0.000000000    0.006696621
    6          6           0.006157194    0.000000000    0.007198135
    7          7           0.047329742    0.000000000    0.040084166
    8          1          -0.011337547    0.000000000    0.018876170
    9          7          -0.047310747    0.000000000   -0.002386626
 -------------------------------------------------------------------
 Cartesian Forces:  Max     0.047329742 RMS     0.018792966

 GradGradGradGradGradGradGradGradGradGradGradGradGradGradGradGradGradGrad
 Berny optimization.
 Internal  Forces:  Max     0.056246341 RMS     0.016064763
 Search for a local minimum.
 Step number   2 out of a maximum of  48
 All quantities printed in internal units (Hartrees-Bohrs-Radians)
 Update second derivatives using information from points  1  2
 Trust test= 2.10D+00 RLast= 3.00D-01 DXMaxT set to 4.24D-01
     Eigenvalues ---    0.03204   0.03247   0.03260   0.03273   0.03342
     Eigenvalues ---    0.03374   0.15912   0.16000   0.16000   0.16035
     Eigenvalues ---    0.22026   0.23561   0.49451   0.49711   0.50657
     Eigenvalues ---    0.57237   0.58719   0.61480   0.68385   0.77334
     Eigenvalues ---    0.804181000.000001000.000001000.000001000.00000
     Eigenvalues --- 1000.000001000.000001000.000001000.000001000.00000
     Eigenvalues --- 1000.000001000.000001000.000001000.000001000.00000
     Eigenvalues --- 1000.000001000.000001000.00000
 RFO step:  Lambda=-3.11740105D-03.
 Quartic linear search produced a step of  0.59378.
 Iteration  1 RMS(Cart)=  0.04655636 RMS(Int)=  0.00100118
 Iteration  2 RMS(Cart)=  0.00111875 RMS(Int)=  0.00002333
 Iteration  3 RMS(Cart)=  0.00000128 RMS(Int)=  0.00002331
 Iteration  4 RMS(Cart)=  0.00000000 RMS(Int)=  0.00002331
 Variable       Old X    -DE/DX   Delta X   Delta X   Delta X     New X
                                 (Linear)    (Quad)   (Total)
    R1        1.95855   0.02464   0.05324   0.00693   0.06017   2.01873
    R2        2.57562   0.02389   0.04902  -0.00829   0.04074   2.61636
    R3        2.51236   0.03574   0.06173  -0.00360   0.05817   2.57053
    R4        1.95780   0.02515   0.05315   0.00862   0.06177   2.01957
    R5        2.61311   0.04236   0.08084  -0.00935   0.07146   2.68456
    R6        1.95886   0.02442   0.05156   0.00899   0.06055   2.01941
    R7        2.48295   0.01971   0.03826  -0.00825   0.02998   2.51293
    R8        2.45089   0.05625   0.06444   0.02058   0.08504   2.53593
    R9        1.83715   0.02077   0.03938   0.00147   0.04085   1.87800
    A1        2.23606   0.00607   0.01991   0.03487   0.05476   2.29081
    A2        2.20011  -0.00785  -0.00763  -0.06277  -0.07042   2.12969
    A3        1.84701   0.00178  -0.01229   0.02790   0.01567   1.86268
    A4        2.22020  -0.00108  -0.00182   0.00709   0.00527   2.22547
    A5        1.83427   0.00190  -0.00326  -0.00718  -0.01046   1.82380
    A6        2.22872  -0.00081   0.00508   0.00010   0.00519   2.23391
    A7        2.21454   0.00361   0.01023   0.03451   0.04477   2.25931
    A8        1.92058   0.00471   0.01531  -0.00229   0.01296   1.93354
    A9        2.14806  -0.00832  -0.02554  -0.03222  -0.05773   2.09034
   A10        1.85164  -0.00450  -0.02189   0.01910  -0.00281   1.84883
   A11        1.97128  -0.00389   0.02213  -0.03754  -0.01536   1.95593
   A12        2.18351   0.00865   0.00693   0.05921   0.06611   2.24962
   A13        2.12839  -0.00476  -0.02906  -0.02167  -0.05075   2.07763
    D1        0.00000   0.00000   0.00000   0.00000   0.00000   0.00000
    D2        3.14159   0.00000   0.00000   0.00000   0.00000   3.14159
    D3        3.14159   0.00000   0.00000   0.00000   0.00000   3.14159
    D4        0.00000   0.00000   0.00000   0.00000   0.00000   0.00000
    D5        3.14159   0.00000   0.00000   0.00000   0.00000   3.14159
    D6        0.00000   0.00000   0.00000   0.00000   0.00000   0.00000
    D7        0.00000   0.00000   0.00000   0.00000   0.00000   0.00000
    D8        3.14159   0.00000   0.00000   0.00000   0.00000   3.14159
    D9        3.14159   0.00000   0.00000   0.00000   0.00000   3.14159
   D10        0.00000   0.00000   0.00000   0.00000   0.00000   0.00000
   D11        0.00000   0.00000   0.00000   0.00000   0.00000   0.00000
   D12        3.14159   0.00000   0.00000   0.00000   0.00000   3.14159
   D13        0.00000   0.00000   0.00000   0.00000   0.00000   0.00000
   D14        3.14159   0.00000   0.00000   0.00000   0.00000   3.14159
   D15        0.00000   0.00000   0.00000   0.00000   0.00000   0.00000
   D16        3.14159   0.00000   0.00000   0.00000   0.00000   3.14159
         Item               Value     Threshold  Converged?
 Maximum Force            0.056246     0.000450     NO 
 RMS     Force            0.016065     0.000300     NO 
 Maximum Displacement     0.129119     0.001800     NO 
 RMS     Displacement     0.046484     0.001200     NO 
 Predicted change in Energy=-1.218212D-02
 GradGradGradGradGradGradGradGradGradGradGradGradGradGradGradGradGradGrad

                          Input orientation:                          
 ---------------------------------------------------------------------
 Center     Atomic     Atomic              Coordinates (Angstroms)
 Number     Number      Type              X           Y           Z
 ---------------------------------------------------------------------
    1          1             0       -1.878473    0.000000   -1.178691
    2          6             0       -0.938204    0.000000   -0.671660
    3          1             0        0.673624    0.000000   -2.175973
    4          6             0        0.359389    0.000000   -1.154505
    5          1             0        2.237594    0.000000    0.095142
    6          6             0        1.172324    0.000000    0.010514
    7          7             0        0.422773    0.000000    1.108921
    8          1             0       -1.582485    0.000000    1.358223
    9          7             0       -0.850732    0.000000    0.685791
 ---------------------------------------------------------------------
                    Distance matrix (angstroms):
                    1          2          3          4          5
     1  H    0.000000
     2  C    1.068264   0.000000
     3  H    2.740032   2.204756   0.000000
     4  C    2.237994   1.384518   1.068709   0.000000
     5  H    4.308673   3.267060   2.757529   2.255941   0.000000
     6  C    3.274382   2.218038   2.242638   1.420610   1.068626
     7  N    3.244827   2.241143   3.294458   2.264313   2.078779
     8  H    2.554123   2.129676   4.192919   3.175638   4.023478
     9  N    2.128978   1.360266   3.242430   2.202517   3.144300
                    6          7          8          9
     6  C    0.000000
     7  N    1.329784   0.000000
     8  H    3.066805   2.020695   0.000000
     9  N    2.132781   1.341958   0.993794   0.000000
 Stoichiometry    C3H4N2
 Framework group  CS[SG(C3H4N2)]
 Deg. of freedom   15
 Full point group                 CS      NOp   2
 Largest Abelian subgroup         CS      NOp   2
 Largest concise Abelian subgroup C1      NOp   1
                         Standard orientation:                         
 ---------------------------------------------------------------------
 Center     Atomic     Atomic              Coordinates (Angstroms)
 Number     Number      Type              X           Y           Z
 ---------------------------------------------------------------------
    1          1             0        2.094957    0.718047    0.000000
    2          6             0        1.108322    0.308489    0.000000
    3          1             0        1.258392   -1.891154    0.000000
    4          6             0        0.664191   -1.002860    0.000000
    5          1             0       -1.490376   -1.671522    0.000000
    6          6             0       -0.752578   -0.898467    0.000000
    7          7             0       -1.131801    0.376098    0.000000
    8          1             0       -0.059976    2.089107    0.000000
    9          7             0        0.000000    1.097124    0.000000
 ---------------------------------------------------------------------
 Rotational constants (GHZ):      9.5707914      9.4921304      4.7656493
 Isotopes: H-1,C-12,H-1,C-12,H-1,C-12,N-14,H-1,N-14
 Standard basis: LANL2DZ (5D, 7F)
 There are    43 symmetry adapted basis functions of A'  symmetry.
 There are    10 symmetry adapted basis functions of A"  symmetry.
 Crude estimate of integral set expansion from redundant integrals=1.000.
 Integral buffers will be    262144 words long.
 Raffenetti 1 integral format.
 Two-electron integral symmetry is turned on.
    53 basis functions      141 primitive gaussians
    18 alpha electrons       18 beta electrons
       nuclear repulsion energy       163.0830420592 Hartrees.
 One-electron integrals computed using PRISM.
   1 Symmetry operations used in ECPInt.
 ECPInt:  NShTT=     561 NPrTT=    4338 LenC2=     562 LenP2D=    3448.
 LDataN:  DoStor=F MaxTD1= 2 Len=   12
 LDataN:  DoStor=T MaxTD1= 2 Len=   12
 NBasis=    53 RedAO= T  NBF=    43    10
 NBsUse=    53 1.00D-04 NBFU=    43    10
 Initial guess read from the read-write file:
 Initial guess orbital symmetries:
       Occupied  (A') (A') (A') (A') (A') (A') (A') (A') (A') (A')
                 (A') (A') (A") (A') (A') (A') (A") (A")
       Virtual   (A") (A") (A') (A') (A') (A') (A') (A') (A') (A")
                 (A') (A") (A') (A') (A') (A") (A') (A') (A') (A")
                 (A') (A") (A') (A') (A') (A') (A') (A') (A') (A')
                 (A') (A') (A') (A') (A')
 Requested convergence on RMS density matrix=1.00D-08 within  64 cycles.
 Requested convergence on MAX density matrix=1.00D-06.
 Keep R1 integrals in memory in canonical form, NReq=     1438540.
 SCF Done:  E(RHF) =  -224.720947880     A.U. after   14 cycles
             Convg  =    0.1643D-08             -V/T =  1.9985
             S**2   =   0.0000
   2 Symmetry operations used in ECPInt.
 ECPInt:  NShTT=     561 NPrTT=    4338 LenC2=     562 LenP2D=    3448.
 LDataN:  DoStor=F MaxTD1= 3 Len=   28
 LDataN:  DoStor=T MaxTD1= 3 Len=   28
 ***** Axes restored to original set *****
 -------------------------------------------------------------------
 Center     Atomic                   Forces (Hartrees/Bohr)
 Number     Number              X              Y              Z
 -------------------------------------------------------------------
    1          1           0.002486838    0.000000000    0.000240456
    2          6           0.000901551    0.000000000   -0.005015284
    3          1          -0.001062793    0.000000000    0.003055297
    4          6          -0.007816677    0.000000000   -0.000696766
    5          1          -0.002759495    0.000000000   -0.001324841
    6          6          -0.000863535    0.000000000    0.008375864
    7          7           0.015913197    0.000000000    0.001767307
    8          1           0.001340177    0.000000000   -0.003148323
    9          7          -0.008139264    0.000000000   -0.003253710
 -------------------------------------------------------------------
 Cartesian Forces:  Max     0.015913197 RMS     0.004428128

 GradGradGradGradGradGradGradGradGradGradGradGradGradGradGradGradGradGrad
 Berny optimization.
 Internal  Forces:  Max     0.011283190 RMS     0.003024372
 Search for a local minimum.
 Step number   3 out of a maximum of  48
 All quantities printed in internal units (Hartrees-Bohrs-Radians)
 Update second derivatives using information from points  1  2  3
 Trust test= 7.49D-01 RLast= 2.28D-01 DXMaxT set to 4.24D-01
     Eigenvalues ---    0.03203   0.03247   0.03251   0.03273   0.03341
     Eigenvalues ---    0.03372   0.15563   0.16000   0.16004   0.16019
     Eigenvalues ---    0.22182   0.23834   0.47598   0.49493   0.49726
     Eigenvalues ---    0.57128   0.59170   0.60623   0.63807   0.71708
     Eigenvalues ---    0.812941000.000001000.000001000.000001000.00000
     Eigenvalues --- 1000.000001000.000001000.000001000.000001000.00000
     Eigenvalues --- 1000.000001000.000001000.000001000.000001000.00000
     Eigenvalues --- 1000.000001000.000001000.00000
 RFO step:  Lambda=-6.21274386D-04.
 Quartic linear search produced a step of -0.02430.
 Iteration  1 RMS(Cart)=  0.00765799 RMS(Int)=  0.00003338
 Iteration  2 RMS(Cart)=  0.00004043 RMS(Int)=  0.00001120
 Iteration  3 RMS(Cart)=  0.00000000 RMS(Int)=  0.00001120
 Variable       Old X    -DE/DX   Delta X   Delta X   Delta X     New X
                                 (Linear)    (Quad)   (Total)
    R1        2.01873  -0.00230  -0.00146  -0.00169  -0.00315   2.01557
    R2        2.61636  -0.00794  -0.00099  -0.01144  -0.01244   2.60392
    R3        2.57053  -0.00029  -0.00141   0.00307   0.00164   2.57217
    R4        2.01957  -0.00323  -0.00150  -0.00344  -0.00494   2.01462
    R5        2.68456   0.00374  -0.00174   0.00802   0.00630   2.69086
    R6        2.01941  -0.00286  -0.00147  -0.00280  -0.00427   2.01514
    R7        2.51293  -0.00680  -0.00073  -0.00744  -0.00815   2.50478
    R8        2.53593   0.01128  -0.00207   0.01776   0.01569   2.55162
    R9        1.87800  -0.00312  -0.00099  -0.00305  -0.00404   1.87396
    A1        2.29081   0.00004  -0.00133   0.00150   0.00018   2.29099
    A2        2.12969   0.00199   0.00171   0.00832   0.01004   2.13974
    A3        1.86268  -0.00203  -0.00038  -0.00982  -0.01022   1.85246
    A4        2.22547  -0.00171  -0.00013  -0.00432  -0.00445   2.22102
    A5        1.82380   0.00319   0.00025   0.00722   0.00748   1.83129
    A6        2.23391  -0.00147  -0.00013  -0.00291  -0.00303   2.23088
    A7        2.25931  -0.00205  -0.00109  -0.00756  -0.00866   2.25065
    A8        1.93354   0.00187  -0.00031   0.00567   0.00538   1.93892
    A9        2.09034   0.00018   0.00140   0.00189   0.00328   2.09361
   A10        1.84883  -0.00487   0.00007  -0.01478  -0.01469   1.83414
   A11        1.95593   0.00184   0.00037   0.01170   0.01205   1.96798
   A12        2.24962  -0.00224  -0.00161  -0.01157  -0.01317   2.23646
   A13        2.07763   0.00041   0.00123  -0.00013   0.00112   2.07875
    D1        0.00000   0.00000   0.00000   0.00000   0.00000   0.00000
    D2        3.14159   0.00000   0.00000   0.00000   0.00000   3.14159
    D3        3.14159   0.00000   0.00000   0.00000   0.00000   3.14159
    D4        0.00000   0.00000   0.00000   0.00000   0.00000   0.00000
    D5        3.14159   0.00000   0.00000   0.00000   0.00000   3.14159
    D6        0.00000   0.00000   0.00000   0.00000   0.00000   0.00000
    D7        0.00000   0.00000   0.00000   0.00000   0.00000   0.00000
    D8        3.14159   0.00000   0.00000   0.00000   0.00000   3.14159
    D9        3.14159   0.00000   0.00000   0.00000   0.00000   3.14159
   D10        0.00000   0.00000   0.00000   0.00000   0.00000   0.00000
   D11        0.00000   0.00000   0.00000   0.00000   0.00000   0.00000
   D12        3.14159   0.00000   0.00000   0.00000   0.00000   3.14159
   D13        0.00000   0.00000   0.00000   0.00000   0.00000   0.00000
   D14        3.14159   0.00000   0.00000   0.00000   0.00000   3.14159
   D15        0.00000   0.00000   0.00000   0.00000   0.00000   0.00000
   D16        3.14159   0.00000   0.00000   0.00000   0.00000   3.14159
         Item               Value     Threshold  Converged?
 Maximum Force            0.011283     0.000450     NO 
 RMS     Force            0.003024     0.000300     NO 
 Maximum Displacement     0.019193     0.001800     NO 
 RMS     Displacement     0.007662     0.001200     NO 
 Predicted change in Energy=-3.159337D-04
 GradGradGradGradGradGradGradGradGradGradGradGradGradGradGradGradGradGrad

                          Input orientation:                          
 ---------------------------------------------------------------------
 Center     Atomic     Atomic              Coordinates (Angstroms)
 Number     Number      Type              X           Y           Z
 ---------------------------------------------------------------------
    1          1             0       -1.877317    0.000000   -1.178834
    2          6             0       -0.940881    0.000000   -0.668235
    3          1             0        0.666701    0.000000   -2.161392
    4          6             0        0.352849    0.000000   -1.142543
    5          1             0        2.234693    0.000000    0.095455
    6          6             0        1.170791    0.000000    0.023041
    7          7             0        0.432496    0.000000    1.123855
    8          1             0       -1.581396    0.000000    1.354880
    9          7             0       -0.846026    0.000000    0.689590
 ---------------------------------------------------------------------
                    Distance matrix (angstroms):
                    1          2          3          4          5
     1  H    0.000000
     2  C    1.066595   0.000000
     3  H    2.727168   2.194046   0.000000
     4  C    2.230462   1.377936   1.066094   0.000000
     5  H    4.304932   3.266113   2.748083   2.252549   0.000000
     6  C    3.276502   2.221941   2.241842   1.423944   1.066364
     7  N    3.261535   2.257819   3.293585   2.267797   2.074976
     8  H    2.550937   2.122087   4.173501   3.158865   4.018544
     9  N    2.134144   1.361134   3.227451   2.189524   3.137488
                    6          7          8          9
     6  C    0.000000
     7  N    1.325470   0.000000
     8  H    3.057504   2.027100   0.000000
     9  N    2.124109   1.350261   0.991655   0.000000
 Stoichiometry    C3H4N2
 Framework group  CS[SG(C3H4N2)]
 Deg. of freedom   15
 Full point group                 CS      NOp   2
 Largest Abelian subgroup         CS      NOp   2
 Largest concise Abelian subgroup C1      NOp   1
                         Standard orientation:                         
 ---------------------------------------------------------------------
 Center     Atomic     Atomic              Coordinates (Angstroms)
 Number     Number      Type              X           Y           Z
 ---------------------------------------------------------------------
    1          1             0        2.100695    0.714698    0.000000
    2          6             0        1.114182    0.309215    0.000000
    3          1             0        1.260828   -1.879925    0.000000
    4          6             0        0.667385   -0.994272    0.000000
    5          1             0       -1.479649   -1.675611    0.000000
    6          6             0       -0.753099   -0.895062    0.000000
    7          7             0       -1.142768    0.371835    0.000000
    8          1             0       -0.053307    2.081282    0.000000
    9          7             0        0.000000    1.091060    0.000000
 ---------------------------------------------------------------------
 Rotational constants (GHZ):      9.6318636      9.4343211      4.7660345
 Isotopes: H-1,C-12,H-1,C-12,H-1,C-12,N-14,H-1,N-14
 Standard basis: LANL2DZ (5D, 7F)
 There are    43 symmetry adapted basis functions of A'  symmetry.
 There are    10 symmetry adapted basis functions of A"  symmetry.
 Crude estimate of integral set expansion from redundant integrals=1.000.
 Integral buffers will be    262144 words long.
 Raffenetti 1 integral format.
 Two-electron integral symmetry is turned on.
    53 basis functions      141 primitive gaussians
    18 alpha electrons       18 beta electrons
       nuclear repulsion energy       163.0939821386 Hartrees.
 One-electron integrals computed using PRISM.
   1 Symmetry operations used in ECPInt.
 ECPInt:  NShTT=     561 NPrTT=    4338 LenC2=     562 LenP2D=    3447.
 LDataN:  DoStor=F MaxTD1= 2 Len=   12
 LDataN:  DoStor=T MaxTD1= 2 Len=   12
 NBasis=    53 RedAO= T  NBF=    43    10
 NBsUse=    53 1.00D-04 NBFU=    43    10
 Initial guess read from the read-write file:
 Initial guess orbital symmetries:
       Occupied  (A') (A') (A') (A') (A') (A') (A') (A') (A') (A')
                 (A') (A') (A") (A') (A') (A') (A") (A")
       Virtual   (A") (A") (A') (A') (A') (A') (A') (A') (A') (A")
                 (A') (A') (A") (A') (A') (A") (A') (A') (A') (A")
                 (A') (A") (A') (A') (A') (A') (A') (A') (A') (A')
                 (A') (A') (A') (A') (A')
 Requested convergence on RMS density matrix=1.00D-08 within  64 cycles.
 Requested convergence on MAX density matrix=1.00D-06.
 Keep R1 integrals in memory in canonical form, NReq=     1438540.
 SCF Done:  E(RHF) =  -224.721248931     A.U. after   12 cycles
             Convg  =    0.6113D-08             -V/T =  1.9984
             S**2   =   0.0000
   2 Symmetry operations used in ECPInt.
 ECPInt:  NShTT=     561 NPrTT=    4338 LenC2=     562 LenP2D=    3447.
 LDataN:  DoStor=F MaxTD1= 3 Len=   28
 LDataN:  DoStor=T MaxTD1= 3 Len=   28
 ***** Axes restored to original set *****
 -------------------------------------------------------------------
 Center     Atomic                   Forces (Hartrees/Bohr)
 Number     Number              X              Y              Z
 -------------------------------------------------------------------
    1          1           0.001039249    0.000000000    0.000612076
    2          6           0.003995436    0.000000000    0.001192612
    3          1           0.000214724    0.000000000    0.001094952
    4          6          -0.001330622    0.000000000   -0.002608331
    5          1          -0.000798921    0.000000000   -0.000940641
    6          6           0.001135016    0.000000000    0.002866741
    7          7           0.005224705    0.000000000   -0.003495249
    8          1           0.000372975    0.000000000   -0.000671730
    9          7          -0.009852562    0.000000000    0.001949570
 -------------------------------------------------------------------
 Cartesian Forces:  Max     0.009852562 RMS     0.002586772

 GradGradGradGradGradGradGradGradGradGradGradGradGradGradGradGradGradGrad
 Berny optimization.
 Internal  Forces:  Max     0.004795823 RMS     0.001370606
 Search for a local minimum.
 Step number   4 out of a maximum of  48
 All quantities printed in internal units (Hartrees-Bohrs-Radians)
 Update second derivatives using information from points  1  2  3  4
 Trust test= 9.53D-01 RLast= 3.90D-02 DXMaxT set to 4.24D-01
     Eigenvalues ---    0.03203   0.03248   0.03252   0.03273   0.03342
     Eigenvalues ---    0.03372   0.14699   0.15941   0.16003   0.16034
     Eigenvalues ---    0.22254   0.35518   0.47011   0.48360   0.49578
     Eigenvalues ---    0.49819   0.58707   0.59950   0.60860   0.73011
     Eigenvalues ---    0.758751000.000001000.000001000.000001000.00000
     Eigenvalues --- 1000.000001000.000001000.000001000.000001000.00000
     Eigenvalues --- 1000.000001000.000001000.000001000.000001000.00000
     Eigenvalues --- 1000.000001000.000001000.00000
 RFO step:  Lambda=-1.92197652D-04.
 Quartic linear search produced a step of -0.04335.
 Iteration  1 RMS(Cart)=  0.00427353 RMS(Int)=  0.00001438
 Iteration  2 RMS(Cart)=  0.00001400 RMS(Int)=  0.00000617
 Iteration  3 RMS(Cart)=  0.00000000 RMS(Int)=  0.00000617
 Variable       Old X    -DE/DX   Delta X   Delta X   Delta X     New X
                                 (Linear)    (Quad)   (Total)
    R1        2.01557  -0.00121   0.00014  -0.00247  -0.00234   2.01324
    R2        2.60392  -0.00053   0.00054  -0.00474  -0.00420   2.59972
    R3        2.57217  -0.00051  -0.00007   0.00128   0.00122   2.57339
    R4        2.01462  -0.00098   0.00021  -0.00269  -0.00248   2.01215
    R5        2.69086  -0.00005  -0.00027   0.00310   0.00281   2.69368
    R6        2.01514  -0.00086   0.00019  -0.00226  -0.00208   2.01306
    R7        2.50478  -0.00145   0.00035  -0.00401  -0.00367   2.50111
    R8        2.55162   0.00480  -0.00068   0.01221   0.01154   2.56316
    R9        1.87396  -0.00073   0.00018  -0.00189  -0.00171   1.87225
    A1        2.29099  -0.00132  -0.00001  -0.00509  -0.00511   2.28588
    A2        2.13974  -0.00140  -0.00044  -0.00230  -0.00274   2.13699
    A3        1.85246   0.00273   0.00044   0.00739   0.00785   1.86031
    A4        2.22102   0.00062   0.00019   0.00318   0.00337   2.22440
    A5        1.83129  -0.00018  -0.00032  -0.00077  -0.00111   1.83018
    A6        2.23088  -0.00044   0.00013  -0.00240  -0.00227   2.22861
    A7        2.25065  -0.00067   0.00038  -0.00676  -0.00638   2.24427
    A8        1.93892  -0.00045  -0.00023  -0.00066  -0.00091   1.93801
    A9        2.09361   0.00111  -0.00014   0.00742   0.00729   2.10090
   A10        1.83414   0.00194   0.00064   0.00412   0.00475   1.83889
   A11        1.96798  -0.00404  -0.00052  -0.01008  -0.01059   1.95739
   A12        2.23646   0.00179   0.00057   0.00142   0.00199   2.23845
   A13        2.07875   0.00225  -0.00005   0.00866   0.00860   2.08735
    D1        0.00000   0.00000   0.00000   0.00000   0.00000   0.00000
    D2        3.14159   0.00000   0.00000   0.00000   0.00000   3.14159
    D3        3.14159   0.00000   0.00000   0.00000   0.00000   3.14159
    D4        0.00000   0.00000   0.00000   0.00000   0.00000   0.00000
    D5        3.14159   0.00000   0.00000   0.00000   0.00000   3.14159
    D6        0.00000   0.00000   0.00000   0.00000   0.00000   0.00000
    D7        0.00000   0.00000   0.00000   0.00000   0.00000   0.00000
    D8        3.14159   0.00000   0.00000   0.00000   0.00000   3.14159
    D9        3.14159   0.00000   0.00000   0.00000   0.00000   3.14159
   D10        0.00000   0.00000   0.00000   0.00000   0.00000   0.00000
   D11        0.00000   0.00000   0.00000   0.00000   0.00000   0.00000
   D12        3.14159   0.00000   0.00000   0.00000   0.00000   3.14159
   D13        0.00000   0.00000   0.00000   0.00000   0.00000   0.00000
   D14        3.14159   0.00000   0.00000   0.00000   0.00000   3.14159
   D15        0.00000   0.00000   0.00000   0.00000   0.00000   0.00000
   D16        3.14159   0.00000   0.00000   0.00000   0.00000   3.14159
         Item               Value     Threshold  Converged?
 Maximum Force            0.004796     0.000450     NO 
 RMS     Force            0.001371     0.000300     NO 
 Maximum Displacement     0.013535     0.001800     NO 
 RMS     Displacement     0.004273     0.001200     NO 
 Predicted change in Energy=-9.668885D-05
 GradGradGradGradGradGradGradGradGradGradGradGradGradGradGradGradGradGrad

                          Input orientation:                          
 ---------------------------------------------------------------------
 Center     Atomic     Atomic              Coordinates (Angstroms)
 Number     Number      Type              X           Y           Z
 ---------------------------------------------------------------------
    1          1             0       -1.873366    0.000000   -1.181135
    2          6             0       -0.939581    0.000000   -0.668266
    3          1             0        0.665906    0.000000   -2.161633
    4          6             0        0.351091    0.000000   -1.144454
    5          1             0        2.234294    0.000000    0.086133
    6          6             0        1.170987    0.000000    0.021579
    7          7             0        0.433809    0.000000    1.120806
    8          1             0       -1.589796    0.000000    1.352606
    9          7             0       -0.852566    0.000000    0.690730
 ---------------------------------------------------------------------
                    Distance matrix (angstroms):
                    1          2          3          4          5
     1  H    0.000000
     2  C    1.065359   0.000000
     3  H    2.721999   2.192654   0.000000
     4  C    2.224760   1.375714   1.064783   0.000000
     5  H    4.298702   3.262300   2.740856   2.249622   0.000000
     6  C    3.273317   2.220446   2.240875   1.425433   1.065265
     7  N    3.259140   2.255433   3.290635   2.266770   2.076607
     8  H    2.549560   2.122900   4.175891   3.162649   4.028352
     9  N    2.132115   1.361779   3.231367   2.194696   3.145512
                    6          7          8          9
     6  C    0.000000
     7  N    1.323530   0.000000
     8  H    3.064890   2.036837   0.000000
     9  N    2.131321   1.356365   0.990750   0.000000
 Stoichiometry    C3H4N2
 Framework group  CS[SG(C3H4N2)]
 Deg. of freedom   15
 Full point group                 CS      NOp   2
 Largest Abelian subgroup         CS      NOp   2
 Largest concise Abelian subgroup C1      NOp   1
                         Standard orientation:                         
 ---------------------------------------------------------------------
 Center     Atomic     Atomic              Coordinates (Angstroms)
 Number     Number      Type              X           Y           Z
 ---------------------------------------------------------------------
    1          1             0        2.097262    0.712818    0.000000
    2          6             0        1.111183    0.309533    0.000000
    3          1             0        1.262173   -1.877916    0.000000
    4          6             0        0.669476   -0.993342    0.000000
    5          1             0       -1.471758   -1.683207    0.000000
    6          6             0       -0.752714   -0.897227    0.000000
    7          7             0       -1.143510    0.367293    0.000000
    8          1             0       -0.050778    2.086201    0.000000
    9          7             0        0.000000    1.096752    0.000000
 ---------------------------------------------------------------------
 Rotational constants (GHZ):      9.5951721      9.4476514      4.7604202
 Isotopes: H-1,C-12,H-1,C-12,H-1,C-12,N-14,H-1,N-14
 Standard basis: LANL2DZ (5D, 7F)
 There are    43 symmetry adapted basis functions of A'  symmetry.
 There are    10 symmetry adapted basis functions of A"  symmetry.
 Crude estimate of integral set expansion from redundant integrals=1.000.
 Integral buffers will be    262144 words long.
 Raffenetti 1 integral format.
 Two-electron integral symmetry is turned on.
    53 basis functions      141 primitive gaussians
    18 alpha electrons       18 beta electrons
       nuclear repulsion energy       163.0021845060 Hartrees.
 One-electron integrals computed using PRISM.
   1 Symmetry operations used in ECPInt.
 ECPInt:  NShTT=     561 NPrTT=    4338 LenC2=     562 LenP2D=    3444.
 LDataN:  DoStor=F MaxTD1= 2 Len=   12
 LDataN:  DoStor=T MaxTD1= 2 Len=   12
 NBasis=    53 RedAO= T  NBF=    43    10
 NBsUse=    53 1.00D-04 NBFU=    43    10
 Initial guess read from the read-write file:
 Initial guess orbital symmetries:
       Occupied  (A') (A') (A') (A') (A') (A') (A') (A') (A') (A')
                 (A') (A') (A") (A') (A') (A') (A") (A")
       Virtual   (A") (A") (A') (A') (A') (A') (A') (A') (A') (A")
                 (A') (A') (A") (A') (A') (A") (A') (A') (A') (A")
                 (A') (A") (A') (A') (A') (A') (A') (A') (A') (A')
                 (A') (A') (A') (A') (A')
 Requested convergence on RMS density matrix=1.00D-08 within  64 cycles.
 Requested convergence on MAX density matrix=1.00D-06.
 Keep R1 integrals in memory in canonical form, NReq=     1438540.
 SCF Done:  E(RHF) =  -224.721348208     A.U. after   11 cycles
             Convg  =    0.9762D-08             -V/T =  1.9985
             S**2   =   0.0000
   2 Symmetry operations used in ECPInt.
 ECPInt:  NShTT=     561 NPrTT=    4338 LenC2=     562 LenP2D=    3444.
 LDataN:  DoStor=F MaxTD1= 3 Len=   28
 LDataN:  DoStor=T MaxTD1= 3 Len=   28
 ***** Axes restored to original set *****
 -------------------------------------------------------------------
 Center     Atomic                   Forces (Hartrees/Bohr)
 Number     Number              X              Y              Z
 -------------------------------------------------------------------
    1          1          -0.000003597    0.000000000    0.000047090
    2          6           0.000939949    0.000000000    0.001015645
    3          1           0.000147810    0.000000000    0.000000722
    4          6          -0.000028811    0.000000000   -0.000596843
    5          1           0.000004742    0.000000000    0.000107264
    6          6          -0.001660806    0.000000000    0.000702231
    7          7           0.001258204    0.000000000   -0.000226152
    8          1           0.000403030    0.000000000    0.000448299
    9          7          -0.001060521    0.000000000   -0.001498256
 -------------------------------------------------------------------
 Cartesian Forces:  Max     0.001660806 RMS     0.000636140

 GradGradGradGradGradGradGradGradGradGradGradGradGradGradGradGradGradGrad
 Berny optimization.
 Internal  Forces:  Max     0.001117254 RMS     0.000322664
 Search for a local minimum.
 Step number   5 out of a maximum of  48
 All quantities printed in internal units (Hartrees-Bohrs-Radians)
 Update second derivatives using information from points  1  2  3  4  5

 Trust test= 1.03D+00 RLast= 2.48D-02 DXMaxT set to 4.24D-01
     Eigenvalues ---    0.03203   0.03247   0.03252   0.03273   0.03341
     Eigenvalues ---    0.03373   0.14953   0.15820   0.16006   0.16510
     Eigenvalues ---    0.20790   0.35816   0.46492   0.48407   0.49568
     Eigenvalues ---    0.49823   0.58594   0.59852   0.60887   0.73608
     Eigenvalues ---    0.745501000.000001000.000001000.000001000.00000
     Eigenvalues --- 1000.000001000.000001000.000001000.000001000.00000
     Eigenvalues --- 1000.000001000.000001000.000001000.000001000.00000
     Eigenvalues --- 1000.000001000.000001000.00000
 RFO step:  Lambda=-1.39116685D-05.
 Quartic linear search produced a step of  0.02996.
 Iteration  1 RMS(Cart)=  0.00127218 RMS(Int)=  0.00000141
 Iteration  2 RMS(Cart)=  0.00000160 RMS(Int)=  0.00000018
 Iteration  3 RMS(Cart)=  0.00000000 RMS(Int)=  0.00000018
 Variable       Old X    -DE/DX   Delta X   Delta X   Delta X     New X
                                 (Linear)    (Quad)   (Total)
    R1        2.01324  -0.00002  -0.00007  -0.00008  -0.00015   2.01308
    R2        2.59972  -0.00028  -0.00013  -0.00085  -0.00097   2.59875
    R3        2.57339  -0.00069   0.00004  -0.00068  -0.00064   2.57275
    R4        2.01215   0.00004  -0.00007  -0.00001  -0.00008   2.01207
    R5        2.69368  -0.00016   0.00008   0.00019   0.00028   2.69396
    R6        2.01306   0.00001  -0.00006  -0.00004  -0.00010   2.01296
    R7        2.50111  -0.00112  -0.00011  -0.00194  -0.00205   2.49906
    R8        2.56316   0.00028   0.00035   0.00146   0.00181   2.56497
    R9        1.87225   0.00000  -0.00005  -0.00009  -0.00014   1.87210
    A1        2.28588  -0.00011  -0.00015  -0.00063  -0.00079   2.28510
    A2        2.13699  -0.00019  -0.00008  -0.00107  -0.00115   2.13584
    A3        1.86031   0.00030   0.00024   0.00170   0.00194   1.86225
    A4        2.22440   0.00042   0.00010   0.00228   0.00238   2.22677
    A5        1.83018  -0.00055  -0.00003  -0.00250  -0.00254   1.82765
    A6        2.22861   0.00013  -0.00007   0.00023   0.00016   2.22876
    A7        2.24427  -0.00022  -0.00019  -0.00115  -0.00134   2.24293
    A8        1.93801   0.00065  -0.00003   0.00297   0.00295   1.94096
    A9        2.10090  -0.00043   0.00022  -0.00183  -0.00161   2.09930
   A10        1.83889  -0.00034   0.00014  -0.00183  -0.00169   1.83720
   A11        1.95739  -0.00006  -0.00032  -0.00034  -0.00066   1.95672
   A12        2.23845   0.00060   0.00006   0.00362   0.00368   2.24213
   A13        2.08735  -0.00053   0.00026  -0.00328  -0.00302   2.08433
    D1        0.00000   0.00000   0.00000   0.00000   0.00000   0.00000
    D2        3.14159   0.00000   0.00000   0.00000   0.00000   3.14159
    D3        3.14159   0.00000   0.00000   0.00000   0.00000   3.14159
    D4        0.00000   0.00000   0.00000   0.00000   0.00000   0.00000
    D5        3.14159   0.00000   0.00000   0.00000   0.00000   3.14159
    D6        0.00000   0.00000   0.00000   0.00000   0.00000   0.00000
    D7        0.00000   0.00000   0.00000   0.00000   0.00000   0.00000
    D8        3.14159   0.00000   0.00000   0.00000   0.00000   3.14159
    D9        3.14159   0.00000   0.00000   0.00000   0.00000   3.14159
   D10        0.00000   0.00000   0.00000   0.00000   0.00000   0.00000
   D11        0.00000   0.00000   0.00000   0.00000   0.00000   0.00000
   D12        3.14159   0.00000   0.00000   0.00000   0.00000   3.14159
   D13        0.00000   0.00000   0.00000   0.00000   0.00000   0.00000
   D14        3.14159   0.00000   0.00000   0.00000   0.00000   3.14159
   D15        0.00000   0.00000   0.00000   0.00000   0.00000   0.00000
   D16        3.14159   0.00000   0.00000   0.00000   0.00000   3.14159
         Item               Value     Threshold  Converged?
 Maximum Force            0.001117     0.000450     NO 
 RMS     Force            0.000323     0.000300     NO 
 Maximum Displacement     0.003648     0.001800     NO 
 RMS     Displacement     0.001272     0.001200     NO 
 Predicted change in Energy=-7.039290D-06
 GradGradGradGradGradGradGradGradGradGradGradGradGradGradGradGradGradGrad

                          Input orientation:                          
 ---------------------------------------------------------------------
 Center     Atomic     Atomic              Coordinates (Angstroms)
 Number     Number      Type              X           Y           Z
 ---------------------------------------------------------------------
    1          1             0       -1.872628    0.000000   -1.181840
    2          6             0       -0.938803    0.000000   -0.669213
    3          1             0        0.667109    0.000000   -2.163223
    4          6             0        0.350908    0.000000   -1.146517
    5          1             0        2.232344    0.000000    0.085644
    6          6             0        1.169101    0.000000    0.020890
    7          7             0        0.434084    0.000000    1.120257
    8          1             0       -1.588434    0.000000    1.353373
    9          7             0       -0.853082    0.000000    0.689524
 ---------------------------------------------------------------------
                    Distance matrix (angstroms):
                    1          2          3          4          5
     1  H    0.000000
     2  C    1.065278   0.000000
     3  H    2.722752   2.193402   0.000000
     4  C    2.223817   1.375199   1.064741   0.000000
     5  H    4.296197   3.259751   2.739957   2.249005   0.000000
     6  C    3.270883   2.217995   2.241059   1.425581   1.065213
     7  N    3.258922   2.255443   3.291738   2.268300   2.074648
     8  H    2.551091   2.124353   4.177788   3.163936   4.025602
     9  N    2.131074   1.361439   3.232514   2.195595   3.143966
                    6          7          8          9
     6  C    0.000000
     7  N    1.322444   0.000000
     8  H    3.062598   2.035907   0.000000
     9  N    2.129858   1.357323   0.990675   0.000000
 Stoichiometry    C3H4N2
 Framework group  CS[SG(C3H4N2)]
 Deg. of freedom   15
 Full point group                 CS      NOp   2
 Largest Abelian subgroup         CS      NOp   2
 Largest concise Abelian subgroup C1      NOp   1
                         Standard orientation:                         
 ---------------------------------------------------------------------
 Center     Atomic     Atomic              Coordinates (Angstroms)
 Number     Number      Type              X           Y           Z
 ---------------------------------------------------------------------
    1          1             0        2.096200    0.712901    0.000000
    2          6             0        1.110407    0.309132    0.000000
    3          1             0        1.262293   -1.879005    0.000000
    4          6             0        0.670567   -0.993831    0.000000
    5          1             0       -1.470571   -1.681980    0.000000
    6          6             0       -0.751650   -0.895959    0.000000
    7          7             0       -1.144297    0.366850    0.000000
    8          1             0       -0.053793    2.086071    0.000000
    9          7             0        0.000000    1.096858    0.000000
 ---------------------------------------------------------------------
 Rotational constants (GHZ):      9.6020342      9.4453751      4.7615302
 Isotopes: H-1,C-12,H-1,C-12,H-1,C-12,N-14,H-1,N-14
 Standard basis: LANL2DZ (5D, 7F)
 There are    43 symmetry adapted basis functions of A'  symmetry.
 There are    10 symmetry adapted basis functions of A"  symmetry.
 Crude estimate of integral set expansion from redundant integrals=1.000.
 Integral buffers will be    262144 words long.
 Raffenetti 1 integral format.
 Two-electron integral symmetry is turned on.
    53 basis functions      141 primitive gaussians
    18 alpha electrons       18 beta electrons
       nuclear repulsion energy       163.0214189034 Hartrees.
 One-electron integrals computed using PRISM.
   1 Symmetry operations used in ECPInt.
 ECPInt:  NShTT=     561 NPrTT=    4338 LenC2=     562 LenP2D=    3445.
 LDataN:  DoStor=F MaxTD1= 2 Len=   12
 LDataN:  DoStor=T MaxTD1= 2 Len=   12
 NBasis=    53 RedAO= T  NBF=    43    10
 NBsUse=    53 1.00D-04 NBFU=    43    10
 Initial guess read from the read-write file:
 Initial guess orbital symmetries:
       Occupied  (A') (A') (A') (A') (A') (A') (A') (A') (A') (A')
                 (A') (A') (A") (A') (A') (A') (A") (A")
       Virtual   (A") (A") (A') (A') (A') (A') (A') (A') (A') (A")
                 (A') (A') (A") (A') (A') (A") (A') (A') (A') (A")
                 (A') (A") (A') (A') (A') (A') (A') (A') (A') (A')
                 (A') (A') (A') (A') (A')
 Requested convergence on RMS density matrix=1.00D-08 within  64 cycles.
 Requested convergence on MAX density matrix=1.00D-06.
 Keep R1 integrals in memory in canonical form, NReq=     1438540.
 SCF Done:  E(RHF) =  -224.721354008     A.U. after   11 cycles
             Convg  =    0.4948D-08             -V/T =  1.9984
             S**2   =   0.0000
   2 Symmetry operations used in ECPInt.
 ECPInt:  NShTT=     561 NPrTT=    4338 LenC2=     562 LenP2D=    3445.
 LDataN:  DoStor=F MaxTD1= 3 Len=   28
 LDataN:  DoStor=T MaxTD1= 3 Len=   28
 ***** Axes restored to original set *****
 -------------------------------------------------------------------
 Center     Atomic                   Forces (Hartrees/Bohr)
 Number     Number              X              Y              Z
 -------------------------------------------------------------------
    1          1          -0.000092688    0.000000000   -0.000021580
    2          6          -0.000351125    0.000000000    0.000591801
    3          1           0.000033588    0.000000000    0.000004661
    4          6           0.000190400    0.000000000    0.000391982
    5          1           0.000131357    0.000000000    0.000024513
    6          6           0.000307903    0.000000000    0.000017649
    7          7           0.000041105    0.000000000   -0.000435422
    8          1          -0.000004180    0.000000000    0.000090149
    9          7          -0.000256360    0.000000000   -0.000663755
 -------------------------------------------------------------------
 Cartesian Forces:  Max     0.000663755 RMS     0.000235098

 GradGradGradGradGradGradGradGradGradGradGradGradGradGradGradGradGradGrad
 Berny optimization.
 Internal  Forces:  Max     0.000634539 RMS     0.000178261
 Search for a local minimum.
 Step number   6 out of a maximum of  48
 All quantities printed in internal units (Hartrees-Bohrs-Radians)
 Update second derivatives using information from points  1  2  3  4  5
                                                        6
 Trust test= 8.24D-01 RLast= 8.12D-03 DXMaxT set to 4.24D-01
     Eigenvalues ---    0.03203   0.03247   0.03252   0.03273   0.03341
     Eigenvalues ---    0.03372   0.14113   0.15326   0.15988   0.16039
     Eigenvalues ---    0.28449   0.35362   0.45124   0.48552   0.49628
     Eigenvalues ---    0.49875   0.58148   0.60035   0.61163   0.67289
     Eigenvalues ---    0.780881000.000001000.000001000.000001000.00000
     Eigenvalues --- 1000.000001000.000001000.000001000.000001000.00000
     Eigenvalues --- 1000.000001000.000001000.000001000.000001000.00000
     Eigenvalues --- 1000.000001000.000001000.00000
 RFO step:  Lambda=-2.00252885D-06.
 Quartic linear search produced a step of -0.14965.
 Iteration  1 RMS(Cart)=  0.00046050 RMS(Int)=  0.00000017
 Iteration  2 RMS(Cart)=  0.00000018 RMS(Int)=  0.00000005
 Variable       Old X    -DE/DX   Delta X   Delta X   Delta X     New X
                                 (Linear)    (Quad)   (Total)
    R1        2.01308   0.00009   0.00002   0.00013   0.00015   2.01323
    R2        2.59875   0.00041   0.00015   0.00031   0.00046   2.59921
    R3        2.57275  -0.00063   0.00010  -0.00093  -0.00083   2.57192
    R4        2.01207   0.00001   0.00001   0.00000   0.00001   2.01208
    R5        2.69396  -0.00013  -0.00004  -0.00009  -0.00013   2.69383
    R6        2.01296   0.00013   0.00001   0.00021   0.00022   2.01318
    R7        2.49906  -0.00020   0.00031  -0.00077  -0.00046   2.49860
    R8        2.56497   0.00021  -0.00027   0.00057   0.00030   2.56527
    R9        1.87210   0.00006   0.00002   0.00005   0.00008   1.87218
    A1        2.28510   0.00009   0.00012   0.00024   0.00036   2.28546
    A2        2.13584   0.00004   0.00017  -0.00008   0.00009   2.13593
    A3        1.86225  -0.00014  -0.00029  -0.00016  -0.00045   1.86179
    A4        2.22677  -0.00009  -0.00036   0.00023  -0.00012   2.22665
    A5        1.82765   0.00025   0.00038   0.00042   0.00080   1.82844
    A6        2.22876  -0.00016  -0.00002  -0.00065  -0.00068   2.22809
    A7        2.24293   0.00022   0.00020   0.00048   0.00068   2.24360
    A8        1.94096  -0.00041  -0.00044  -0.00060  -0.00104   1.93992
    A9        2.09930   0.00019   0.00024   0.00012   0.00036   2.09966
   A10        1.83720   0.00034   0.00025   0.00057   0.00082   1.83802
   A11        1.95672  -0.00004   0.00010  -0.00023  -0.00013   1.95660
   A12        2.24213   0.00008  -0.00055   0.00136   0.00081   2.24294
   A13        2.08433  -0.00004   0.00045  -0.00113  -0.00068   2.08365
    D1        0.00000   0.00000   0.00000   0.00000   0.00000   0.00000
    D2        3.14159   0.00000   0.00000   0.00000   0.00000   3.14159
    D3        3.14159   0.00000   0.00000   0.00000   0.00000   3.14159
    D4        0.00000   0.00000   0.00000   0.00000   0.00000   0.00000
    D5        3.14159   0.00000   0.00000   0.00000   0.00000   3.14159
    D6        0.00000   0.00000   0.00000   0.00000   0.00000   0.00000
    D7        0.00000   0.00000   0.00000   0.00000   0.00000   0.00000
    D8        3.14159   0.00000   0.00000   0.00000   0.00000   3.14159
    D9        3.14159   0.00000   0.00000   0.00000   0.00000   3.14159
   D10        0.00000   0.00000   0.00000   0.00000   0.00000   0.00000
   D11        0.00000   0.00000   0.00000   0.00000   0.00000   0.00000
   D12        3.14159   0.00000   0.00000   0.00000   0.00000   3.14159
   D13        0.00000   0.00000   0.00000   0.00000   0.00000   0.00000
   D14        3.14159   0.00000   0.00000   0.00000   0.00000   3.14159
   D15        0.00000   0.00000   0.00000   0.00000   0.00000   0.00000
   D16        3.14159   0.00000   0.00000   0.00000   0.00000   3.14159
         Item               Value     Threshold  Converged?
 Maximum Force            0.000635     0.000450     NO 
 RMS     Force            0.000178     0.000300     YES
 Maximum Displacement     0.001308     0.001800     YES
 RMS     Displacement     0.000461     0.001200     YES
 Predicted change in Energy=-1.186625D-06
 GradGradGradGradGradGradGradGradGradGradGradGradGradGradGradGradGradGrad

                          Input orientation:                          
 ---------------------------------------------------------------------
 Center     Atomic     Atomic              Coordinates (Angstroms)
 Number     Number      Type              X           Y           Z
 ---------------------------------------------------------------------
    1          1             0       -1.872936    0.000000   -1.181694
    2          6             0       -0.939037    0.000000   -0.669035
    3          1             0        0.667507    0.000000   -2.162605
    4          6             0        0.351069    0.000000   -1.145968
    5          1             0        2.233086    0.000000    0.086030
    6          6             0        1.169741    0.000000    0.021021
    7          7             0        0.434206    0.000000    1.119749
    8          1             0       -1.587989    0.000000    1.353796
    9          7             0       -0.853209    0.000000    0.689255
 ---------------------------------------------------------------------
                    Distance matrix (angstroms):
                    1          2          3          4          5
     1  H    0.000000
     2  C    1.065357   0.000000
     3  H    2.723240   2.193567   0.000000
     4  C    2.224293   1.375442   1.064745   0.000000
     5  H    4.297271   3.260749   2.739962   2.249401   0.000000
     6  C    3.271760   2.218812   2.240639   1.425513   1.065330
     7  N    3.258764   2.255115   3.290635   2.267242   2.074740
     8  H    2.551451   2.124379   4.177600   3.163664   4.025897
     9  N    2.130797   1.360999   3.231978   2.195070   3.144693
                    6          7          8          9
     6  C    0.000000
     7  N    1.322201   0.000000
     8  H    3.062902   2.035694   0.000000
     9  N    2.130461   1.357483   0.990715   0.000000
 Stoichiometry    C3H4N2
 Framework group  CS[SG(C3H4N2)]
 Deg. of freedom   15
 Full point group                 CS      NOp   2
 Largest Abelian subgroup         CS      NOp   2
 Largest concise Abelian subgroup C1      NOp   1
                         Standard orientation:                         
 ---------------------------------------------------------------------
 Center     Atomic     Atomic              Coordinates (Angstroms)
 Number     Number      Type              X           Y           Z
 ---------------------------------------------------------------------
    1          1             0        2.096130    0.714070    0.000000
    2          6             0        1.110413    0.309908    0.000000
    3          1             0        1.262352   -1.878391    0.000000
    4          6             0        0.670508   -0.993290    0.000000
    5          1             0       -1.470618   -1.682771    0.000000
    6          6             0       -0.751720   -0.896569    0.000000
    7          7             0       -1.144002    0.366099    0.000000
    8          1             0       -0.055050    2.086050    0.000000
[...]
   6   6    -0.10   0.11   0.00    -0.10   0.18   0.00     0.03   0.03   0.00
   7   7    -0.01  -0.04   0.00     0.07  -0.12   0.00     0.00   0.00   0.00
   8   1    -0.83  -0.13   0.00     0.67   0.01   0.00     0.00  -0.01   0.00
   9   7     0.19  -0.06   0.00    -0.09  -0.03   0.00     0.00   0.00   0.00
                    19                     20                     21
                    A'                     A'                     A'
 Frequencies --  3488.6890              3510.1231              3967.0547
 Red. masses --     1.1002                 1.1110                 1.0843
 Frc consts  --     7.8894                 8.0649                10.0536
 IR Inten    --     8.3026                 1.9806               123.0706
 Raman Activ --    11.1075               127.9078                77.2754
 Depolar     --     0.5475                 0.0994                 0.2728
 Atom AN      X      Y      Z        X      Y      Z        X      Y      Z
   1   1     0.58   0.24   0.00    -0.49  -0.20   0.00     0.01   0.00   0.00
   2   6    -0.05  -0.02   0.00     0.05   0.02   0.00     0.00   0.00   0.00
   3   1    -0.03   0.03   0.00    -0.41   0.62   0.00     0.00   0.00   0.00
   4   6     0.01   0.00   0.00     0.04  -0.06   0.00     0.00   0.00   0.00
   5   1     0.52   0.57   0.00     0.27   0.29   0.00     0.00   0.00   0.00
   6   6    -0.05  -0.05   0.00    -0.03  -0.03   0.00     0.00   0.00   0.00
   7   7     0.00   0.00   0.00     0.00   0.00   0.00     0.00   0.00   0.00
   8   1     0.00  -0.01   0.00     0.00   0.02   0.00    -0.06   1.00   0.00
   9   7     0.00   0.00   0.00     0.00   0.00   0.00     0.00  -0.08   0.00

 -------------------
 - Thermochemistry -
 -------------------
 Temperature   298.150 Kelvin.  Pressure   1.00000 Atm.
 Atom  1 has atomic number  1 and mass   1.00783
 Atom  2 has atomic number  6 and mass  12.00000
 Atom  3 has atomic number  1 and mass   1.00783
 Atom  4 has atomic number  6 and mass  12.00000
 Atom  5 has atomic number  1 and mass   1.00783
 Atom  6 has atomic number  6 and mass  12.00000
 Atom  7 has atomic number  7 and mass  14.00307
 Atom  8 has atomic number  1 and mass   1.00783
 Atom  9 has atomic number  7 and mass  14.00307
 Molecular mass:    68.03745 amu.
 Principal axes and moments of inertia in atomic units:
                           1         2         3
     EIGENVALUES --   187.99819 190.99771 378.99590
           X            0.98911   0.14718   0.00000
           Y           -0.14718   0.98911   0.00000
           Z            0.00000   0.00000   1.00000
 THIS MOLECULE IS AN ASYMMETRIC TOP.
 ROTATIONAL SYMMETRY NUMBER  1.
 ROTATIONAL TEMPERATURES (KELVIN)      0.46071     0.45348     0.22853
 ROTATIONAL CONSTANTS (GHZ)            9.59978     9.44902     4.76190
 Zero-point vibrational energy     203726.6 (Joules/Mol)
                                   48.69183 (Kcal/Mol)
 VIBRATIONAL TEMPERATURES:    972.30  1027.42  1069.97  1263.67  1448.71
          (KELVIN)           1456.59  1468.83  1512.37  1611.44  1646.30
                             1750.09  1822.08  2009.04  2196.75  2206.30
                             2293.66  2465.23  5006.99  5019.42  5050.26
                             5707.67
 
 Zero-point correction=                           0.077595 (Hartree/Particle)
 Thermal correction to Energy=                    0.081042
 Thermal correction to Enthalpy=                  0.081986
 Thermal correction to Gibbs Free Energy=         0.051433
 Sum of electronic and zero-point Energies=           -224.643760
 Sum of electronic and thermal Energies=              -224.640313
 Sum of electronic and thermal Enthalpies=            -224.639369
 Sum of electronic and thermal Free Energies=         -224.669922
 
                     E (Thermal)             CV                S
                      KCAL/MOL        CAL/MOL-KELVIN    CAL/MOL-KELVIN
 TOTAL                   50.855             11.530             64.304
 ELECTRONIC               0.000              0.000              0.000
 TRANSLATIONAL            0.889              2.981             38.570
 ROTATIONAL               0.889              2.981             24.124
 VIBRATIONAL             49.077              5.568              1.610
                       Q            LOG10(Q)             LN(Q)
 TOTAL BOT       0.220060D-23        -23.657460        -54.473314
 TOTAL V=0       0.108067D+13         12.033693         27.708602
 VIB (BOT)       0.238891D-35        -35.621800        -82.022225
 VIB (V=0)       0.117315D+01          0.069353          0.159691
 ELECTRONIC      0.100000D+01          0.000000          0.000000
 TRANSLATIONAL   0.220588D+08          7.343582         16.909224
 ROTATIONAL      0.417597D+05          4.620758         10.639687
 ***** Axes restored to original set *****
 -------------------------------------------------------------------
 Center     Atomic                   Forces (Hartrees/Bohr)
 Number     Number              X              Y              Z
 -------------------------------------------------------------------
    1          1          -0.000001860    0.000000000   -0.000029511
    2          6          -0.000075085    0.000000000    0.000245055
    3          1          -0.000012377    0.000000000   -0.000028589
    4          6           0.000155154    0.000000000   -0.000031815
    5          1           0.000016122    0.000000000    0.000000689
    6          6          -0.000046240    0.000000000   -0.000159710
    7          7          -0.000109178    0.000000000    0.000173057
    8          1          -0.000012770    0.000000000    0.000010069
    9          7           0.000086233    0.000000000   -0.000179244
 -------------------------------------------------------------------
 Cartesian Forces:  Max     0.000245055 RMS     0.000086543

 GradGradGradGradGradGradGradGradGradGradGradGradGradGradGradGradGradGrad
 Berny optimization.
 Internal  Forces:  Max     0.000140767 RMS     0.000042856
 Search for a local minimum.
 Step number   1 out of a maximum of  48
 All quantities printed in internal units (Hartrees-Bohrs-Radians)
 Second derivative matrix not updated -- analytic derivatives used.
     Eigenvalues ---    0.01224   0.01584   0.02250   0.03457   0.06814
     Eigenvalues ---    0.07507   0.11179   0.12313   0.12776   0.13953
     Eigenvalues ---    0.26631   0.29538   0.37758   0.42424   0.42616
     Eigenvalues ---    0.42841   0.45226   0.47584   0.55784   0.57860
     Eigenvalues ---    0.648901000.000001000.000001000.000001000.00000
     Eigenvalues --- 1000.000001000.000001000.000001000.000001000.00000
     Eigenvalues --- 1000.000001000.000001000.000001000.000001000.00000
     Eigenvalues --- 1000.000001000.000001000.00000
 Angle between quadratic step and forces=  24.69 degrees.
 Linear search not attempted -- first point.
 Iteration  1 RMS(Cart)=  0.00010358 RMS(Int)=  0.00000001
 Iteration  2 RMS(Cart)=  0.00000001 RMS(Int)=  0.00000000
 Variable       Old X    -DE/DX   Delta X   Delta X   Delta X     New X
                                 (Linear)    (Quad)   (Total)
    R1        2.01323   0.00002   0.00000   0.00004   0.00004   2.01327
    R2        2.59921   0.00009   0.00000   0.00029   0.00029   2.59949
    R3        2.57192  -0.00013   0.00000  -0.00043  -0.00043   2.57149
    R4        2.01208   0.00002   0.00000   0.00005   0.00005   2.01212
    R5        2.69383  -0.00006   0.00000  -0.00022  -0.00022   2.69360
    R6        2.01318   0.00002   0.00000   0.00004   0.00004   2.01322
    R7        2.49860   0.00014   0.00000   0.00033   0.00033   2.49892
    R8        2.56527  -0.00005   0.00000  -0.00008  -0.00008   2.56519
    R9        1.87218   0.00002   0.00000   0.00004   0.00004   1.87222
    A1        2.28546  -0.00004   0.00000  -0.00029  -0.00029   2.28516
    A2        2.13593   0.00001   0.00000   0.00023   0.00023   2.13616
    A3        1.86179   0.00004   0.00000   0.00007   0.00007   1.86186
    A4        2.22665   0.00001   0.00000  -0.00013  -0.00013   2.22652
    A5        1.82844  -0.00006   0.00000  -0.00016  -0.00016   1.82829
    A6        2.22809   0.00005   0.00000   0.00029   0.00029   2.22838
    A7        2.24360  -0.00001   0.00000   0.00001   0.00001   2.24361
    A8        1.93992   0.00002   0.00000   0.00011   0.00011   1.94003
    A9        2.09966  -0.00001   0.00000  -0.00012  -0.00012   2.09954
   A10        1.83802  -0.00006   0.00000  -0.00020  -0.00020   1.83782
   A11        1.95660   0.00005   0.00000   0.00018   0.00018   1.95678
   A12        2.24294  -0.00003   0.00000  -0.00010  -0.00010   2.24283
   A13        2.08365  -0.00003   0.00000  -0.00008  -0.00008   2.08357
    D1        0.00000   0.00000   0.00000   0.00000   0.00000   0.00000
    D2        3.14159   0.00000   0.00000   0.00000   0.00000   3.14159
    D3        3.14159   0.00000   0.00000   0.00000   0.00000   3.14159
    D4        0.00000   0.00000   0.00000   0.00000   0.00000   0.00000
    D5        3.14159   0.00000   0.00000   0.00000   0.00000   3.14159
    D6        0.00000   0.00000   0.00000   0.00000   0.00000   0.00000
    D7        0.00000   0.00000   0.00000   0.00000   0.00000   0.00000
    D8        3.14159   0.00000   0.00000   0.00000   0.00000   3.14159
    D9        3.14159   0.00000   0.00000   0.00000   0.00000   3.14159
   D10        0.00000   0.00000   0.00000   0.00000   0.00000   0.00000
   D11        0.00000   0.00000   0.00000   0.00000   0.00000   0.00000
   D12        3.14159   0.00000   0.00000   0.00000   0.00000   3.14159
   D13        0.00000   0.00000   0.00000   0.00000   0.00000   0.00000
   D14        3.14159   0.00000   0.00000   0.00000   0.00000   3.14159
   D15        0.00000   0.00000   0.00000   0.00000   0.00000   0.00000
   D16        3.14159   0.00000   0.00000   0.00000   0.00000   3.14159
         Item               Value     Threshold  Converged?
 Maximum Force            0.000141     0.000450     YES
 RMS     Force            0.000043     0.000300     YES
 Maximum Displacement     0.000338     0.001800     YES
 RMS     Displacement     0.000104     0.001200     YES
 Predicted change in Energy=-1.084211D-07
 Optimization completed.
    -- Stationary point found.
                         ----------------------------
                         !   Optimized Parameters   !
                         ! (Angstroms and Degrees)  !
 ------------------------                            -------------------------
 ! Name  Definition              Value          Derivative Info.             !
 -----------------------------------------------------------------------------
 ! R1    R(1,2)                  1.0654         -DE/DX =    0.               !
 ! R2    R(2,4)                  1.3754         -DE/DX =    0.0001           !
 ! R3    R(2,9)                  1.361          -DE/DX =   -0.0001           !
 ! R4    R(3,4)                  1.0647         -DE/DX =    0.               !
 ! R5    R(4,6)                  1.4255         -DE/DX =   -0.0001           !
 ! R6    R(5,6)                  1.0653         -DE/DX =    0.               !
 ! R7    R(6,7)                  1.3222         -DE/DX =    0.0001           !
 ! R8    R(7,9)                  1.3575         -DE/DX =    0.               !
 ! R9    R(8,9)                  0.9907         -DE/DX =    0.               !
 ! A1    A(1,2,4)              130.947          -DE/DX =    0.               !
 ! A2    A(1,2,9)              122.38           -DE/DX =    0.               !
 ! A3    A(4,2,9)              106.673          -DE/DX =    0.               !
 ! A4    A(2,4,3)              127.5779         -DE/DX =    0.               !
 ! A5    A(2,4,6)              104.762          -DE/DX =   -0.0001           !
 ! A6    A(3,4,6)              127.6601         -DE/DX =    0.               !
 ! A7    A(4,6,5)              128.5491         -DE/DX =    0.               !
 ! A8    A(4,6,7)              111.1493         -DE/DX =    0.               !
 ! A9    A(5,6,7)              120.3016         -DE/DX =    0.               !
 ! A10   A(6,7,9)              105.3108         -DE/DX =   -0.0001           !
 ! A11   A(2,9,7)              112.1049         -DE/DX =    0.0001           !
 ! A12   A(2,9,8)              128.5108         -DE/DX =    0.               !
 ! A13   A(7,9,8)              119.3843         -DE/DX =    0.               !
 ! D1    D(1,2,4,3)              0.             -DE/DX =    0.               !
 ! D2    D(1,2,4,6)            180.             -DE/DX =    0.               !
 ! D3    D(9,2,4,3)            180.             -DE/DX =    0.               !
 ! D4    D(9,2,4,6)              0.             -DE/DX =    0.               !
 ! D5    D(1,2,9,7)            180.             -DE/DX =    0.               !
 ! D6    D(1,2,9,8)              0.             -DE/DX =    0.               !
 ! D7    D(4,2,9,7)              0.             -DE/DX =    0.               !
 ! D8    D(4,2,9,8)            180.             -DE/DX =    0.               !
 ! D9    D(2,4,6,5)            180.             -DE/DX =    0.               !
 ! D10   D(2,4,6,7)              0.             -DE/DX =    0.               !
 ! D11   D(3,4,6,5)              0.             -DE/DX =    0.               !
 ! D12   D(3,4,6,7)            180.             -DE/DX =    0.               !
 ! D13   D(4,6,7,9)              0.             -DE/DX =    0.               !
 ! D14   D(5,6,7,9)            180.             -DE/DX =    0.               !
 ! D15   D(6,7,9,2)              0.             -DE/DX =    0.               !
 ! D16   D(6,7,9,8)            180.             -DE/DX =    0.               !
 -----------------------------------------------------------------------------
 GradGradGradGradGradGradGradGradGradGradGradGradGradGradGradGradGradGrad

 1\1\GINC-FERRUM\Freq\RHF\LANL2DZ\C3H4N2\RDJ3\05-Sep-2000\0\\#N GEOM=AL
 LCHECK GUESS=TCHECK RHF/LANL2DZ FREQ\\1H pyrazole C3H4N2 casno=288131\
 \0,1\H,-1.8728607652,0.,-1.1815457378\C,-0.9389617737,0.,-0.6688868707
 \H,0.667582613,0.,-2.1624566248\C,0.3511448424,0.,-1.1458200814\H,2.23
 31611677,0.,0.086177907\C,1.1698168517,0.,0.0211694187\N,0.4342809164,
 0.,1.1198972951\H,-1.5879136883,0.,1.3539442949\N,-0.8531336092,0.,0.6
 894034708\\Version=IBM-RS6000-G98RevA.6\State=1-A'\HF=-224.7213551\RMS
 D=2.103e-09\RMSF=8.654e-05\Dipole=-0.840128,0.,-0.5996766\DipoleDeriv=
 -0.0073589,0.,-0.0606425,0.,0.2337276,0.,-0.0510787,0.,0.0920961,0.241
 8833,0.,-0.1693464,0.,-0.0717399,0.,-0.419489,0.,0.3337276,0.1072709,0
 .,0.0433534,0.,0.2358819,0.,0.0430201,0.,-0.0528638,-0.3935731,0.,-0.0
 257102,0.,-0.324601,0.,-0.0483301,0.,-0.0042316,-0.0618329,0.,-0.00862
 65,0.,0.177574,0.,-0.0272756,0.,0.1007561,0.2871254,0.,0.1161639,0.,-0
 .0506597,0.,0.2758536,0.,0.2344131,0.1229338,0.,-0.2473057,0.,-0.24652
 99,0.,-0.092883,0.,-0.6075714,0.2576469,0.,-0.048532,0.,0.4196803,0.,-
 0.0529581,0.,0.2498924,-0.5540954,0.,0.400646,0.,-0.3733333,0.,0.37314
 08,0.,-0.3462184\Polar=47.5102035,0.,17.5547227,-1.1272795,0.,43.04225
 87\PolarDeriv=-7.2948795,0.,-0.560236,-2.8949604,0.,-1.9037621,0.,0.19
 0548,0.,0.,-0.1081831,0.,-2.7136205,0.,0.1772463,-2.5074333,0.,-2.3263
 25,-4.6448696,0.,0.6629743,-4.0822563,0.,-4.9761802,0.,-7.3220079,0.,0
 .,-1.3242889,0.,-1.1989763,0.,-0.6792112,2.9610426,0.,0.8440089,1.3987
 5,0.,0.0436764,-1.5254436,0.,1.7161996,0.,-0.3305319,0.,0.,-0.3343195,
 0.,-1.3842667,0.,-0.4313482,2.0874983,0.,-8.2206172,3.317985,0.,0.2508
 275,6.3971514,0.,5.4590236,0.,3.9940921,0.,0.,-4.6514454,0.,-2.2522824
 ,0.,0.7882451,3.6927738,0.,-0.2429415,9.737532,0.,0.3575826,0.5905475,
 0.,0.7769662,0.,0.5778194,0.,0.,0.1306071,0.,0.4628617,0.,0.8686732,1.
 3764268,0.,0.1699645,1.4908402,0.,-0.6529064,-2.2432922,0.,1.6512938,0
 .,4.3664577,0.,0.,0.0750004,0.,0.8876606,0.,-2.0309604,-7.2811006,0.,-
 8.8073735,2.6403666,0.,-0.2728772,-1.0440661,0.,-2.1898943,0.,-0.05330
 91,0.,0.,4.0175754,0.,2.06485,0.,0.8124492,5.5221396,0.,16.1407002,-4.
 8870635,0.,-0.0520121,3.2578055,0.,-2.6138709,0.,-0.7654836,0.,0.,0.59
 55059,0.,2.5097197,0.,0.2149402,-3.0506785,0.,4.1241592,-1.7586613,0.,
 0.2229708,1.5445142,0.,2.0802243,0.,-0.6575847,0.,0.,1.5995481,0.,1.62
 40539,0.,0.2799658,-2.8006688,0.,-1.6815756\HyperPolar=-29.4664533,0.,
 2.4289424,0.,18.901264,0.,-17.3644369,4.5109826,0.,-21.2692743\PG=CS [
 SG(C3H4N2)]\NImag=0\\0.34115085,0.,0.02911114,0.15432847,0.,0.14736439
 ,-0.34092454,0.,-0.13584993,1.00046944,0.,-0.04199952,0.,0.,0.16933763
 ,-0.14743738,0.,-0.14551574,0.12329460,0.,0.72120798,0.00035687,0.,-0.
 00101407,0.00318654,0.,0.03105905,0.09136920,0.,-0.00389921,0.,0.,0.00
 099665,0.,0.,0.02844351,0.00074513,0.,-0.00004279,-0.00678996,0.,0.001
 40615,-0.10544771,0.,0.39479264,-0.00594556,0.,0.01299198,-0.40037253,
 0.,0.07767392,-0.10028088,0.,0.09982710,0.70901344,0.,0.00530023,0.,0.
 ,-0.08824068,0.,0.,-0.03769032,0.,0.,0.15702061,-0.01852975,0.,0.01444
 599,0.10622002,0.,-0.17241185,0.09698398,0.,-0.38613424,-0.15182248,0.
 ,0.94830681,-0.00043043,0.,0.00011656,-0.00013150,0.,-0.00031844,-0.00
 015502,0.,-0.00076061,-0.00242763,0.,0.00651254,0.42529008,0.,0.000477
 49,0.,0.,0.00532912,0.,0.,-0.00198779,0.,0.,0.00293061,0.,0.,0.0318041
 4,-0.00097942,0.,0.00117882,-0.00375809,0.,-0.00701678,0.00112690,0.,0
 .00016186,-0.02511485,0.,0.00858427,0.02113200,0.,0.06567070,-0.004211
 11,0.,0.00540977,-0.06653250,0.,-0.00850745,0.01494609,0.,0.01526843,-
 0.20186293,0.,-0.09544063,-0.41068433,0.,-0.03527328,1.02959249,0.,0.0
 0743915,0.,0.,0.01486301,0.,0.,-0.00103955,0.,0.,-0.08668145,0.,0.,-0.
 04321588,0.,0.,0.17989542,0.00104429,0.,-0.00200393,-0.07509417,0.,0.0
 5210799,-0.01999575,0.,-0.00785944,-0.06430975,0.,-0.24824334,-0.02257
 622,0.,-0.07147716,-0.04311835,0.,0.68659713,0.00120166,0.,0.00256256,
 -0.06493053,0.,-0.04415248,-0.00272627,0.,-0.00111297,0.03462016,0.,0.
 03957236,-0.01218411,0.,0.03429754,-0.22177414,0.,0.17733157,0.5628133
 5,0.,0.00597861,0.,0.,0.02035595,0.,0.,0.00626727,0.,0.,0.02745891,0.,
 0.,-0.00700468,0.,0.,-0.08674115,0.,0.,0.12019482,0.00332348,0.,-0.004
 98392,-0.02294950,0.,-0.08702240,-0.00699572,0.,-0.00359281,-0.0399711
 2,0.,-0.09147505,-0.00647358,0.,0.00713199,0.13333689,0.,-0.36093088,-
 0.08303966,0.,0.65452950,-0.00020157,0.,0.00051853,0.01388756,0.,-0.01
 045850,0.00095389,0.,-0.00002440,0.00197092,0.,-0.00397152,-0.00051047
 ,0.,0.00154465,-0.00755112,0.,-0.00659579,-0.01765566,0.,0.03116189,0.
 34407390,0.,-0.00191708,0.,0.,-0.00513818,0.,0.,0.00214978,0.,0.,0.004
 18431,0.,0.,0.00175029,0.,0.,0.00546458,0.,0.,-0.01041608,0.,0.,0.0187
 0506,-0.00090602,0.,0.00016684,0.02984527,0.,-0.00612047,0.00109999,0.
 ,0.00018972,-0.00312618,0.,-0.00702456,-0.00051049,0.,0.00112889,-0.00
 840372,0.,0.00114717,-0.01573222,0.,0.01818155,-0.23747856,0.,0.294368
 05,0.00900383,0.,-0.03906386,-0.14465193,0.,-0.02115333,-0.00765041,0.
 ,-0.00170501,-0.03471498,0.,0.02047548,0.00123342,0.,0.00702455,-0.131
 92245,0.,0.05331417,-0.27936447,0.,-0.00839269,-0.33496745,0.,0.235211
 93,0.92303443,0.,-0.00049081,0.,0.,-0.07550397,0.,0.,0.00675967,0.,0.,
 0.01571778,0.,0.,0.00991670,0.,0.,0.01001587,0.,0.,-0.07609365,0.,0.,-
 0.01478268,0.,0.,0.12446111,0.00841119,0.,-0.01060965,-0.01491824,0.,-
 0.35663489,0.00318333,0.,0.00107891,0.09385139,0.,-0.06604804,0.002878
 22,0.,-0.00536260,0.03672834,0.,-0.04933754,-0.10972669,0.,-0.13183798
 ,0.22530371,0.,-0.30203720,-0.24571125,0.,0.92078899\\0.00000186,0.,0.
 00002951,0.00007508,0.,-0.00024505,0.00001238,0.,0.00002859,-0.0001551
 5,0.,0.00003181,-0.00001612,0.,-0.00000069,0.00004624,0.,0.00015971,0.
 00010918,0.,-0.00017306,0.00001277,0.,-0.00001007,-0.00008623,0.,0.000
 17924\\\@


 IT IS THE BEHAVIOR AND DISTRIBUTION OF THE ELECTRONS 
 AROUND THE NUCLEUS THAT GIVES THE FUNDAMENTAL 
 CHARACTER OF AN ATOM:  IT MUST BE THE SAME FOR MOLECULES.

                               -- C. A. COULSON, 1951
 Job cpu time:  0 days  0 hours  1 minutes  7.0 seconds.
 File lengths (MBytes):  RWF=   17 Int=    0 D2E=    0 Chk=    8 Scr=    1
 Normal termination of Gaussian 98.
