 Entering Gaussian System, Link 0=g98
 Initial command:
 /usr/local/apps/g98/g98/l1.exe /wrk/rdj3/Gau-13614.inp -scrdir=/wrk/rdj3/
 Entering Link 1 = /usr/local/apps/g98/g98/l1.exe PID=     11568.
  
 Copyright (c) 1988,1990,1992,1993,1995,1998 Gaussian, Inc.
                  All Rights Reserved.
  
 This is part of the Gaussian(R) 98 program.  It is based on
 the Gaussian 94(TM) system (copyright 1995 Gaussian, Inc.),
 the Gaussian 92(TM) system (copyright 1992 Gaussian, Inc.),
 the Gaussian 90(TM) system (copyright 1990 Gaussian, Inc.),
 the Gaussian 88(TM) system (copyright 1988 Gaussian, Inc.),
 the Gaussian 86(TM) system (copyright 1986 Carnegie Mellon
 University), and the Gaussian 82(TM) system (copyright 1983
 Carnegie Mellon University). Gaussian is a federally registered
 trademark of Gaussian, Inc.
  
 This software contains proprietary and confidential information,
 including trade secrets, belonging to Gaussian, Inc.
  
 This software is provided under written license and may be
 used, copied, transmitted, or stored only in accord with that
 written license.
  
 The following legend is applicable only to US Government
 contracts under DFARS:
  
                    RESTRICTED RIGHTS LEGEND
  
 Use, duplication or disclosure by the US Government is subject
 to restrictions as set forth in subparagraph (c)(1)(ii) of the
 Rights in Technical Data and Computer Software clause at DFARS
 252.227-7013.
  
 Gaussian, Inc.
 Carnegie Office Park, Building 6, Pittsburgh, PA 15106 USA
  
 The following legend is applicable only to US Government
 contracts under FAR:
  
                    RESTRICTED RIGHTS LEGEND
  
 Use, reproduction and disclosure by the US Government is subject
 to restrictions as set forth in subparagraph (c) of the
 Commercial Computer Software - Restricted Rights clause at FAR
 52.227-19.
  
 Gaussian, Inc.
 Carnegie Office Park, Building 6, Pittsburgh, PA 15106 USA
  
  
 ---------------------------------------------------------------
 Warning -- This program may not be used in any manner that
 competes with the business of Gaussian, Inc. or will provide
 assistance to any competitor of Gaussian, Inc.  The licensee
 of this program is prohibited from giving any competitor of
 Gaussian, Inc. access to this program.  By using this program,
 the user acknowledges that Gaussian, Inc. is engaged in the
 business of creating and licensing software in the field of
 computational chemistry and represents and warrants to the
 licensee that it is not a competitor of Gaussian, Inc. and that
 it will not use this program in any manner prohibited above.
 ---------------------------------------------------------------
  

 Cite this work as:
 Gaussian 98, Revision A.4,
 M. J. Frisch, G. W. Trucks, H. B. Schlegel, G. E. Scuseria, 
 M. A. Robb, J. R. Cheeseman, V. G. Zakrzewski, J. A. Montgomery, Jr., 
 R. E. Stratmann, J. C. Burant, S. Dapprich, J. M. Millam, 
 A. D. Daniels, K. N. Kudin, M. C. Strain, O. Farkas, J. Tomasi, 
 V. Barone, M. Cossi, R. Cammi, B. Mennucci, C. Pomelli, C. Adamo, 
 S. Clifford, J. Ochterski, G. A. Petersson, P. Y. Ayala, Q. Cui, 
 K. Morokuma, D. K. Malick, A. D. Rabuck, K. Raghavachari, 
 J. B. Foresman, J. Cioslowski, J. V. Ortiz, B. B. Stefanov, G. Liu, 
 A. Liashenko, P. Piskorz, I. Komaromi, R. Gomperts, R. L. Martin, 
 D. J. Fox, T. Keith, M. A. Al-Laham, C. Y. Peng, A. Nanayakkara, 
 C. Gonzalez, M. Challacombe, P. M. W. Gill, B. Johnson, W. Chen, 
 M. W. Wong, J. L. Andres, C. Gonzalez, M. Head-Gordon, 
 E. S. Replogle, and J. A. Pople, 
 Gaussian, Inc., Pittsburgh PA, 1998.

 **********************************************
 Gaussian 98:  IBM-RS6000-G98RevA.4 11-Sep-1998
                   6-Oct-1999 
 **********************************************
 %mem=24000000
 ------------------
 #HF/3-21G opt freq
 ------------------
 1/18=20,38=1/1,3;
 2/9=110,17=6,18=5/2;
 3/5=5,11=9,25=1,30=1/1,2,3;
 4//1;
 5/5=2,38=4/2;
 6/7=2,8=2,9=2,10=2,28=1/1;
 7//1,2,3,16;
 1/18=20/3(1);
 99//99;
 2/9=110/2;
 3/5=5,11=9,25=1,30=1/1,2,3;
 4/5=5,16=2/1;
 5/5=2,38=4/2;
 7//1,2,3,16;
 1/18=20/3(-5);
 2/9=110/2;
 6/7=2,8=2,9=2,10=2,19=2,28=1/1;
 99/9=1/99;
 -------------------------------
 1H pyrazole C3H4N2 casno=288131
 -------------------------------
 Symbolic Z-matrix:
 Charge =  0 Multiplicity = 1
 H                    -1.9125    0.       -0.75938 
 C                    -1.08438   0.       -0.21875 
 H                     0.43438   0.       -1.63125 
 C                     0.15      0.       -0.68438 
 H                     1.9125    0.        0.37188 
 C                     0.92188   0.        0.375 
 N                     0.18125   0.        1.41875 
 H                    -1.74063   0.        1.63125 
 N                    -1.00313   0.        1.05313 

 GradGradGradGradGradGradGradGradGradGradGradGradGradGradGradGradGradGrad
 Berny optimization.
 Initialization pass.
                         ----------------------------
                         !    Initial Parameters    !
                         ! (Angstroms and Degrees)  !
 ------------------------                            -------------------------
 ! Name  Definition              Value          Derivative Info.             !
 -----------------------------------------------------------------------------
 ! R1    R(1,2)                  0.989          estimate D2E/DX2             !
 ! R2    R(2,4)                  1.3193         estimate D2E/DX2             !
 ! R3    R(2,9)                  1.2745         estimate D2E/DX2             !
 ! R4    R(3,4)                  0.9887         estimate D2E/DX2             !
 ! R5    R(4,6)                  1.3108         estimate D2E/DX2             !
 ! R6    R(5,6)                  0.9906         estimate D2E/DX2             !
 ! R7    R(6,7)                  1.2798         estimate D2E/DX2             !
 ! R8    R(7,9)                  1.2395         estimate D2E/DX2             !
 ! R9    R(8,9)                  0.9371         estimate D2E/DX2             !
 ! A1    A(1,2,4)              126.195          estimate D2E/DX2             !
 ! A2    A(1,2,9)              126.7929         estimate D2E/DX2             !
 ! A3    A(4,2,9)              107.012          estimate D2E/DX2             !
 ! A4    A(2,4,3)              127.3838         estimate D2E/DX2             !
 ! A5    A(2,4,6)              105.4104         estimate D2E/DX2             !
 ! A6    A(3,4,6)              127.2058         estimate D2E/DX2             !
 ! A7    A(4,6,5)              125.8968         estimate D2E/DX2             !
 ! A8    A(4,6,7)              108.5636         estimate D2E/DX2             !
 ! A9    A(5,6,7)              125.5395         estimate D2E/DX2             !
 ! A10   A(6,7,9)              108.203          estimate D2E/DX2             !
 ! A11   A(2,9,7)              110.811          estimate D2E/DX2             !
 ! A12   A(2,9,8)              124.4376         estimate D2E/DX2             !
 ! A13   A(7,9,8)              124.7513         estimate D2E/DX2             !
 ! D1    D(1,2,4,3)              0.             estimate D2E/DX2             !
 ! D2    D(1,2,4,6)            180.             estimate D2E/DX2             !
 ! D3    D(9,2,4,3)            180.             estimate D2E/DX2             !
 ! D4    D(9,2,4,6)              0.             estimate D2E/DX2             !
 ! D5    D(1,2,9,7)            180.             estimate D2E/DX2             !
 ! D6    D(1,2,9,8)              0.             estimate D2E/DX2             !
 ! D7    D(4,2,9,7)              0.             estimate D2E/DX2             !
 ! D8    D(4,2,9,8)            180.             estimate D2E/DX2             !
 ! D9    D(2,4,6,5)            180.             estimate D2E/DX2             !
 ! D10   D(2,4,6,7)              0.             estimate D2E/DX2             !
 ! D11   D(3,4,6,5)              0.             estimate D2E/DX2             !
 ! D12   D(3,4,6,7)            180.             estimate D2E/DX2             !
 ! D13   D(4,6,7,9)              0.             estimate D2E/DX2             !
 ! D14   D(5,6,7,9)            180.             estimate D2E/DX2             !
 ! D15   D(6,7,9,2)              0.             estimate D2E/DX2             !
 ! D16   D(6,7,9,8)            180.             estimate D2E/DX2             !
 -----------------------------------------------------------------------------
 Trust Radius=3.00D-01 FncErr=1.00D-07 GrdErr=1.00D-07
 Number of steps in this run=  48 maximum allowed number of steps= 100.
 GradGradGradGradGradGradGradGradGradGradGradGradGradGradGradGradGradGrad

                          Input orientation:                          
 ---------------------------------------------------------------------
 Center     Atomic     Atomic              Coordinates (Angstroms)
 Number     Number      Type              X           Y           Z
 ---------------------------------------------------------------------
    1          1             0       -1.912500    0.000000   -0.759375
    2          6             0       -1.084375    0.000000   -0.218750
    3          1             0        0.434375    0.000000   -1.631250
    4          6             0        0.150000    0.000000   -0.684375
    5          1             0        1.912500    0.000000    0.371875
    6          6             0        0.921875    0.000000    0.375000
    7          7             0        0.181250    0.000000    1.418750
    8          1             0       -1.740625    0.000000    1.631250
    9          7             0       -1.003125    0.000000    1.053125
 ---------------------------------------------------------------------
                    Distance matrix (angstroms):
                    1          2          3          4          5
     1  H    0.000000
     2  C    0.988972   0.000000
     3  H    2.503595   2.074068   0.000000
     4  C    2.063863   1.319276   0.988656   0.000000
     5  H    3.988778   3.054521   2.489450   2.054768   0.000000
     6  C    3.052947   2.092266   2.064630   1.310750   0.990630
     7  N    3.021261   2.069592   3.060486   2.103357   2.023159
     8  H    2.396796   1.962948   3.921037   2.989412   3.864110
     9  N    2.027836   1.274468   3.045041   2.085331   2.994156
                    6          7          8          9
     6  C    0.000000
     7  N    1.279820   0.000000
     8  H    2.943989   1.933587   0.000000
     9  N    2.040950   1.239526   0.937088   0.000000
 Stoichiometry    C3H4N2
 Framework group  CS[SG(C3H4N2)]
 Deg. of freedom   15
 Full point group                 CS      NOp   2
 Largest Abelian subgroup         CS      NOp   2
 Largest concise Abelian subgroup C1      NOp   1
                         Standard orientation:                         
 ---------------------------------------------------------------------
 Center     Atomic     Atomic              Coordinates (Angstroms)
 Number     Number      Type              X           Y           Z
 ---------------------------------------------------------------------
    1          1             0        1.974407    0.585689    0.000000
    2          6             0        1.028833    0.295936    0.000000
    3          1             0        1.140941   -1.775099    0.000000
    4          6             0        0.595873   -0.950271    0.000000
    5          1             0       -1.344123   -1.627388    0.000000
    6          6             0       -0.712074   -0.864589    0.000000
    7          7             0       -1.039336    0.372682    0.000000
    8          1             0        0.028336    1.984773    0.000000
    9          7             0        0.000000    1.048113    0.000000
 ---------------------------------------------------------------------
 Rotational constants (GHZ):     11.1878032     10.4520048      5.4036973
 Isotopes: H-1,C-12,H-1,C-12,H-1,C-12,N-14,H-1,N-14
 Standard basis: 3-21G (6D, 7F)
 There are    43 symmetry adapted basis functions of A'  symmetry.
 There are    10 symmetry adapted basis functions of A"  symmetry.
 Crude estimate of integral set expansion from redundant integrals=1.000.
 Integral buffers will be    262144 words long.
 Raffenetti 1 integral format.
 Two-electron integral symmetry is turned on.
    53 basis functions       87 primitive gaussians
    18 alpha electrons       18 beta electrons
       nuclear repulsion energy       173.7391879471 Hartrees.
 One-electron integrals computed using PRISM.
 NBasis=    53 RedAO= T  NBF=    43    10
 NBsUse=    53 1.00D-04 NBFU=    43    10
 Projected INDO Guess.
 Initial guess orbital symmetries:
       Occupied  (A') (A') (A') (A') (A') (A') (A') (A') (A') (A')
                 (A') (A") (A') (A') (A') (A") (A') (A")
       Virtual   (A") (A') (A') (A") (A') (A') (A') (A') (A') (A')
                 (A') (A') (A') (A') (A') (A') (A') (A') (A') (A')
                 (A') (A') (A') (A') (A') (A') (A') (A') (A') (A')
                 (A") (A") (A") (A") (A")
 Requested convergence on RMS density matrix=1.00D-08 within  64 cycles.
 Requested convergence on MAX density matrix=1.00D-06.
 Keep R1 integrals in memory in canonical form, NReq=     1438530.
 SCF Done:  E(RHF) =  -223.462889754     A.U. after   14 cycles
             Convg  =    0.5803D-08             -V/T =  1.9939
             S**2   =   0.0000

 **********************************************************************

            Population analysis using the SCF density.

 **********************************************************************

 Orbital Symmetries:
       Occupied  (A') (A') (A') (A') (A') (A') (A') (A') (A') (A')
                 (A') (A") (A') (A') (A') (A') (A") (A")
       Virtual   (A") (A') (A") (A') (A') (A') (A') (A') (A') (A')
                 (A') (A") (A') (A') (A") (A') (A") (A') (A') (A')
                 (A') (A') (A") (A") (A') (A') (A') (A') (A') (A')
                 (A') (A') (A') (A') (A')
  The electronic state is 1-A'.
 Alpha  occ. eigenvalues --  -15.56764 -15.48874 -11.18516 -11.15921 -11.12779
 Alpha  occ. eigenvalues --   -1.47900  -1.13911  -1.09090  -0.87161  -0.83719
 Alpha  occ. eigenvalues --   -0.77867  -0.66080  -0.65980  -0.61159  -0.57575
 Alpha  occ. eigenvalues --   -0.42985  -0.38368  -0.34538
 Alpha virt. eigenvalues --    0.21666   0.27761   0.28240   0.34134   0.36119
 Alpha virt. eigenvalues --    0.38828   0.45943   0.48771   0.56628   0.70209
 Alpha virt. eigenvalues --    0.77680   0.97816   0.99074   1.00858   1.03775
 Alpha virt. eigenvalues --    1.04842   1.11105   1.15674   1.19299   1.29382
 Alpha virt. eigenvalues --    1.33959   1.39229   1.39890   1.51913   1.52651
 Alpha virt. eigenvalues --    1.54182   1.57371   1.60654   1.72007   1.75769
 Alpha virt. eigenvalues --    1.91736   2.09954   2.15214   2.97142   3.20489
          Condensed to atoms (all electrons):
              1          2          3          4          5          6
  1  H    0.395645   0.391523  -0.000869  -0.028172  -0.000020   0.006058
  2  C    0.391523   5.202879  -0.031835   0.447946   0.005194  -0.138225
  3  H   -0.000869  -0.031835   0.409870   0.398865  -0.000847  -0.021956
  4  C   -0.028172   0.447946   0.398865   5.486959  -0.048836   0.373192
  5  H   -0.000020   0.005194  -0.000847  -0.048836   0.403640   0.409399
  6  C    0.006058  -0.138225  -0.021956   0.373192   0.409399   5.024896
  7  N    0.002346  -0.214362   0.006175  -0.085079  -0.032432   0.466638
  8  H   -0.000477  -0.034496  -0.000012   0.005338  -0.000021   0.003032
  9  N   -0.043058   0.120449   0.004888  -0.012529   0.002049  -0.272765
              7          8          9
  1  H    0.002346  -0.000477  -0.043058
  2  C   -0.214362  -0.034496   0.120449
  3  H    0.006175  -0.000012   0.004888
  4  C   -0.085079   0.005338  -0.012529
  5  H   -0.032432  -0.000021   0.002049
  6  C    0.466638   0.003032  -0.272765
  7  N    6.980411  -0.026420   0.262174
  8  H   -0.026420   0.307454   0.357940
  9  N    0.262174   0.357940   7.246658
 Total atomic charges:
              1
  1  H    0.277024
  2  C    0.250928
  3  H    0.235723
  4  C   -0.537684
  5  H    0.261875
  6  C    0.149730
  7  N   -0.359451
  8  H    0.387662
  9  N   -0.665806
 Sum of Mulliken charges=   0.00000
 Atomic charges with hydrogens summed into heavy atoms:
              1
  1  H    0.000000
  2  C    0.527951
  3  H    0.000000
  4  C   -0.301961
  5  H    0.000000
  6  C    0.411605
  7  N   -0.359451
  8  H    0.000000
  9  N   -0.278144
 Sum of Mulliken charges=   0.00000
 Electronic spatial extent (au):  <R**2>=   259.4055
 Charge=     0.0000 electrons
 Dipole moment (Debye):
    X=     2.3187    Y=     0.9767    Z=     0.0000  Tot=     2.5160
 Quadrupole moment (Debye-Ang):
   XX=   -30.0349   YY=   -22.0352   ZZ=   -31.3902
   XY=     2.7831   XZ=     0.0000   YZ=     0.0000
 Octapole moment (Debye-Ang**2):
  XXX=     8.9134  YYY=    11.4364  ZZZ=     0.0000  XYY=     0.5028
  XXY=    -2.2631  XXZ=     0.0000  XZZ=    -1.0816  YZZ=     2.4380
  YYZ=     0.0000  XYZ=     0.0000
 Hexadecapole moment (Debye-Ang**3):
 XXXX=  -146.3189 YYYY=  -116.3730 ZZZZ=   -29.7133 XXXY=     7.3522
 XXXZ=     0.0000 YYYX=     0.1263 YYYZ=     0.0000 ZZZX=     0.0000
 ZZZY=     0.0000 XXYY=   -45.4850 XXZZ=   -32.0971 YYZZ=   -32.4088
 XXYZ=     0.0000 YYXZ=     0.0000 ZZXY=    -0.3476
 N-N= 1.737391879471D+02 E-N=-8.704640694611D+02  KE= 2.248436260134D+02
 Symmetry A'   KE= 2.169698689270D+02
 Symmetry A"   KE= 7.873757086378D+00
 ***** Axes restored to original set *****
 -------------------------------------------------------------------
 Center     Atomic                   Forces (Hartrees/Bohr)
 Number     Number              X              Y              Z
 -------------------------------------------------------------------
    1          1          -0.067867486    0.000000000   -0.033345379
    2          6          -0.018186072    0.000000000   -0.065174821
    3          1           0.019375820    0.000000000   -0.072573372
    4          6          -0.022246248    0.000000000   -0.049533704
    5          1           0.071881828    0.000000000    0.011317102
    6          6           0.020569585    0.000000000    0.030899672
    7          7           0.111298467    0.000000000    0.131837586
    8          1          -0.045202019    0.000000000    0.052034718
    9          7          -0.069623876    0.000000000   -0.005461802
 -------------------------------------------------------------------
 Cartesian Forces:  Max     0.131837586 RMS     0.049049038

 GradGradGradGradGradGradGradGradGradGradGradGradGradGradGradGradGradGrad
 Berny optimization.
 Internal  Forces:  Max     0.141341284 RMS     0.046681685
 Search for a local minimum.
 Step number   1 out of a maximum of  48
 All quantities printed in internal units (Hartrees-Bohrs-Radians)
 Second derivative matrix not updated -- first step.
     Eigenvalues ---    0.03204   0.03245   0.03263   0.03273   0.03342
     Eigenvalues ---    0.03375   0.16000   0.16000   0.16000   0.16000
     Eigenvalues ---    0.22000   0.22938   0.49374   0.49681   0.49740
     Eigenvalues ---    0.56490   0.56686   0.60708   0.68179   0.73042
     Eigenvalues ---    0.827791000.000001000.000001000.000001000.00000
     Eigenvalues --- 1000.000001000.000001000.000001000.000001000.00000
     Eigenvalues --- 1000.000001000.000001000.000001000.000001000.00000
     Eigenvalues --- 1000.000001000.000001000.00000
 RFO step:  Lambda=-1.10397859D-01.
 Linear search not attempted -- first point.
 Maximum step size (   0.300) exceeded in Quadratic search.
    -- Step size scaled by   0.754
 Iteration  1 RMS(Cart)=  0.06312412 RMS(Int)=  0.00073680
 Iteration  2 RMS(Cart)=  0.00092352 RMS(Int)=  0.00002398
 Iteration  3 RMS(Cart)=  0.00000058 RMS(Int)=  0.00002397
 Variable       Old X    -DE/DX   Delta X   Delta X   Delta X     New X
                                 (Linear)    (Quad)   (Total)
    R1        1.86889   0.07506   0.00000   0.09323   0.09323   1.96212
    R2        2.49307   0.07267   0.00000   0.07239   0.07237   2.56544
    R3        2.40839   0.11178   0.00000   0.10060   0.10055   2.50895
    R4        1.86829   0.07508   0.00000   0.09317   0.09317   1.96146
    R5        2.47696   0.13309   0.00000   0.12910   0.12914   2.60610
    R6        1.87202   0.07185   0.00000   0.08969   0.08969   1.96171
    R7        2.41851   0.06450   0.00000   0.05782   0.05786   2.47637
    R8        2.34237   0.14134   0.00000   0.11167   0.11166   2.45403
    R9        1.77084   0.06768   0.00000   0.07114   0.07114   1.84198
    A1        2.20252   0.01369   0.00000   0.03613   0.03616   2.23868
    A2        2.21295  -0.00347   0.00000  -0.01172  -0.01169   2.20127
    A3        1.86771  -0.01022   0.00000  -0.02441  -0.02447   1.84324
    A4        2.22327  -0.00502   0.00000  -0.00517  -0.00518   2.21809
    A5        1.83976   0.00572   0.00000  -0.00173  -0.00172   1.83803
    A6        2.22016  -0.00069   0.00000   0.00691   0.00690   2.22706
    A7        2.19731   0.00241   0.00000   0.01570   0.01566   2.21298
    A8        1.89479   0.01680   0.00000   0.02889   0.02895   1.92374
    A9        2.19108  -0.01920   0.00000  -0.04458  -0.04461   2.14646
   A10        1.88850  -0.02520   0.00000  -0.04364  -0.04360   1.84490
   A11        1.93402   0.01291   0.00000   0.04089   0.04084   1.97486
   A12        2.17185   0.00511   0.00000   0.01182   0.01185   2.18369
   A13        2.17732  -0.01802   0.00000  -0.05271  -0.05269   2.12463
    D1        0.00000   0.00000   0.00000   0.00000   0.00000   0.00000
    D2        3.14159   0.00000   0.00000   0.00000   0.00000   3.14159
    D3        3.14159   0.00000   0.00000   0.00000   0.00000   3.14159
    D4        0.00000   0.00000   0.00000   0.00000   0.00000   0.00000
    D5        3.14159   0.00000   0.00000   0.00000   0.00000   3.14159
    D6        0.00000   0.00000   0.00000   0.00000   0.00000   0.00000
    D7        0.00000   0.00000   0.00000   0.00000   0.00000   0.00000
    D8        3.14159   0.00000   0.00000   0.00000   0.00000   3.14159
    D9        3.14159   0.00000   0.00000   0.00000   0.00000   3.14159
   D10        0.00000   0.00000   0.00000   0.00000   0.00000   0.00000
   D11        0.00000   0.00000   0.00000   0.00000   0.00000   0.00000
   D12        3.14159   0.00000   0.00000   0.00000   0.00000   3.14159
   D13        0.00000   0.00000   0.00000   0.00000   0.00000   0.00000
   D14        3.14159   0.00000   0.00000   0.00000   0.00000   3.14159
   D15        0.00000   0.00000   0.00000   0.00000   0.00000   0.00000
   D16        3.14159   0.00000   0.00000   0.00000   0.00000   3.14159
         Item               Value     Threshold  Converged?
 Maximum Force            0.141341     0.000450     NO 
 RMS     Force            0.046682     0.000300     NO 
 Maximum Displacement     0.177543     0.001800     NO 
 RMS     Displacement     0.063098     0.001200     NO 
 Predicted change in Energy=-2.643210D-02
 GradGradGradGradGradGradGradGradGradGradGradGradGradGradGradGradGradGrad

                          Input orientation:                          
 ---------------------------------------------------------------------
 Center     Atomic     Atomic              Coordinates (Angstroms)
 Number     Number      Type              X           Y           Z
 ---------------------------------------------------------------------
    1          1             0       -1.808275    0.000000   -1.181271
    2          6             0       -0.923296    0.000000   -0.638227
    3          1             0        0.652315    0.000000   -2.100168
    4          6             0        0.350783    0.000000   -1.106972
    5          1             0        2.189666    0.000000    0.038873
    6          6             0        1.151832    0.000000    0.015616
    7          7             0        0.413989    0.000000    1.098590
    8          1             0       -1.566974    0.000000    1.307896
    9          7             0       -0.817071    0.000000    0.685196
 ---------------------------------------------------------------------
                    Distance matrix (angstroms):
                    1          2          3          4          5
     1  H    0.000000
     2  C    1.038308   0.000000
     3  H    2.626570   2.149377   0.000000
     4  C    2.160336   1.357571   1.037959   0.000000
     5  H    4.179985   3.185748   2.634188   2.166668   0.000000
     6  C    3.192925   2.175699   2.173950   1.379088   1.038094
     7  N    3.183743   2.191999   3.207624   2.206468   2.067856
     8  H    2.500835   2.049808   4.066957   3.083729   3.965194
     9  N    2.113335   1.327679   3.149182   2.139101   3.075419
                    6          7          8          9
     6  C    0.000000
     7  N    1.310437   0.000000
     8  H    3.010298   1.991990   0.000000
     9  N    2.079643   1.298616   0.974736   0.000000
 Stoichiometry    C3H4N2
 Framework group  CS[SG(C3H4N2)]
 Deg. of freedom   15
 Full point group                 CS      NOp   2
 Largest Abelian subgroup         CS      NOp   2
 Largest concise Abelian subgroup C1      NOp   1
                         Standard orientation:                         
 ---------------------------------------------------------------------
 Center     Atomic     Atomic              Coordinates (Angstroms)
 Number     Number      Type              X           Y           Z
 ---------------------------------------------------------------------
    1          1             0        2.069451    0.637394    0.000000
    2          6             0        1.086526    0.302814    0.000000
    3          1             0        1.206109   -1.843234    0.000000
    4          6             0        0.634062   -0.977138    0.000000
    5          1             0       -1.421782   -1.661208    0.000000
    6          6             0       -0.741398   -0.877170    0.000000
    7          7             0       -1.104040    0.382091    0.000000
    8          1             0       -0.000642    2.040565    0.000000
    9          7             0        0.000000    1.065830    0.000000
 ---------------------------------------------------------------------
 Rotational constants (GHZ):     10.0336323      9.9876321      5.0052897
 Isotopes: H-1,C-12,H-1,C-12,H-1,C-12,N-14,H-1,N-14
 Standard basis: 3-21G (6D, 7F)
 There are    43 symmetry adapted basis functions of A'  symmetry.
 There are    10 symmetry adapted basis functions of A"  symmetry.
 Crude estimate of integral set expansion from redundant integrals=1.000.
 Integral buffers will be    262144 words long.
 Raffenetti 1 integral format.
 Two-electron integral symmetry is turned on.
    53 basis functions       87 primitive gaussians
    18 alpha electrons       18 beta electrons
       nuclear repulsion energy       167.1391756912 Hartrees.
 One-electron integrals computed using PRISM.
 NBasis=    53 RedAO= T  NBF=    43    10
 NBsUse=    53 1.00D-04 NBFU=    43    10
 Initial guess read from the read-write file:
 Initial guess orbital symmetries:
       Occupied  (A') (A') (A') (A') (A') (A') (A') (A') (A') (A')
                 (A') (A") (A') (A') (A') (A') (A") (A")
       Virtual   (A") (A') (A") (A') (A') (A') (A') (A') (A') (A')
                 (A') (A") (A') (A') (A") (A') (A") (A') (A') (A')
                 (A') (A') (A") (A") (A') (A') (A') (A') (A') (A')
                 (A') (A') (A') (A') (A')
 Requested convergence on RMS density matrix=1.00D-08 within  64 cycles.
 Requested convergence on MAX density matrix=1.00D-06.
 Keep R1 integrals in memory in canonical form, NReq=     1438530.
 SCF Done:  E(RHF) =  -223.515813759     A.U. after   14 cycles
             Convg  =    0.2426D-08             -V/T =  1.9994
             S**2   =   0.0000
 ***** Axes restored to original set *****
 -------------------------------------------------------------------
 Center     Atomic                   Forces (Hartrees/Bohr)
 Number     Number              X              Y              Z
 -------------------------------------------------------------------
    1          1          -0.022204957    0.000000000   -0.005534995
    2          6           0.012939629    0.000000000   -0.022497453
    3          1           0.006590525    0.000000000   -0.021355383
    4          6          -0.010365718    0.000000000   -0.012995021
    5          1           0.021653181    0.000000000    0.005585195
    6          6           0.003970414    0.000000000    0.006893911
    7          7           0.054398512    0.000000000    0.036959950
    8          1          -0.011037602    0.000000000    0.018249450
    9          7          -0.055943984    0.000000000   -0.005305655
 -------------------------------------------------------------------
 Cartesian Forces:  Max     0.055943984 RMS     0.019696214

 GradGradGradGradGradGradGradGradGradGradGradGradGradGradGradGradGradGrad
 Berny optimization.
 Internal  Forces:  Max     0.060964919 RMS     0.015376458
 Search for a local minimum.
 Step number   2 out of a maximum of  48
 All quantities printed in internal units (Hartrees-Bohrs-Radians)
 Update second derivatives using information from points  1  2
 Trust test= 2.00D+00 RLast= 3.00D-01 DXMaxT set to 4.24D-01
     Eigenvalues ---    0.03204   0.03247   0.03260   0.03273   0.03342
     Eigenvalues ---    0.03374   0.15892   0.16000   0.16000   0.16043
     Eigenvalues ---    0.22035   0.23815   0.49452   0.49711   0.51092
     Eigenvalues ---    0.57244   0.58651   0.61782   0.68378   0.73598
     Eigenvalues ---    0.803261000.000001000.000001000.000001000.00000
     Eigenvalues --- 1000.000001000.000001000.000001000.000001000.00000
     Eigenvalues --- 1000.000001000.000001000.000001000.000001000.00000
     Eigenvalues --- 1000.000001000.000001000.00000
 RFO step:  Lambda=-4.31550995D-03.
 Quartic linear search produced a step of  0.56930.
 Iteration  1 RMS(Cart)=  0.04398609 RMS(Int)=  0.00086653
 Iteration  2 RMS(Cart)=  0.00096189 RMS(Int)=  0.00007215
 Iteration  3 RMS(Cart)=  0.00000091 RMS(Int)=  0.00007215
 Variable       Old X    -DE/DX   Delta X   Delta X   Delta X     New X
                                 (Linear)    (Quad)   (Total)
    R1        1.96212   0.02182   0.05308   0.00286   0.05594   2.01806
    R2        2.56544   0.01893   0.04120  -0.00835   0.03281   2.59825
    R3        2.50895   0.03169   0.05725  -0.00088   0.05649   2.56544
    R4        1.96146   0.02235   0.05304   0.00448   0.05752   2.01898
    R5        2.60610   0.03725   0.07352  -0.00752   0.06586   2.67196
    R6        1.96171   0.02177   0.05106   0.00562   0.05668   2.01840
    R7        2.47637   0.01624   0.03294  -0.00558   0.02731   2.50368
    R8        2.45403   0.06096   0.06357   0.03606   0.09974   2.55377
    R9        1.84198   0.02015   0.04050   0.00171   0.04222   1.88420
    A1        2.23868   0.00486   0.02058   0.02796   0.04851   2.28719
    A2        2.20127  -0.00867  -0.00665  -0.06801  -0.07470   2.12657
    A3        1.84324   0.00380  -0.01393   0.04005   0.02619   1.86943
    A4        2.21809  -0.00144  -0.00295   0.01020   0.00733   2.22542
    A5        1.83803   0.00307  -0.00098  -0.01009  -0.01124   1.82680
    A6        2.22706  -0.00164   0.00393  -0.00011   0.00390   2.23097
    A7        2.21298   0.00246   0.00892   0.02811   0.03711   2.25009
    A8        1.92374   0.00508   0.01648  -0.00256   0.01375   1.93749
    A9        2.14646  -0.00754  -0.02540  -0.02554  -0.05086   2.09560
   A10        1.84490  -0.00478  -0.02482   0.02506   0.00032   1.84522
   A11        1.97486  -0.00717   0.02325  -0.05246  -0.02902   1.94584
   A12        2.18369   0.01002   0.00674   0.06529   0.07193   2.25563
   A13        2.12463  -0.00285  -0.03000  -0.01282  -0.04291   2.08172
    D1        0.00000   0.00000   0.00000   0.00000   0.00000   0.00000
    D2        3.14159   0.00000   0.00000   0.00000   0.00000   3.14159
    D3        3.14159   0.00000   0.00000   0.00000   0.00000   3.14159
    D4        0.00000   0.00000   0.00000   0.00000   0.00000   0.00000
    D5        3.14159   0.00000   0.00000   0.00000   0.00000   3.14159
    D6        0.00000   0.00000   0.00000   0.00000   0.00000   0.00000
    D7        0.00000   0.00000   0.00000   0.00000   0.00000   0.00000
    D8        3.14159   0.00000   0.00000   0.00000   0.00000   3.14159
    D9        3.14159   0.00000   0.00000   0.00000   0.00000   3.14159
   D10        0.00000   0.00000   0.00000   0.00000   0.00000   0.00000
   D11        0.00000   0.00000   0.00000   0.00000   0.00000   0.00000
   D12        3.14159   0.00000   0.00000   0.00000   0.00000   3.14159
   D13        0.00000   0.00000   0.00000   0.00000   0.00000   0.00000
   D14        3.14159   0.00000   0.00000   0.00000   0.00000   3.14159
   D15        0.00000   0.00000   0.00000   0.00000   0.00000   0.00000
   D16        3.14159   0.00000   0.00000   0.00000   0.00000   3.14159
         Item               Value     Threshold  Converged?
 Maximum Force            0.060965     0.000450     NO 
 RMS     Force            0.015376     0.000300     NO 
 Maximum Displacement     0.120983     0.001800     NO 
 RMS     Displacement     0.043896     0.001200     NO 
 Predicted change in Energy=-1.147412D-02
 GradGradGradGradGradGradGradGradGradGradGradGradGradGradGradGradGradGrad

                          Input orientation:                          
 ---------------------------------------------------------------------
 Center     Atomic     Atomic              Coordinates (Angstroms)
 Number     Number      Type              X           Y           Z
 ---------------------------------------------------------------------
    1          1             0       -1.869508    0.000000   -1.181453
    2          6             0       -0.931963    0.000000   -0.670136
    3          1             0        0.672421    0.000000   -2.169032
    4          6             0        0.357185    0.000000   -1.148199
    5          1             0        2.234084    0.000000    0.082589
    6          6             0        1.168476    0.000000    0.009829
    7          7             0        0.428079    0.000000    1.108529
    8          1             0       -1.590749    0.000000    1.358552
    9          7             0       -0.855324    0.000000    0.685270
 ---------------------------------------------------------------------
                    Distance matrix (angstroms):
                    1          2          3          4          5
     1  H    0.000000
     2  C    1.067911   0.000000
     3  H    2.727034   2.195618   0.000000
     4  C    2.226941   1.374936   1.068398   0.000000
     5  H    4.293864   3.254297   2.740180   2.244457   0.000000
     6  C    3.263203   2.207758   2.234615   1.413938   1.068089
     7  N    3.243905   2.239054   3.286656   2.257841   2.077067
     8  H    2.555256   2.132973   4.191156   3.174626   4.032051
     9  N    2.124435   1.357571   3.237444   2.198132   3.147644
                    6          7          8          9
     6  C    0.000000
     7  N    1.324889   0.000000
     8  H    3.071218   2.034252   0.000000
     9  N    2.133538   1.351396   0.997076   0.000000
 Stoichiometry    C3H4N2
 Framework group  CS[SG(C3H4N2)]
 Deg. of freedom   15
 Full point group                 CS      NOp   2
 Largest Abelian subgroup         CS      NOp   2
 Largest concise Abelian subgroup C1      NOp   1
                         Standard orientation:                         
 ---------------------------------------------------------------------
 Center     Atomic     Atomic              Coordinates (Angstroms)
 Number     Number      Type              X           Y           Z
 ---------------------------------------------------------------------
    1          1             0        2.089533    0.716407    0.000000
    2          6             0        1.102752    0.308119    0.000000
    3          1             0        1.261184   -1.881775    0.000000
    4          6             0        0.664919   -0.995242    0.000000
    5          1             0       -1.471738   -1.682470    0.000000
    6          6             0       -0.745743   -0.899051    0.000000
    7          7             0       -1.135522    0.367204    0.000000
    8          1             0       -0.061894    2.095065    0.000000
    9          7             0        0.000000    1.099912    0.000000
 ---------------------------------------------------------------------
 Rotational constants (GHZ):      9.5954121      9.5338185      4.7822581
 Isotopes: H-1,C-12,H-1,C-12,H-1,C-12,N-14,H-1,N-14
 Standard basis: 3-21G (6D, 7F)
 There are    43 symmetry adapted basis functions of A'  symmetry.
 There are    10 symmetry adapted basis functions of A"  symmetry.
 Crude estimate of integral set expansion from redundant integrals=1.000.
 Integral buffers will be    262144 words long.
 Raffenetti 1 integral format.
 Two-electron integral symmetry is turned on.
    53 basis functions       87 primitive gaussians
    18 alpha electrons       18 beta electrons
       nuclear repulsion energy       163.3140466490 Hartrees.
 One-electron integrals computed using PRISM.
 NBasis=    53 RedAO= T  NBF=    43    10
 NBsUse=    53 1.00D-04 NBFU=    43    10
 Initial guess read from the read-write file:
 Initial guess orbital symmetries:
       Occupied  (A') (A') (A') (A') (A') (A') (A') (A') (A') (A')
                 (A') (A") (A') (A') (A') (A') (A") (A")
       Virtual   (A") (A") (A') (A') (A') (A') (A') (A') (A') (A')
                 (A') (A') (A") (A') (A') (A") (A") (A') (A') (A')
                 (A') (A') (A") (A') (A") (A') (A') (A') (A') (A')
                 (A') (A') (A') (A') (A')
 Requested convergence on RMS density matrix=1.00D-08 within  64 cycles.
 Requested convergence on MAX density matrix=1.00D-06.
 Keep R1 integrals in memory in canonical form, NReq=     1438530.
 SCF Done:  E(RHF) =  -223.524631539     A.U. after   14 cycles
             Convg  =    0.1461D-08             -V/T =  2.0023
             S**2   =   0.0000
 ***** Axes restored to original set *****
 -------------------------------------------------------------------
 Center     Atomic                   Forces (Hartrees/Bohr)
 Number     Number              X              Y              Z
 -------------------------------------------------------------------
    1          1           0.002907184    0.000000000    0.000301452
    2          6           0.001417886    0.000000000   -0.005922998
    3          1          -0.001490439    0.000000000    0.003756018
    4          6          -0.009679469    0.000000000    0.000396937
    5          1          -0.003393459    0.000000000   -0.001110187
    6          6          -0.004449710    0.000000000    0.010283103
    7          7           0.023443545    0.000000000    0.003867725
    8          1           0.002510552    0.000000000   -0.003540047
    9          7          -0.011266090    0.000000000   -0.008032003
 -------------------------------------------------------------------
 Cartesian Forces:  Max     0.023443545 RMS     0.006292075

 GradGradGradGradGradGradGradGradGradGradGradGradGradGradGradGradGradGrad
 Berny optimization.
 Internal  Forces:  Max     0.015757999 RMS     0.004304790
 Search for a local minimum.
 Step number   3 out of a maximum of  48
 All quantities printed in internal units (Hartrees-Bohrs-Radians)
 Update second derivatives using information from points  1  2  3
 Trust test= 7.68D-01 RLast= 2.27D-01 DXMaxT set to 6.00D-01
     Eigenvalues ---    0.03203   0.03247   0.03251   0.03273   0.03341
     Eigenvalues ---    0.03372   0.15320   0.16000   0.16002   0.16030
     Eigenvalues ---    0.22135   0.24938   0.45826   0.49488   0.49732
     Eigenvalues ---    0.56448   0.58537   0.60200   0.63192   0.71495
     Eigenvalues ---    0.835191000.000001000.000001000.000001000.00000
     Eigenvalues --- 1000.000001000.000001000.000001000.000001000.00000
     Eigenvalues --- 1000.000001000.000001000.000001000.000001000.00000
     Eigenvalues --- 1000.000001000.000001000.00000
 RFO step:  Lambda=-1.32738842D-03.
 Quartic linear search produced a step of -0.01523.
 Iteration  1 RMS(Cart)=  0.01039172 RMS(Int)=  0.00006789
 Iteration  2 RMS(Cart)=  0.00007459 RMS(Int)=  0.00002905
 Iteration  3 RMS(Cart)=  0.00000000 RMS(Int)=  0.00002905
 Variable       Old X    -DE/DX   Delta X   Delta X   Delta X     New X
                                 (Linear)    (Quad)   (Total)
    R1        2.01806  -0.00270  -0.00085  -0.00084  -0.00169   2.01637
    R2        2.59825  -0.01108  -0.00050  -0.01614  -0.01667   2.58158
    R3        2.56544  -0.00171  -0.00086   0.00326   0.00234   2.56778
    R4        2.01898  -0.00403  -0.00088  -0.00335  -0.00423   2.01475
    R5        2.67196   0.00407  -0.00100   0.01001   0.00904   2.68100
    R6        2.01840  -0.00346  -0.00086  -0.00236  -0.00322   2.01518
    R7        2.50368  -0.01034  -0.00042  -0.01151  -0.01187   2.49180
    R8        2.55377   0.01576  -0.00152   0.02723   0.02570   2.57947
    R9        1.88420  -0.00424  -0.00064  -0.00345  -0.00409   1.88011
    A1        2.28719   0.00052  -0.00074   0.00494   0.00424   2.29143
    A2        2.12657   0.00279   0.00114   0.00992   0.01110   2.13766
    A3        1.86943  -0.00331  -0.00040  -0.01486  -0.01533   1.85409
    A4        2.22542  -0.00240  -0.00011  -0.00611  -0.00623   2.21920
    A5        1.82680   0.00416   0.00017   0.00859   0.00877   1.83556
    A6        2.23097  -0.00176  -0.00006  -0.00248  -0.00254   2.22843
    A7        2.25009  -0.00274  -0.00057  -0.00866  -0.00926   2.24083
    A8        1.93749   0.00372  -0.00021   0.01283   0.01270   1.95019
    A9        2.09560  -0.00097   0.00077  -0.00418  -0.00344   2.09217
   A10        1.84522  -0.00809   0.00000  -0.02614  -0.02610   1.81912
   A11        1.94584   0.00353   0.00044   0.01958   0.01996   1.96581
   A12        2.25563  -0.00263  -0.00110  -0.01092  -0.01198   2.24364
   A13        2.08172  -0.00090   0.00065  -0.00866  -0.00798   2.07374
    D1        0.00000   0.00000   0.00000   0.00000   0.00000   0.00000
    D2        3.14159   0.00000   0.00000   0.00000   0.00000   3.14159
    D3        3.14159   0.00000   0.00000   0.00000   0.00000   3.14159
    D4        0.00000   0.00000   0.00000   0.00000   0.00000   0.00000
    D5        3.14159   0.00000   0.00000   0.00000   0.00000   3.14159
    D6        0.00000   0.00000   0.00000   0.00000   0.00000   0.00000
    D7        0.00000   0.00000   0.00000   0.00000   0.00000   0.00000
    D8        3.14159   0.00000   0.00000   0.00000   0.00000   3.14159
    D9        3.14159   0.00000   0.00000   0.00000   0.00000   3.14159
   D10        0.00000   0.00000   0.00000   0.00000   0.00000   0.00000
   D11        0.00000   0.00000   0.00000   0.00000   0.00000   0.00000
   D12        3.14159   0.00000   0.00000   0.00000   0.00000   3.14159
   D13        0.00000   0.00000   0.00000   0.00000   0.00000   0.00000
   D14        3.14159   0.00000   0.00000   0.00000   0.00000   3.14159
   D15        0.00000   0.00000   0.00000   0.00000   0.00000   0.00000
   D16        3.14159   0.00000   0.00000   0.00000   0.00000   3.14159
         Item               Value     Threshold  Converged?
 Maximum Force            0.015758     0.000450     NO 
 RMS     Force            0.004305     0.000300     NO 
 Maximum Displacement     0.028932     0.001800     NO 
 RMS     Displacement     0.010409     0.001200     NO 
 Predicted change in Energy=-6.635347D-04
 GradGradGradGradGradGradGradGradGradGradGradGradGradGradGradGradGradGrad

                          Input orientation:                          
 ---------------------------------------------------------------------
 Center     Atomic     Atomic              Coordinates (Angstroms)
 Number     Number      Type              X           Y           Z
 ---------------------------------------------------------------------
    1          1             0       -1.871125    0.000000   -1.184898
    2          6             0       -0.935913    0.000000   -0.671185
    3          1             0        0.664002    0.000000   -2.155244
    4          6             0        0.348379    0.000000   -1.136873
    5          1             0        2.228801    0.000000    0.085024
    6          6             0        1.164171    0.000000    0.023843
    7          7             0        0.442897    0.000000    1.127691
    8          1             0       -1.584694    0.000000    1.353744
    9          7             0       -0.848248    0.000000    0.684795
 ---------------------------------------------------------------------
                    Distance matrix (angstroms):
                    1          2          3          4          5
     1  H    0.000000
     2  C    1.067016   0.000000
     3  H    2.714487   2.182237   0.000000
     4  C    2.220024   1.366116   1.066159   0.000000
     5  H    4.292096   3.253807   2.732653   2.242547   0.000000
     6  C    3.267121   2.212107   2.235752   1.418724   1.066386
     7  N    3.271508   2.266511   3.290372   2.266536   2.067996
     8  H    2.554749   2.126324   4.167688   3.152768   4.019004
     9  N    2.131204   1.358811   3.217564   2.179539   3.134956
                    6          7          8          9
     6  C    0.000000
     7  N    1.318605   0.000000
     8  H    3.053670   2.040153   0.000000
     9  N    2.118180   1.364995   0.994910   0.000000
 Stoichiometry    C3H4N2
 Framework group  CS[SG(C3H4N2)]
 Deg. of freedom   15
 Full point group                 CS      NOp   2
 Largest Abelian subgroup         CS      NOp   2
 Largest concise Abelian subgroup C1      NOp   1
                         Standard orientation:                         
 ---------------------------------------------------------------------
 Center     Atomic     Atomic              Coordinates (Angstroms)
 Number     Number      Type              X           Y           Z
 ---------------------------------------------------------------------
    1          1             0        2.098270    0.716830    0.000000
    2          6             0        1.112135    0.309327    0.000000
    3          1             0        1.267423   -1.867378    0.000000
    4          6             0        0.671044   -0.983620    0.000000
    5          1             0       -1.459114   -1.684650    0.000000
    6          6             0       -0.744776   -0.892880    0.000000
    7          7             0       -1.153794    0.360684    0.000000
    8          1             0       -0.060433    2.083120    0.000000
    9          7             0        0.000000    1.090046    0.000000
 ---------------------------------------------------------------------
 Rotational constants (GHZ):      9.7129803      9.4092324      4.7793470
 Isotopes: H-1,C-12,H-1,C-12,H-1,C-12,N-14,H-1,N-14
 Standard basis: 3-21G (6D, 7F)
 There are    43 symmetry adapted basis functions of A'  symmetry.
 There are    10 symmetry adapted basis functions of A"  symmetry.
 Crude estimate of integral set expansion from redundant integrals=1.000.
 Integral buffers will be    262144 words long.
 Raffenetti 1 integral format.
 Two-electron integral symmetry is turned on.
    53 basis functions       87 primitive gaussians
    18 alpha electrons       18 beta electrons
       nuclear repulsion energy       163.2711781504 Hartrees.
 One-electron integrals computed using PRISM.
 NBasis=    53 RedAO= T  NBF=    43    10
 NBsUse=    53 1.00D-04 NBFU=    43    10
 Initial guess read from the read-write file:
 Initial guess orbital symmetries:
       Occupied  (A') (A') (A') (A') (A') (A') (A') (A') (A') (A')
                 (A') (A') (A") (A') (A') (A') (A") (A")
       Virtual   (A") (A") (A') (A') (A') (A') (A') (A') (A') (A')
                 (A') (A') (A") (A') (A') (A") (A") (A') (A') (A')
                 (A') (A') (A") (A') (A') (A") (A') (A') (A') (A')
                 (A') (A') (A') (A') (A')
 Requested convergence on RMS density matrix=1.00D-08 within  64 cycles.
 Requested convergence on MAX density matrix=1.00D-06.
 Keep R1 integrals in memory in canonical form, NReq=     1438530.
 SCF Done:  E(RHF) =  -223.525213116     A.U. after   13 cycles
             Convg  =    0.1742D-08             -V/T =  2.0022
             S**2   =   0.0000
 ***** Axes restored to original set *****
 -------------------------------------------------------------------
 Center     Atomic                   Forces (Hartrees/Bohr)
 Number     Number              X              Y              Z
 -------------------------------------------------------------------
    1          1           0.002074549    0.000000000    0.001061442
    2          6           0.005500427    0.000000000    0.003512804
    3          1           0.000160190    0.000000000    0.002167501
    4          6          -0.001162940    0.000000000   -0.002954946
    5          1          -0.001601446    0.000000000   -0.001516508
    6          6           0.002133738    0.000000000    0.003865334
    7          7           0.008035736    0.000000000   -0.006671741
    8          1           0.000967106    0.000000000   -0.001678568
    9          7          -0.016107361    0.000000000    0.002214683
 -------------------------------------------------------------------
 Cartesian Forces:  Max     0.016107361 RMS     0.004147202

 GradGradGradGradGradGradGradGradGradGradGradGradGradGradGradGradGradGrad
 Berny optimization.
 Internal  Forces:  Max     0.007521123 RMS     0.002318144
 Search for a local minimum.
 Step number   4 out of a maximum of  48
 All quantities printed in internal units (Hartrees-Bohrs-Radians)
 Update second derivatives using information from points  1  2  3  4
 Trust test= 8.76D-01 RLast= 5.71D-02 DXMaxT set to 6.00D-01
     Eigenvalues ---    0.03203   0.03247   0.03252   0.03273   0.03341
     Eigenvalues ---    0.03372   0.15533   0.15882   0.16003   0.16023
     Eigenvalues ---    0.21972   0.35258   0.43480   0.49498   0.49761
     Eigenvalues ---    0.50902   0.59127   0.60083   0.61513   0.73456
     Eigenvalues ---    0.783861000.000001000.000001000.000001000.00000
     Eigenvalues --- 1000.000001000.000001000.000001000.000001000.00000
     Eigenvalues --- 1000.000001000.000001000.000001000.000001000.00000
     Eigenvalues --- 1000.000001000.000001000.00000
 RFO step:  Lambda=-4.19460034D-04.
 Quartic linear search produced a step of -0.11132.
 Iteration  1 RMS(Cart)=  0.00563827 RMS(Int)=  0.00002618
 Iteration  2 RMS(Cart)=  0.00002378 RMS(Int)=  0.00001388
 Iteration  3 RMS(Cart)=  0.00000000 RMS(Int)=  0.00001388
 Variable       Old X    -DE/DX   Delta X   Delta X   Delta X     New X
                                 (Linear)    (Quad)   (Total)
    R1        2.01637  -0.00233   0.00019  -0.00282  -0.00263   2.01374
    R2        2.58158  -0.00044   0.00186  -0.00676  -0.00490   2.57669
    R3        2.56778  -0.00260  -0.00026   0.00030   0.00007   2.56785
    R4        2.01475  -0.00202   0.00047  -0.00338  -0.00291   2.01184
    R5        2.68100  -0.00148  -0.00101   0.00382   0.00279   2.68379
    R6        2.01518  -0.00169   0.00036  -0.00247  -0.00211   2.01307
    R7        2.49180  -0.00282   0.00132  -0.00714  -0.00584   2.48597
    R8        2.57947   0.00752  -0.00286   0.02074   0.01789   2.59736
    R9        1.88011  -0.00184   0.00046  -0.00298  -0.00252   1.87759
    A1        2.29143  -0.00218  -0.00047  -0.00589  -0.00638   2.28505
    A2        2.13766  -0.00204  -0.00124  -0.00239  -0.00364   2.13403
    A3        1.85409   0.00422   0.00171   0.00828   0.01002   1.86411
    A4        2.21920   0.00071   0.00069   0.00291   0.00361   2.22281
    A5        1.83556   0.00018  -0.00098   0.00076  -0.00022   1.83534
    A6        2.22843  -0.00089   0.00028  -0.00368  -0.00339   2.22504
    A7        2.24083  -0.00074   0.00103  -0.00813  -0.00708   2.23374
    A8        1.95019  -0.00139  -0.00141  -0.00058  -0.00203   1.94816
    A9        2.09217   0.00213   0.00038   0.00871   0.00911   2.10128
   A10        1.81912   0.00362   0.00291   0.00386   0.00675   1.82587
   A11        1.96581  -0.00663  -0.00222  -0.01233  -0.01452   1.95129
   A12        2.24364   0.00276   0.00133   0.00283   0.00415   2.24779
   A13        2.07374   0.00387   0.00089   0.00949   0.01037   2.08410
    D1        0.00000   0.00000   0.00000   0.00000   0.00000   0.00000
    D2        3.14159   0.00000   0.00000   0.00000   0.00000   3.14159
    D3        3.14159   0.00000   0.00000   0.00000   0.00000   3.14159
    D4        0.00000   0.00000   0.00000   0.00000   0.00000   0.00000
    D5        3.14159   0.00000   0.00000   0.00000   0.00000   3.14159
    D6        0.00000   0.00000   0.00000   0.00000   0.00000   0.00000
    D7        0.00000   0.00000   0.00000   0.00000   0.00000   0.00000
    D8        3.14159   0.00000   0.00000   0.00000   0.00000   3.14159
    D9        3.14159   0.00000   0.00000   0.00000   0.00000   3.14159
   D10        0.00000   0.00000   0.00000   0.00000   0.00000   0.00000
   D11        0.00000   0.00000   0.00000   0.00000   0.00000   0.00000
   D12        3.14159   0.00000   0.00000   0.00000   0.00000   3.14159
   D13        0.00000   0.00000   0.00000   0.00000   0.00000   0.00000
   D14        3.14159   0.00000   0.00000   0.00000   0.00000   3.14159
   D15        0.00000   0.00000   0.00000   0.00000   0.00000   0.00000
   D16        3.14159   0.00000   0.00000   0.00000   0.00000   3.14159
         Item               Value     Threshold  Converged?
 Maximum Force            0.007521     0.000450     NO 
 RMS     Force            0.002318     0.000300     NO 
 Maximum Displacement     0.017666     0.001800     NO 
 RMS     Displacement     0.005639     0.001200     NO 
 Predicted change in Energy=-2.188645D-04
 GradGradGradGradGradGradGradGradGradGradGradGradGradGradGradGradGradGrad

                          Input orientation:                          
 ---------------------------------------------------------------------
 Center     Atomic     Atomic              Coordinates (Angstroms)
 Number     Number      Type              X           Y           Z
 ---------------------------------------------------------------------
    1          1             0       -1.866550    0.000000   -1.187494
    2          6             0       -0.934740    0.000000   -0.670500
    3          1             0        0.662771    0.000000   -2.154490
    4          6             0        0.346115    0.000000   -1.138055
    5          1             0        2.229008    0.000000    0.073835
    6          6             0        1.164986    0.000000    0.022297
    7          7             0        0.445283    0.000000    1.123484
    8          1             0       -1.595691    0.000000    1.351473
    9          7             0       -0.857751    0.000000    0.686162
 ---------------------------------------------------------------------
                    Distance matrix (angstroms):
                    1          2          3          4          5
     1  H    0.000000
     2  C    1.065623   0.000000
     3  H    2.707868   2.180428   0.000000
     4  C    2.213218   1.363523   1.064617   0.000000
     5  H    4.285388   3.250128   2.723698   2.239188   0.000000
     6  C    3.264017   2.211067   2.233969   1.420200   1.065269
     7  N    3.268821   2.263369   3.285180   2.263712   2.069646
     8  H    2.553373   2.127259   4.170423   3.157271   4.032454
     9  N    2.127972   1.358846   3.222001   2.185649   3.146907
                    6          7          8          9
     6  C    0.000000
     7  N    1.315517   0.000000
     8  H    3.063992   2.053669   0.000000
     9  N    2.128892   1.374462   0.993577   0.000000
 Stoichiometry    C3H4N2
 Framework group  CS[SG(C3H4N2)]
 Deg. of freedom   15
 Full point group                 CS      NOp   2
 Largest Abelian subgroup         CS      NOp   2
 Largest concise Abelian subgroup C1      NOp   1
                         Standard orientation:                         
 ---------------------------------------------------------------------
 Center     Atomic     Atomic              Coordinates (Angstroms)
 Number     Number      Type              X           Y           Z
 ---------------------------------------------------------------------
    1          1             0        2.093536    0.716590    0.000000
    2          6             0        1.108015    0.311249    0.000000
    3          1             0        1.270363   -1.863126    0.000000
    4          6             0        0.673864   -0.981310    0.000000
    5          1             0       -1.448203   -1.696009    0.000000
    6          6             0       -0.743822   -0.896856    0.000000
    7          7             0       -1.154974    0.352760    0.000000
    8          1             0       -0.059218    2.089675    0.000000
    9          7             0        0.000000    1.097865    0.000000
 ---------------------------------------------------------------------
 Rotational constants (GHZ):      9.6633795      9.4267514      4.7717995
 Isotopes: H-1,C-12,H-1,C-12,H-1,C-12,N-14,H-1,N-14
 Standard basis: 3-21G (6D, 7F)
 There are    43 symmetry adapted basis functions of A'  symmetry.
 There are    10 symmetry adapted basis functions of A"  symmetry.
 Crude estimate of integral set expansion from redundant integrals=1.000.
 Integral buffers will be    262144 words long.
 Raffenetti 1 integral format.
 Two-electron integral symmetry is turned on.
    53 basis functions       87 primitive gaussians
    18 alpha electrons       18 beta electrons
       nuclear repulsion energy       163.1490396928 Hartrees.
 One-electron integrals computed using PRISM.
 NBasis=    53 RedAO= T  NBF=    43    10
 NBsUse=    53 1.00D-04 NBFU=    43    10
 Initial guess read from the read-write file:
 Initial guess orbital symmetries:
       Occupied  (A') (A') (A') (A') (A') (A') (A') (A') (A') (A')
                 (A') (A') (A") (A') (A') (A') (A") (A")
       Virtual   (A") (A") (A') (A') (A') (A') (A') (A') (A') (A')
                 (A') (A') (A") (A') (A') (A") (A') (A") (A') (A')
                 (A') (A') (A") (A') (A') (A") (A') (A') (A') (A')
                 (A') (A') (A') (A') (A')
 Requested convergence on RMS density matrix=1.00D-08 within  64 cycles.
 Requested convergence on MAX density matrix=1.00D-06.
 Keep R1 integrals in memory in canonical form, NReq=     1438530.
 SCF Done:  E(RHF) =  -223.525479039     A.U. after   11 cycles
             Convg  =    0.6079D-08             -V/T =  2.0023
             S**2   =   0.0000
 ***** Axes restored to original set *****
 -------------------------------------------------------------------
 Center     Atomic                   Forces (Hartrees/Bohr)
 Number     Number              X              Y              Z
 -------------------------------------------------------------------
    1          1           0.000894841    0.000000000    0.000325353
    2          6           0.001827749    0.000000000    0.002635199
    3          1          -0.000003011    0.000000000    0.000856187
    4          6           0.000173305    0.000000000   -0.001441254
    5          1          -0.000812498    0.000000000   -0.000249030
    6          6          -0.001806627    0.000000000    0.001340998
    7          7           0.002999078    0.000000000   -0.001569747
    8          1           0.000907113    0.000000000   -0.000290054
    9          7          -0.004179949    0.000000000   -0.001607653
 -------------------------------------------------------------------
 Cartesian Forces:  Max     0.004179949 RMS     0.001390953

 GradGradGradGradGradGradGradGradGradGradGradGradGradGradGradGradGradGrad
 Berny optimization.
 Internal  Forces:  Max     0.002040554 RMS     0.000757098
 Search for a local minimum.
 Step number   5 out of a maximum of  48
 All quantities printed in internal units (Hartrees-Bohrs-Radians)
 Update second derivatives using information from points  1  2  3  4  5

 Trust test= 1.22D+00 RLast= 3.33D-02 DXMaxT set to 6.00D-01
     Eigenvalues ---    0.03203   0.03247   0.03252   0.03273   0.03341
     Eigenvalues ---    0.03372   0.14984   0.15573   0.16009   0.16228
     Eigenvalues ---    0.19596   0.35802   0.43686   0.48569   0.49571
     Eigenvalues ---    0.49784   0.58533   0.59961   0.60771   0.72257
     Eigenvalues ---    0.745951000.000001000.000001000.000001000.00000
     Eigenvalues --- 1000.000001000.000001000.000001000.000001000.00000
     Eigenvalues --- 1000.000001000.000001000.000001000.000001000.00000
     Eigenvalues --- 1000.000001000.000001000.00000
 RFO step:  Lambda=-4.27402194D-05.
 Quartic linear search produced a step of  0.28118.
 Iteration  1 RMS(Cart)=  0.00256138 RMS(Int)=  0.00000585
 Iteration  2 RMS(Cart)=  0.00000556 RMS(Int)=  0.00000376
 Iteration  3 RMS(Cart)=  0.00000000 RMS(Int)=  0.00000376
 Variable       Old X    -DE/DX   Delta X   Delta X   Delta X     New X
                                 (Linear)    (Quad)   (Total)
    R1        2.01374  -0.00094  -0.00074  -0.00131  -0.00205   2.01169
    R2        2.57669  -0.00067  -0.00138  -0.00164  -0.00301   2.57367
    R3        2.56785  -0.00204   0.00002  -0.00242  -0.00239   2.56545
    R4        2.01184  -0.00082  -0.00082  -0.00120  -0.00202   2.00982
    R5        2.68379  -0.00107   0.00078  -0.00093  -0.00015   2.68363
    R6        2.01307  -0.00082  -0.00059  -0.00132  -0.00191   2.01116
    R7        2.48597  -0.00202  -0.00164  -0.00318  -0.00483   2.48114
    R8        2.59736   0.00153   0.00503   0.00218   0.00722   2.60457
    R9        1.87759  -0.00087  -0.00071  -0.00121  -0.00192   1.87567
    A1        2.28505  -0.00078  -0.00179  -0.00290  -0.00470   2.28035
    A2        2.13403  -0.00048  -0.00102  -0.00037  -0.00140   2.13263
    A3        1.86411   0.00125   0.00282   0.00327   0.00610   1.87021
    A4        2.22281   0.00063   0.00102   0.00340   0.00442   2.22722
    A5        1.83534  -0.00074  -0.00006  -0.00462  -0.00469   1.83065
    A6        2.22504   0.00012  -0.00095   0.00122   0.00027   2.22531
    A7        2.23374  -0.00055  -0.00199  -0.00293  -0.00491   2.22883
    A8        1.94816   0.00068  -0.00057   0.00548   0.00490   1.95306
    A9        2.10128  -0.00013   0.00256  -0.00255   0.00001   2.10129
   A10        1.82587   0.00003   0.00190  -0.00357  -0.00168   1.82419
   A11        1.95129  -0.00121  -0.00408  -0.00055  -0.00462   1.94667
   A12        2.24779   0.00098   0.00117   0.00392   0.00509   2.25288
   A13        2.08410   0.00024   0.00291  -0.00337  -0.00046   2.08364
    D1        0.00000   0.00000   0.00000   0.00000   0.00000   0.00000
    D2        3.14159   0.00000   0.00000   0.00000   0.00000   3.14159
    D3        3.14159   0.00000   0.00000   0.00000   0.00000   3.14159
    D4        0.00000   0.00000   0.00000   0.00000   0.00000   0.00000
    D5        3.14159   0.00000   0.00000   0.00000   0.00000   3.14159
    D6        0.00000   0.00000   0.00000   0.00000   0.00000   0.00000
    D7        0.00000   0.00000   0.00000   0.00000   0.00000   0.00000
    D8        3.14159   0.00000   0.00000   0.00000   0.00000   3.14159
    D9        3.14159   0.00000   0.00000   0.00000   0.00000   3.14159
   D10        0.00000   0.00000   0.00000   0.00000   0.00000   0.00000
   D11        0.00000   0.00000   0.00000   0.00000   0.00000   0.00000
   D12        3.14159   0.00000   0.00000   0.00000   0.00000   3.14159
   D13        0.00000   0.00000   0.00000   0.00000   0.00000   0.00000
   D14        3.14159   0.00000   0.00000   0.00000   0.00000   3.14159
   D15        0.00000   0.00000   0.00000   0.00000   0.00000   0.00000
   D16        3.14159   0.00000   0.00000   0.00000   0.00000   3.14159
         Item               Value     Threshold  Converged?
 Maximum Force            0.002041     0.000450     NO 
 RMS     Force            0.000757     0.000300     NO 
 Maximum Displacement     0.008331     0.001800     NO 
 RMS     Displacement     0.002562     0.001200     NO 
 Predicted change in Energy=-3.491764D-05
 GradGradGradGradGradGradGradGradGradGradGradGradGradGradGradGradGradGrad

                          Input orientation:                          
 ---------------------------------------------------------------------
 Center     Atomic     Atomic              Coordinates (Angstroms)
 Number     Number      Type              X           Y           Z
 ---------------------------------------------------------------------
    1          1             0       -1.862154    0.000000   -1.188290
    2          6             0       -0.932362    0.000000   -0.669899
    3          1             0        0.663913    0.000000   -2.155118
    4          6             0        0.345761    0.000000   -1.140271
    5          1             0        2.225351    0.000000    0.070150
    6          6             0        1.162197    0.000000    0.021697
    7          7             0        0.447016    0.000000    1.122782
    8          1             0       -1.596254    0.000000    1.351580
    9          7             0       -0.860144    0.000000    0.685758
 ---------------------------------------------------------------------
                    Distance matrix (angstroms):
                    1          2          3          4          5
     1  H    0.000000
     2  C    1.064538   0.000000
     3  H    2.704768   2.180360   0.000000
     4  C    2.208437   1.361928   1.063549   0.000000
     5  H    4.276841   3.243274   2.718439   2.235616   0.000000
     6  C    3.257417   2.205784   2.233117   1.420118   1.064257
     7  N    3.267005   2.261944   3.285068   2.265317   2.066520
     8  H    2.553751   2.127705   4.171964   3.159231   4.030722
     9  N    2.125107   1.357580   3.223869   2.188285   3.146308
                    6          7          8          9
     6  C    0.000000
     7  N    1.312963   0.000000
     8  H    3.062293   2.056040   0.000000
     9  N    2.128577   1.378281   0.992560   0.000000
 Stoichiometry    C3H4N2
 Framework group  CS[SG(C3H4N2)]
 Deg. of freedom   15
 Full point group                 CS      NOp   2
 Largest Abelian subgroup         CS      NOp   2
 Largest concise Abelian subgroup C1      NOp   1
                         Standard orientation:                         
 ---------------------------------------------------------------------
 Center     Atomic     Atomic              Coordinates (Angstroms)
 Number     Number      Type              X           Y           Z
 ---------------------------------------------------------------------
    1          1             0        2.089993    0.715043    0.000000
    2          6             0        1.105046    0.311160    0.000000
    3          1             0        1.271316   -1.862852    0.000000
    4          6             0        0.676103   -0.981456    0.000000
    5          1             0       -1.442035   -1.696625    0.000000
    6          6             0       -0.741413   -0.895518    0.000000
    7          7             0       -1.156563    0.350083    0.000000
    8          1             0       -0.061759    2.090400    0.000000
    9          7             0        0.000000    1.099763    0.000000
 ---------------------------------------------------------------------
 Rotational constants (GHZ):      9.6625123      9.4374969      4.7743396
 Isotopes: H-1,C-12,H-1,C-12,H-1,C-12,N-14,H-1,N-14
 Standard basis: 3-21G (6D, 7F)
 There are    43 symmetry adapted basis functions of A'  symmetry.
 There are    10 symmetry adapted basis functions of A"  symmetry.
 Crude estimate of integral set expansion from redundant integrals=1.000.
 Integral buffers will be    262144 words long.
 Raffenetti 1 integral format.
 Two-electron integral symmetry is turned on.
    53 basis functions       87 primitive gaussians
    18 alpha electrons       18 beta electrons
       nuclear repulsion energy       163.1975345033 Hartrees.
 One-electron integrals computed using PRISM.
 NBasis=    53 RedAO= T  NBF=    43    10
 NBsUse=    53 1.00D-04 NBFU=    43    10
 Initial guess read from the read-write file:
 Initial guess orbital symmetries:
       Occupied  (A') (A') (A') (A') (A') (A') (A') (A') (A') (A')
                 (A') (A') (A") (A') (A') (A') (A") (A")
       Virtual   (A") (A") (A') (A') (A') (A') (A') (A') (A') (A')
                 (A') (A') (A") (A') (A') (A") (A') (A") (A') (A')
                 (A') (A') (A") (A') (A') (A") (A') (A') (A') (A')
                 (A') (A') (A') (A') (A')
 Requested convergence on RMS density matrix=1.00D-08 within  64 cycles.
 Requested convergence on MAX density matrix=1.00D-06.
 Keep R1 integrals in memory in canonical form, NReq=     1438530.
 SCF Done:  E(RHF) =  -223.525509149     A.U. after   12 cycles
             Convg  =    0.1434D-08             -V/T =  2.0022
             S**2   =   0.0000
 ***** Axes restored to original set *****
 -------------------------------------------------------------------
 Center     Atomic                   Forces (Hartrees/Bohr)
 Number     Number              X              Y              Z
 -------------------------------------------------------------------
    1          1          -0.000087000    0.000000000   -0.000051126
    2          6          -0.001028281    0.000000000    0.001168499
    3          1          -0.000031222    0.000000000    0.000114637
    4          6           0.000524422    0.000000000    0.000805111
    5          1           0.000137741    0.000000000    0.000071877
    6          6           0.000632164    0.000000000   -0.000191781
    7          7           0.000085978    0.000000000   -0.000506353
    8          1           0.000025075    0.000000000    0.000063412
    9          7          -0.000258876    0.000000000   -0.001474275
 -------------------------------------------------------------------
 Cartesian Forces:  Max     0.001474275 RMS     0.000484568

 GradGradGradGradGradGradGradGradGradGradGradGradGradGradGradGradGradGrad
 Berny optimization.
 Internal  Forces:  Max     0.001336206 RMS     0.000344936
 Search for a local minimum.
 Step number   6 out of a maximum of  48
 All quantities printed in internal units (Hartrees-Bohrs-Radians)
 Update second derivatives using information from points  1  2  3  4  5
                                                        6
 Trust test= 8.62D-01 RLast= 1.75D-02 DXMaxT set to 6.00D-01
     Eigenvalues ---    0.03202   0.03247   0.03252   0.03273   0.03341
     Eigenvalues ---    0.03372   0.14883   0.15606   0.16008   0.16246
     Eigenvalues ---    0.25784   0.30745   0.42906   0.47654   0.49561
     Eigenvalues ---    0.49907   0.57931   0.59926   0.61322   0.68191
     Eigenvalues ---    0.756431000.000001000.000001000.000001000.00000
     Eigenvalues --- 1000.000001000.000001000.000001000.000001000.00000
     Eigenvalues --- 1000.000001000.000001000.000001000.000001000.00000
     Eigenvalues --- 1000.000001000.000001000.00000
 RFO step:  Lambda=-8.38290074D-06.
 Quartic linear search produced a step of -0.11661.
 Iteration  1 RMS(Cart)=  0.00091918 RMS(Int)=  0.00000048
 Iteration  2 RMS(Cart)=  0.00000047 RMS(Int)=  0.00000017
 Variable       Old X    -DE/DX   Delta X   Delta X   Delta X     New X
                                 (Linear)    (Quad)   (Total)
    R1        2.01169   0.00010   0.00024  -0.00023   0.00001   2.01169
    R2        2.57367   0.00078   0.00035   0.00054   0.00089   2.57456
    R3        2.56545  -0.00134   0.00028  -0.00217  -0.00190   2.56356
    R4        2.00982  -0.00012   0.00024  -0.00062  -0.00038   2.00943
    R5        2.68363  -0.00032   0.00002  -0.00046  -0.00044   2.68319
    R6        2.01116   0.00014   0.00022  -0.00014   0.00008   2.01124
    R7        2.48114  -0.00029   0.00056  -0.00127  -0.00071   2.48043
    R8        2.60457   0.00043  -0.00084   0.00165   0.00081   2.60538
    R9        1.87567   0.00002   0.00022  -0.00035  -0.00013   1.87554
    A1        2.28035   0.00019   0.00055  -0.00012   0.00043   2.28078
    A2        2.13263   0.00019   0.00016   0.00067   0.00083   2.13346
    A3        1.87021  -0.00038  -0.00071  -0.00055  -0.00126   1.86895
    A4        2.22722  -0.00027  -0.00052  -0.00030  -0.00082   2.22641
    A5        1.83065   0.00055   0.00055   0.00142   0.00197   1.83262
    A6        2.22531  -0.00028  -0.00003  -0.00112  -0.00115   2.22416
    A7        2.22883   0.00043   0.00057   0.00075   0.00132   2.23015
    A8        1.95306  -0.00074  -0.00057  -0.00162  -0.00219   1.95087
    A9        2.10129   0.00030   0.00000   0.00087   0.00087   2.10216
   A10        1.82419   0.00045   0.00020   0.00116   0.00136   1.82555
   A11        1.94667   0.00012   0.00054  -0.00041   0.00012   1.94679
   A12        2.25288   0.00000  -0.00059   0.00115   0.00055   2.25343
   A13        2.08364  -0.00012   0.00005  -0.00073  -0.00068   2.08296
    D1        0.00000   0.00000   0.00000   0.00000   0.00000   0.00000
    D2        3.14159   0.00000   0.00000   0.00000   0.00000   3.14159
    D3        3.14159   0.00000   0.00000   0.00000   0.00000   3.14159
    D4        0.00000   0.00000   0.00000   0.00000   0.00000   0.00000
    D5        3.14159   0.00000   0.00000   0.00000   0.00000   3.14159
    D6        0.00000   0.00000   0.00000   0.00000   0.00000   0.00000
    D7        0.00000   0.00000   0.00000   0.00000   0.00000   0.00000
    D8        3.14159   0.00000   0.00000   0.00000   0.00000   3.14159
    D9        3.14159   0.00000   0.00000   0.00000   0.00000   3.14159
   D10        0.00000   0.00000   0.00000   0.00000   0.00000   0.00000
   D11        0.00000   0.00000   0.00000   0.00000   0.00000   0.00000
   D12        3.14159   0.00000   0.00000   0.00000   0.00000   3.14159
   D13        0.00000   0.00000   0.00000   0.00000   0.00000   0.00000
   D14        3.14159   0.00000   0.00000   0.00000   0.00000   3.14159
   D15        0.00000   0.00000   0.00000   0.00000   0.00000   0.00000
   D16        3.14159   0.00000   0.00000   0.00000   0.00000   3.14159
         Item               Value     Threshold  Converged?
 Maximum Force            0.001336     0.000450     NO 
 RMS     Force            0.000345     0.000300     NO 
 Maximum Displacement     0.002353     0.001800     NO 
 RMS     Displacement     0.000919     0.001200     YES
 Predicted change in Energy=-4.725162D-06
 GradGradGradGradGradGradGradGradGradGradGradGradGradGradGradGradGradGrad

                          Input orientation:                          
 ---------------------------------------------------------------------
 Center     Atomic     Atomic              Coordinates (Angstroms)
 Number     Number      Type              X           Y           Z
 ---------------------------------------------------------------------
    1          1             0       -1.862704    0.000000   -1.188729
    2          6             0       -0.933120    0.000000   -0.669959
    3          1             0        0.663947    0.000000   -2.154075
    4          6             0        0.345837    0.000000   -1.139427
    5          1             0        2.226641    0.000000    0.070080
    6          6             0        1.163453    0.000000    0.021423
    7          7             0        0.447313    0.000000    1.121435
    8          1             0       -1.595792    0.000000    1.351160
    9          7             0       -0.860383    0.000000    0.684666
 ---------------------------------------------------------------------
                    Distance matrix (angstroms):
                    1          2          3          4          5
     1  H    0.000000
     2  C    1.064541   0.000000
     3  H    2.704784   2.180189   0.000000
     4  C    2.209092   1.362400   1.063346   0.000000
     5  H    4.278708   3.245266   2.718249   2.236142   0.000000
     6  C    3.259155   2.207630   2.232106   1.419883   1.064301
     7  N    3.266961   2.261568   3.282666   2.263138   2.066726
     8  H    2.553875   2.126982   4.170502   3.157997   4.031397
     9  N    2.124678   1.356577   3.222116   2.186843   3.147607
                    6          7          8          9
     6  C    0.000000
     7  N    1.312586   0.000000
     8  H    3.062945   2.055979   0.000000
     9  N    2.129742   1.378708   0.992492   0.000000
 Stoichiometry    C3H4N2
 Framework group  CS[SG(C3H4N2)]
 Deg. of freedom   15
 Full point group                 CS      NOp   2
 Largest Abelian subgroup         CS      NOp   2
 Largest concise Abelian subgroup C1      NOp   1
                         Standard orientation:                         
 ---------------------------------------------------------------------
 Center     Atomic     Atomic              Coordinates (Angstroms)
 Number     Number      Type              X           Y           Z
 ---------------------------------------------------------------------
    1          1             0        2.089952    0.717051    0.000000
    2          6             0        1.105128    0.312860    0.000000
    3          1             0        1.271601   -1.860965    0.000000
    4          6             0        0.675886   -0.980154    0.000000
    5          1             0       -1.441780   -1.698362    0.000000
    6          6             0       -0.741552   -0.896852    0.000000
    7          7             0       -1.156159    0.348533    0.000000
    8          1             0       -0.063431    2.090083    0.000000
    9          7             0        0.000000    1.099620    0.000000
 ---------------------------------------------------------------------
 Rotational constants (GHZ):      9.6634944      9.4401216      4.7752511
 Isotopes: H-1,C-12,H-1,C-12,H-1,C-12,N-14,H-1,N-14
 Standard basis: 3-21G (6D, 7F)
 There are    43 symmetry adapted basis functions of A'  symmetry.
 There are    10 symmetry adapted basis functions of A"  symmetry.
 Crude estimate of integral set expansion from redundant integrals=1.000.
 Integral buffers will be    262144 words long.
 Raffenetti 1 integral format.
 Two-electron integral symmetry is turned on.
    53 basis functions       87 primitive gaussians
    18 alpha electrons       18 beta electrons
       nuclear repulsion energy       163.2123122670 Hartrees.
 One-electron integrals computed using PRISM.
 NBasis=    53 RedAO= T  NBF=    43    10
 NBsUse=    53 1.00D-04 NBFU=    43    10
 Initial guess read from the read-write file:
 Initial guess orbital symmetries:
       Occupied  (A') (A') (A') (A') (A') (A') (A') (A') (A') (A')
                 (A') (A') (A") (A') (A') (A') (A") (A")
       Virtual   (A") (A") (A') (A') (A') (A') (A') (A') (A') (A')
                 (A') (A') (A") (A') (A') (A") (A') (A") (A') (A')
                 (A') (A') (A") (A') (A') (A") (A') (A') (A') (A')
                 (A') (A') (A') (A') (A')
 Requested convergence on RMS density matrix=1.00D-08 within  64 cycles.
 Requested convergence on MAX density matrix=1.00D-06.
 Keep R1 integrals in memory in canonical form, NReq=     1438530.
 SCF Done:  E(RHF) =  -223.525513091     A.U. after   10 cycles
             Convg  =    0.5303D-08             -V/T =  2.0022
             S**2   =   0.0000
 ***** Axes restored to original set *****
 -------------------------------------------------------------------
 Center     Atomic                   Forces (Hartrees/Bohr)
 Number     Number              X              Y              Z
 -------------------------------------------------------------------
    1          1          -0.000034234    0.000000000   -0.000076361
    2          6          -0.000093609    0.000000000    0.000607452
    3          1          -0.000017016    0.000000000   -0.000117087
    4          6           0.000448013    0.000000000   -0.000144875
    5          1           0.000053945    0.000000000    0.000045311
[...]
   4   6     0.13  -0.03   0.00    -0.06  -0.20   0.00    -0.02   0.04   0.00
   5   1     0.21  -0.22   0.00     0.37  -0.21   0.00     0.49   0.56   0.00
   6   6    -0.10   0.06   0.00    -0.10   0.18   0.00    -0.04  -0.05   0.00
   7   7     0.01   0.00   0.00     0.06  -0.11   0.00     0.00   0.00   0.00
   8   1    -0.70  -0.13   0.00     0.60   0.02   0.00     0.00   0.01   0.00
   9   7     0.15  -0.06   0.00    -0.09  -0.02   0.00     0.00   0.00   0.00
                    19                     20                     21
                    A'                     A'                     A'
 Frequencies --  3457.5596              3483.6619              3877.3988
 Red. masses --     1.0965                 1.1068                 1.0833
 Frc consts  --     7.7233                 7.9137                 9.5956
 IR Inten    --     3.2262                 0.1114               133.5514
 Raman Activ --    13.1812               103.2016                84.6988
 Depolar     --     0.7254                 0.0947                 0.2988
 Atom AN      X      Y      Z        X      Y      Z        X      Y      Z
   1   1     0.72   0.30   0.00    -0.42  -0.18   0.00     0.02   0.00   0.00
   2   6    -0.06  -0.03   0.00     0.04   0.02   0.00     0.00   0.00   0.00
   3   1    -0.13   0.18   0.00    -0.46   0.69   0.00     0.00   0.00   0.00
   4   6     0.01  -0.01   0.00     0.04  -0.07   0.00     0.00   0.00   0.00
   5   1     0.39   0.44   0.00     0.20   0.23   0.00     0.00   0.00   0.00
   6   6    -0.03  -0.04   0.00    -0.02  -0.02   0.00     0.00   0.00   0.00
   7   7     0.00   0.00   0.00     0.00   0.00   0.00     0.00   0.00   0.00
   8   1     0.00  -0.01   0.00     0.00   0.02   0.00    -0.07   0.99   0.00
   9   7     0.00   0.00   0.00     0.00   0.00   0.00     0.01  -0.08   0.00

 -------------------
 - Thermochemistry -
 -------------------
 Temperature   298.150 Kelvin.  Pressure   1.00000 Atm.
 Atom  1 has atomic number  1 and mass   1.00783
 Atom  2 has atomic number  6 and mass  12.00000
 Atom  3 has atomic number  1 and mass   1.00783
 Atom  4 has atomic number  6 and mass  12.00000
 Atom  5 has atomic number  1 and mass   1.00783
 Atom  6 has atomic number  6 and mass  12.00000
 Atom  7 has atomic number  7 and mass  14.00307
 Atom  8 has atomic number  1 and mass   1.00783
 Atom  9 has atomic number  7 and mass  14.00307
 Molecular mass:    68.03745 amu.
 Principal axes and moments of inertia in atomic units:
                           1         2         3
     EIGENVALUES --   186.75865 191.17775 377.93639
           X            0.99990  -0.01405   0.00000
           Y            0.01405   0.99990   0.00000
           Z            0.00000   0.00000   1.00000
 THIS MOLECULE IS AN ASYMMETRIC TOP.
 ROTATIONAL SYMMETRY NUMBER  1.
 ROTATIONAL TEMPERATURES (KELVIN)      0.46377     0.45305     0.22917
 ROTATIONAL CONSTANTS (GHZ)            9.66349     9.44012     4.77525
 Zero-point vibrational energy     202032.9 (Joules/Mol)
                                   48.28701 (Kcal/Mol)
 VIBRATIONAL TEMPERATURES:    972.28  1036.47  1067.47  1307.67  1440.48
          (KELVIN)           1497.01  1500.06  1536.88  1599.62  1619.22
                             1700.56  1791.54  1982.79  2151.48  2179.03
                             2244.93  2439.30  4965.37  4974.63  5012.18
                             5578.68
 
 Zero-point correction=                           0.076950 (Hartree/Particle)
 Thermal correction to Energy=                    0.080389
 Thermal correction to Enthalpy=                  0.081333
 Thermal correction to Gibbs Free Energy=         0.050795
 Sum of electronic and zero-point Energies=           -223.448563
 Sum of electronic and thermal Energies=              -223.445124
 Sum of electronic and thermal Enthalpies=            -223.444180
 Sum of electronic and thermal Free Energies=         -223.474718
 
                     E (Thermal)             CV                S
                      KCAL/MOL        CAL/MOL-KELVIN    CAL/MOL-KELVIN
 TOTAL                   50.445             11.502             64.274
 ELECTRONIC               0.000              0.000              0.000
 TRANSLATIONAL            0.889              2.981             38.570
 ROTATIONAL               0.889              2.981             24.116
 VIBRATIONAL             48.668              5.541              1.588
                       Q            LOG10(Q)             LN(Q)
 TOTAL BOT       0.432631D-23        -23.363882        -53.797327
 TOTAL V=0       0.107285D+13         12.030538         27.701338
 VIB (BOT)       0.471647D-35        -35.326383        -81.342002
 VIB (V=0)       0.116960D+01          0.068038          0.156663
 ELECTRONIC      0.100000D+01          0.000000          0.000000
 TRANSLATIONAL   0.220588D+08          7.343582         16.909224
 ROTATIONAL      0.415832D+05          4.618918         10.635451
 ***** Axes restored to original set *****
 -------------------------------------------------------------------
 Center     Atomic                   Forces (Hartrees/Bohr)
 Number     Number              X              Y              Z
 -------------------------------------------------------------------
    1          1          -0.000034230    0.000000000   -0.000076362
    2          6          -0.000093609    0.000000000    0.000607452
    3          1          -0.000017015    0.000000000   -0.000117089
    4          6           0.000448005    0.000000000   -0.000144875
    5          1           0.000053947    0.000000000    0.000045310
    6          6          -0.000398487    0.000000000   -0.000477197
    7          7          -0.000238584    0.000000000    0.000583861
    8          1          -0.000022280    0.000000000    0.000112354
    9          7           0.000302254    0.000000000   -0.000533455
 -------------------------------------------------------------------
 Cartesian Forces:  Max     0.000607452 RMS     0.000258113

 GradGradGradGradGradGradGradGradGradGradGradGradGradGradGradGradGradGrad
 Berny optimization.
 Internal  Forces:  Max     0.000348644 RMS     0.000130967
 Search for a local minimum.
 Step number   1 out of a maximum of  48
 All quantities printed in internal units (Hartrees-Bohrs-Radians)
 Second derivative matrix not updated -- analytic derivatives used.
     Eigenvalues ---    0.01189   0.01758   0.02384   0.03672   0.07004
     Eigenvalues ---    0.07881   0.11427   0.12555   0.12652   0.13578
     Eigenvalues ---    0.23910   0.27429   0.34390   0.41174   0.41869
     Eigenvalues ---    0.42287   0.43947   0.46036   0.53412   0.56871
     Eigenvalues ---    0.640631000.000001000.000001000.000001000.00000
     Eigenvalues --- 1000.000001000.000001000.000001000.000001000.00000
     Eigenvalues --- 1000.000001000.000001000.000001000.000001000.00000
     Eigenvalues --- 1000.000001000.000001000.00000
 Angle between quadratic step and forces=  23.13 degrees.
 Linear search not attempted -- first point.
 Iteration  1 RMS(Cart)=  0.00032000 RMS(Int)=  0.00000010
 Iteration  2 RMS(Cart)=  0.00000012 RMS(Int)=  0.00000003
 Variable       Old X    -DE/DX   Delta X   Delta X   Delta X     New X
                                 (Linear)    (Quad)   (Total)
    R1        2.01169   0.00007   0.00000   0.00018   0.00018   2.01187
    R2        2.57456   0.00019   0.00000   0.00082   0.00082   2.57538
    R3        2.56356  -0.00027   0.00000  -0.00113  -0.00113   2.56243
    R4        2.00943   0.00011   0.00000   0.00021   0.00021   2.00964
    R5        2.68319  -0.00019   0.00000  -0.00077  -0.00077   2.68242
    R6        2.01124   0.00006   0.00000   0.00017   0.00017   2.01141
    R7        2.48043   0.00035   0.00000   0.00088   0.00088   2.48131
    R8        2.60538  -0.00020   0.00000  -0.00026  -0.00026   2.60512
    R9        1.87554   0.00009   0.00000   0.00020   0.00020   1.87574
    A1        2.28078  -0.00011   0.00000  -0.00066  -0.00066   2.28012
    A2        2.13346  -0.00001   0.00000   0.00041   0.00041   2.13387
    A3        1.86895   0.00011   0.00000   0.00025   0.00025   1.86920
    A4        2.22641   0.00007   0.00000  -0.00018  -0.00018   2.22623
    A5        1.83262  -0.00025   0.00000  -0.00066  -0.00066   1.83196
    A6        2.22416   0.00018   0.00000   0.00084   0.00084   2.22500
    A7        2.23015  -0.00006   0.00000   0.00016   0.00016   2.23031
    A8        1.95087   0.00022   0.00000   0.00065   0.00065   1.95152
    A9        2.10216  -0.00015   0.00000  -0.00081  -0.00081   2.10136
   A10        1.82555  -0.00026   0.00000  -0.00080  -0.00080   1.82474
   A11        1.94679   0.00018   0.00000   0.00056   0.00056   1.94735
   A12        2.25343  -0.00003   0.00000   0.00006   0.00006   2.25349
   A13        2.08296  -0.00015   0.00000  -0.00062  -0.00062   2.08234
    D1        0.00000   0.00000   0.00000   0.00000   0.00000   0.00000
    D2        3.14159   0.00000   0.00000   0.00000   0.00000   3.14159
    D3        3.14159   0.00000   0.00000   0.00000   0.00000   3.14159
    D4        0.00000   0.00000   0.00000   0.00000   0.00000   0.00000
    D5        3.14159   0.00000   0.00000   0.00000   0.00000   3.14159
    D6        0.00000   0.00000   0.00000   0.00000   0.00000   0.00000
    D7        0.00000   0.00000   0.00000   0.00000   0.00000   0.00000
    D8        3.14159   0.00000   0.00000   0.00000   0.00000   3.14159
    D9        3.14159   0.00000   0.00000   0.00000   0.00000   3.14159
   D10        0.00000   0.00000   0.00000   0.00000   0.00000   0.00000
   D11        0.00000   0.00000   0.00000   0.00000   0.00000   0.00000
   D12        3.14159   0.00000   0.00000   0.00000   0.00000   3.14159
   D13        0.00000   0.00000   0.00000   0.00000   0.00000   0.00000
   D14        3.14159   0.00000   0.00000   0.00000   0.00000   3.14159
   D15        0.00000   0.00000   0.00000   0.00000   0.00000   0.00000
   D16        3.14159   0.00000   0.00000   0.00000   0.00000   3.14159
         Item               Value     Threshold  Converged?
 Maximum Force            0.000349     0.000450     YES
 RMS     Force            0.000131     0.000300     YES
 Maximum Displacement     0.000839     0.001800     YES
 RMS     Displacement     0.000320     0.001200     YES
 Predicted change in Energy=-1.037402D-06
 Optimization completed.
    -- Stationary point found.
                         ----------------------------
                         !   Optimized Parameters   !
                         ! (Angstroms and Degrees)  !
 ------------------------                            -------------------------
 ! Name  Definition              Value          Derivative Info.             !
 -----------------------------------------------------------------------------
 ! R1    R(1,2)                  1.0645         -DE/DX =    0.0001           !
 ! R2    R(2,4)                  1.3624         -DE/DX =    0.0002           !
 ! R3    R(2,9)                  1.3566         -DE/DX =   -0.0003           !
 ! R4    R(3,4)                  1.0633         -DE/DX =    0.0001           !
 ! R5    R(4,6)                  1.4199         -DE/DX =   -0.0002           !
 ! R6    R(5,6)                  1.0643         -DE/DX =    0.0001           !
 ! R7    R(6,7)                  1.3126         -DE/DX =    0.0003           !
 ! R8    R(7,9)                  1.3787         -DE/DX =   -0.0002           !
 ! R9    R(8,9)                  0.9925         -DE/DX =    0.0001           !
 ! A1    A(1,2,4)              130.6788         -DE/DX =   -0.0001           !
 ! A2    A(1,2,9)              122.238          -DE/DX =    0.               !
 ! A3    A(4,2,9)              107.0831         -DE/DX =    0.0001           !
 ! A4    A(2,4,3)              127.5638         -DE/DX =    0.0001           !
 ! A5    A(2,4,6)              105.0013         -DE/DX =   -0.0002           !
 ! A6    A(3,4,6)              127.4349         -DE/DX =    0.0002           !
 ! A7    A(4,6,5)              127.7783         -DE/DX =   -0.0001           !
 ! A8    A(4,6,7)              111.7767         -DE/DX =    0.0002           !
 ! A9    A(5,6,7)              120.445          -DE/DX =   -0.0002           !
 ! A10   A(6,7,9)              104.596          -DE/DX =   -0.0003           !
 ! A11   A(2,9,7)              111.5429         -DE/DX =    0.0002           !
 ! A12   A(2,9,8)              129.1121         -DE/DX =    0.               !
 ! A13   A(7,9,8)              119.345          -DE/DX =   -0.0002           !
 ! D1    D(1,2,4,3)              0.             -DE/DX =    0.               !
 ! D2    D(1,2,4,6)            180.             -DE/DX =    0.               !
 ! D3    D(9,2,4,3)            180.             -DE/DX =    0.               !
 ! D4    D(9,2,4,6)              0.             -DE/DX =    0.               !
 ! D5    D(1,2,9,7)            180.             -DE/DX =    0.               !
 ! D6    D(1,2,9,8)              0.             -DE/DX =    0.               !
 ! D7    D(4,2,9,7)              0.             -DE/DX =    0.               !
 ! D8    D(4,2,9,8)            180.             -DE/DX =    0.               !
 ! D9    D(2,4,6,5)            180.             -DE/DX =    0.               !
 ! D10   D(2,4,6,7)              0.             -DE/DX =    0.               !
 ! D11   D(3,4,6,5)              0.             -DE/DX =    0.               !
 ! D12   D(3,4,6,7)            180.             -DE/DX =    0.               !
 ! D13   D(4,6,7,9)              0.             -DE/DX =    0.               !
 ! D14   D(5,6,7,9)            180.             -DE/DX =    0.               !
 ! D15   D(6,7,9,2)              0.             -DE/DX =    0.               !
 ! D16   D(6,7,9,8)            180.             -DE/DX =    0.               !
 -----------------------------------------------------------------------------
 GradGradGradGradGradGradGradGradGradGradGradGradGradGradGradGradGradGrad

 1\1\GINC-FERRUM\Freq\RHF\3-21G\C3H4N2\RDJ3\06-Oct-1999\0\\#N GEOM=ALLC
 HECK GUESS=TCHECK RHF/3-21G FREQ\\1H pyrazole C3H4N2 casno=288131\\0,1
 \H,-1.8626379887,0.,-1.1885447825\C,-0.933054264,0.,-0.6697747464\H,0.
 6640131265,0.,-2.1538908247\C,0.3459034946,0.,-1.1392429328\H,2.226707
 1007,0.,0.070264163\C,1.1635189041,0.,0.0216075545\N,0.4473788682,0.,1
 .1216194275\H,-1.5957257234,0.,1.3513438978\N,-0.8603167715,0.,0.68485
 03289\\Version=IBM-RS6000-G98RevA.4\State=1-A'\HF=-223.5255131\RMSD=9.
 633e-10\RMSF=2.581e-04\Dipole=-0.8097779,0.,-0.5547303\DipoleDeriv=0.0
 115309,0.,-0.0403212,0.,0.2035784,0.,-0.0457298,0.,0.083741,0.235296,0
 .,-0.1080522,0.,0.0189499,0.,-0.3879719,0.,0.2995453,0.0972539,0.,0.03
 0115,0.,0.2024098,0.,0.0325716,0.,-0.0221717,-0.4140233,0.,-0.0282063,
 0.,-0.3237728,0.,-0.0529971,0.,-0.0004745,-0.0445399,0.,-0.0295756,0.,
 0.162964,0.,-0.0135265,0.,0.0878605,0.2850147,0.,0.1825074,0.,-0.02900
 11,0.,0.2258802,0.,0.1322481,0.1061223,0.,-0.2567344,0.,-0.2171382,0.,
 -0.0260168,0.,-0.530285,0.2642301,0.,-0.0538723,0.,0.4099954,0.,-0.070
 7116,0.,0.2677242,-0.5408849,0.,0.3041396,0.,-0.4279855,0.,0.3385019,0
 .,-0.3181879\Polar=44.3108525,0.,11.5231435,-1.7258021,0.,38.8401255\P
 olarDeriv=-6.9403576,0.,-0.3519769,-2.845439,0.,-1.4926851,0.,-0.85199
 96,0.,0.,-0.691418,0.,-2.5798714,0.,-0.3366643,-2.6589842,0.,-2.373177
 4,-2.7425983,0.,0.2761552,-2.4361619,0.,-4.0817377,0.,-5.1136428,0.,0.
 ,-0.7571029,0.,-1.3261045,0.,0.3643429,2.6337412,0.,0.5742607,1.407133
 7,0.,0.0480098,-1.8168533,0.,1.4462128,0.,-0.0187582,0.,0.,-1.2950691,
 0.,-0.9098405,0.,-0.3996213,2.1039145,0.,-7.9099005,2.3486038,0.,-0.32
 99014,5.1876118,0.,4.0195753,0.,3.4737679,0.,0.,-3.1942515,0.,-2.28466
 29,0.,0.6242157,2.2187674,0.,0.4197249,9.6763899,0.,0.4687775,0.622062
 8,0.,0.468339,0.,1.7107355,0.,0.,0.394295,0.,0.2082736,0.,-0.0162689,1
 .5413639,0.,0.0907878,0.0309728,0.,-0.5700893,-1.9931255,0.,0.9256175,
 0.,2.5831459,0.,0.,-0.9086741,0.,0.8849168,0.,0.3594646,-5.7273519,0.,
 -6.404029,2.9725512,0.,0.0695023,-0.9495743,0.,-0.2884629,0.,0.5729361
 ,0.,0.,4.0755476,0.,2.5187733,0.,-0.1972827,4.7440913,0.,13.2217525,-4
 .8087001,0.,0.0619168,3.5015808,0.,-2.7603138,0.,-0.9584789,0.,0.,0.73
 70518,0.,2.5513255,0.,-0.052209,-3.1974565,0.,4.3531593,-1.9439954,0.,
 0.3276061,0.7298987,0.,1.7634548,0.,-1.397706,0.,0.,1.6396212,0.,0.937
 1901,0.,-0.345977,-1.6580857,0.,-1.9725783\HyperPolar=-18.5570689,0.,-
 1.9038522,0.,11.5082511,0.,-6.5832581,-2.2176886,0.,-41.0687423\PG=CS 
 [SG(C3H4N2)]\NImag=0\\0.33473438,0.,0.03113772,0.15250507,0.,0.1475503
 0,-0.33091181,0.,-0.13246096,0.98613059,0.,-0.04639293,0.,0.,0.1849085
 1,-0.14310334,0.,-0.14364529,0.12645964,0.,0.68191215,0.00035544,0.,-0
 .00113684,0.00276195,0.,0.03325086,0.09435917,0.,-0.00454728,0.,0.,0.0
 0291798,0.,0.,0.03113421,0.00079521,0.,-0.00003669,-0.00505186,0.,-0.0
 0084281,-0.10430368,0.,0.39030044,-0.00854774,0.,0.01183033,-0.3842958
 9,0.,0.06932951,-0.10334682,0.,0.09629176,0.68945399,0.,0.00749318,0.,
 0.,-0.10024713,0.,0.,-0.04309505,0.,0.,0.17661004,-0.01963999,0.,0.015
 35489,0.10058917,0.,-0.17064619,0.09297675,0.,-0.37613507,-0.16318065,
 0.,0.91904825,-0.00033537,0.,0.00027210,-0.00050375,0.,-0.00093077,-0.
 00021177,0.,-0.00092321,-0.00502697,0.,0.00563473,0.41849775,0.,0.0004
 3041,0.,0.,0.00493223,0.,0.,-0.00227517,0.,0.,0.00431241,0.,0.,0.03381
 015,-0.00117596,0.,0.00112516,-0.00379745,0.,-0.00806487,0.00109790,0.
 ,0.00025866,-0.02628279,0.,0.00925862,0.01580386,0.,0.06601784,-0.0048
 8113,0.,0.00545548,-0.07965097,0.,-0.00966429,0.01603401,0.,0.01599647
 ,-0.18696069,0.,-0.07457943,-0.39924886,0.,-0.02935919,1.00657771,0.,0
 .00721387,0.,0.,0.01970423,0.,0.,0.00040374,0.,0.,-0.09754757,0.,0.,-0
 .04723040,0.,0.,0.19483095,0.00162757,0.,-0.00226069,-0.08204235,0.,0.
 05422842,-0.01991316,0.,-0.01102882,-0.04186829,0.,-0.21942265,-0.0180
 9204,0.,-0.07062236,-0.05082132,0.,0.64452322,0.00151833,0.,0.00230024
 ,-0.06618562,0.,-0.04731560,-0.00287664,0.,-0.00131946,0.03255425,0.,0
 .04144009,-0.01392763,0.,0.03428906,-0.20397113,0.,0.16186817,0.476356
 45,0.,0.00631085,0.,0.,0.01879238,0.,0.,0.00612358,0.,0.,0.03045361,0.
 ,0.,-0.00648515,0.,0.,-0.09077640,0.,0.,0.12065357,0.00327010,0.,-0.00
 528597,-0.02116185,0.,-0.08956933,-0.00695562,0.,-0.00348837,-0.041263
 14,0.,-0.09665618,-0.00412011,0.,0.00523550,0.11795232,0.,-0.34501632,
 -0.08849871,0.,0.63388878,-0.00027228,0.,0.00071323,0.01226746,0.,-0.0
 0599531,0.00075792,0.,-0.00003257,0.00287158,0.,-0.00390771,-0.0003388
 9,0.,0.00145030,-0.00690716,0.,-0.00737828,-0.01731948,0.,0.03029601,0
 .32663750,0.,-0.00212901,0.,0.,-0.00515643,0.,0.,0.00219557,0.,0.,0.00
 418010,0.,0.,0.00173722,0.,0.,0.00526701,0.,0.,-0.01048224,0.,0.,0.017
 95047,-0.00085311,0.,-0.00011713,0.02963794,0.,-0.00451326,0.00128146,
 0.,0.00012338,-0.00307881,0.,-0.00701685,-0.00057693,0.,0.00121218,-0.
 00810863,0.,0.00034253,-0.01282944,0.,0.01798643,-0.22758512,0.,0.2831
 6335,0.00834018,0.,-0.03947865,-0.13961197,0.,-0.02203071,-0.00783325,
 0.,-0.00145267,-0.03670170,0.,0.02066704,0.00109549,0.,0.00797427,-0.1
 4099178,0.,0.05661970,-0.20614854,0.,0.01048099,-0.31769665,0.,0.22211
 265,0.83954822,0.,0.00048319,0.,0.,-0.07945885,0.,0.,0.00714243,0.,0.,
 0.01784040,0.,0.,0.01076830,0.,0.,0.00813457,0.,0.,-0.07459021,0.,0.,-
 0.01356268,0.,0.,0.12324285,0.00657445,0.,-0.01268458,-0.01217228,0.,-
 0.31885880,0.00370232,0.,0.00084929,0.09822208,0.,-0.07378481,0.002932
 37,0.,-0.00442072,0.03312860,0.,-0.05074332,-0.08993437,0.,-0.11709453
 ,0.21243944,0.,-0.29118063,-0.25489262,0.,0.86791810\\0.00003423,0.,0.
 00007636,0.00009361,0.,-0.00060745,0.00001701,0.,0.00011709,-0.0004480
 0,0.,0.00014487,-0.00005395,0.,-0.00004531,0.00039849,0.,0.00047720,0.
 00023858,0.,-0.00058386,0.00002228,0.,-0.00011235,-0.00030225,0.,0.000
 53346\\\@


 TRUST EVERYONE, BUT CUT THE CARDS.
 Job cpu time:  0 days  0 hours  0 minutes 54.3 seconds.
 File lengths (MBytes):  RWF=   10 Int=    0 D2E=    0 Chk=    3 Scr=    1
 Normal termination of Gaussian 98.
