 Entering Link 1 = C:\G03W\l1.exe PID=      1032.
  
 Copyright (c) 1988,1990,1992,1993,1995,1998,2003, Gaussian, Inc.
                  All Rights Reserved.
  
 This is the Gaussian(R) 03 program.  It is based on the
 the Gaussian(R) 98 system (copyright 1998, Gaussian, Inc.),
 the Gaussian(R) 94 system (copyright 1995, Gaussian, Inc.),
 the Gaussian 92(TM) system (copyright 1992, Gaussian, Inc.),
 the Gaussian 90(TM) system (copyright 1990, Gaussian, Inc.),
 the Gaussian 88(TM) system (copyright 1988, Gaussian, Inc.),
 the Gaussian 86(TM) system (copyright 1986, Carnegie Mellon
 University), and the Gaussian 82(TM) system (copyright 1983,
 Carnegie Mellon University). Gaussian is a federally registered
 trademark of Gaussian, Inc.
  
 This software contains proprietary and confidential information,
 including trade secrets, belonging to Gaussian, Inc.
  
 This software is provided under written license and may be
 used, copied, transmitted, or stored only in accord with that
 written license.
  
 The following legend is applicable only to US Government
 contracts under DFARS:
  
                    RESTRICTED RIGHTS LEGEND
  
 Use, duplication or disclosure by the US Government is subject
 to restrictions as set forth in subparagraph (c)(1)(ii) of the
 Rights in Technical Data and Computer Software clause at DFARS
 252.227-7013.
  
 Gaussian, Inc.
 Carnegie Office Park, Building 6, Pittsburgh, PA 15106 USA
  
 The following legend is applicable only to US Government
 contracts under FAR:
  
                    RESTRICTED RIGHTS LEGEND
  
 Use, reproduction and disclosure by the US Government is subject
 to restrictions as set forth in subparagraph (c) of the
 Commercial Computer Software - Restricted Rights clause at FAR
 52.227-19.
  
 Gaussian, Inc.
 Carnegie Office Park, Building 6, Pittsburgh, PA 15106 USA
  
  
 ---------------------------------------------------------------
 Warning -- This program may not be used in any manner that
 competes with the business of Gaussian, Inc. or will provide
 assistance to any competitor of Gaussian, Inc.  The licensee
 of this program is prohibited from giving any competitor of
 Gaussian, Inc. access to this program.  By using this program,
 the user acknowledges that Gaussian, Inc. is engaged in the
 business of creating and licensing software in the field of
 computational chemistry and represents and warrants to the
 licensee that it is not a competitor of Gaussian, Inc. and that
 it will not use this program in any manner prohibited above.
 ---------------------------------------------------------------
  

 Cite this work as:
 Gaussian 03, Revision B.05,
 M. J. Frisch, G. W. Trucks, H. B. Schlegel, G. E. Scuseria, 
 M. A. Robb, J. R. Cheeseman, J. A. Montgomery, Jr., T. Vreven, 
 K. N. Kudin, J. C. Burant, J. M. Millam, S. S. Iyengar, J. Tomasi, 
 V. Barone, B. Mennucci, M. Cossi, G. Scalmani, N. Rega, 
 G. A. Petersson, H. Nakatsuji, M. Hada, M. Ehara, K. Toyota, 
 R. Fukuda, J. Hasegawa, M. Ishida, T. Nakajima, Y. Honda, O. Kitao, 
 H. Nakai, M. Klene, X. Li, J. E. Knox, H. P. Hratchian, J. B. Cross, 
 C. Adamo, J. Jaramillo, R. Gomperts, R. E. Stratmann, O. Yazyev, 
 A. J. Austin, R. Cammi, C. Pomelli, J. W. Ochterski, P. Y. Ayala, 
 K. Morokuma, G. A. Voth, P. Salvador, J. J. Dannenberg, 
 V. G. Zakrzewski, S. Dapprich, A. D. Daniels, M. C. Strain, 
 O. Farkas, D. K. Malick, A. D. Rabuck, K. Raghavachari, 
 J. B. Foresman, J. V. Ortiz, Q. Cui, A. G. Baboul, S. Clifford, 
 J. Cioslowski, B. B. Stefanov, G. Liu, A. Liashenko, P. Piskorz, 
 I. Komaromi, R. L. Martin, D. J. Fox, T. Keith, M. A. Al-Laham, 
 C. Y. Peng, A. Nanayakkara, M. Challacombe, P. M. W. Gill, 
 B. Johnson, W. Chen, M. W. Wong, C. Gonzalez, and J. A. Pople, 
 Gaussian, Inc., Pittsburgh PA, 2003.
 
 **********************************************
 Gaussian 03:  x86-Win32-G03RevB.05  8-Nov-2003
                  04-Jan-2005 
 **********************************************
 %mem=24000000
 ------------------------
 #HF/6-311G(d,p) opt freq
 ------------------------
 1/18=20,38=1/1,3;
 2/9=110,17=6,18=5,40=1/2;
 3/5=4,6=6,7=101,11=9,16=1,25=1,30=1/1,2,3;
 4//1;
 5/5=2,38=5/2;
 6/7=2,8=2,9=2,10=2,28=1/1;
 7//1,2,3,16;
 1/18=20/3(1);
 99//99;
 2/9=110/2;
 3/5=4,6=6,7=101,11=9,16=1,25=1,30=1/1,2,3;
 4/5=5,16=3/1;
 5/5=2,38=5/2;
 7//1,2,3,16;
 1/18=20/3(-5);
 2/9=110/2;
 6/7=2,8=2,9=2,10=2,19=2,28=1/1;
 99/9=1/99;
 -------------------------------------------------
 1H pyrazole C3H4N2 casno=288131 method=1 basis=21
 -------------------------------------------------
 Symbolic Z-matrix:
 Charge =  0 Multiplicity = 1
 H                    -1.9125    0.       -0.75938 
 C                    -1.08438   0.       -0.21875 
 H                     0.43438   0.       -1.63125 
 C                     0.15      0.       -0.68438 
 H                     1.9125    0.        0.37188 
 C                     0.92188   0.        0.375 
 N                     0.18125   0.        1.41875 
 H                    -1.74063   0.        1.63125 
 N                    -1.00313   0.        1.05313 
 

 GradGradGradGradGradGradGradGradGradGradGradGradGradGradGradGradGradGrad
 Berny optimization.
 Initialization pass.
                           ----------------------------
                           !    Initial Parameters    !
                           ! (Angstroms and Degrees)  !
 --------------------------                            --------------------------
 ! Name  Definition              Value          Derivative Info.                !
 --------------------------------------------------------------------------------
 ! R1    R(1,2)                  0.989          estimate D2E/DX2                !
 ! R2    R(2,4)                  1.3193         estimate D2E/DX2                !
 ! R3    R(2,9)                  1.2745         estimate D2E/DX2                !
 ! R4    R(3,4)                  0.9887         estimate D2E/DX2                !
 ! R5    R(4,6)                  1.3108         estimate D2E/DX2                !
 ! R6    R(5,6)                  0.9906         estimate D2E/DX2                !
 ! R7    R(6,7)                  1.2798         estimate D2E/DX2                !
 ! R8    R(7,9)                  1.2395         estimate D2E/DX2                !
 ! R9    R(8,9)                  0.9371         estimate D2E/DX2                !
 ! A1    A(1,2,4)              126.195          estimate D2E/DX2                !
 ! A2    A(1,2,9)              126.7929         estimate D2E/DX2                !
 ! A3    A(4,2,9)              107.012          estimate D2E/DX2                !
 ! A4    A(2,4,3)              127.3838         estimate D2E/DX2                !
 ! A5    A(2,4,6)              105.4104         estimate D2E/DX2                !
 ! A6    A(3,4,6)              127.2058         estimate D2E/DX2                !
 ! A7    A(4,6,5)              125.8968         estimate D2E/DX2                !
 ! A8    A(4,6,7)              108.5636         estimate D2E/DX2                !
 ! A9    A(5,6,7)              125.5395         estimate D2E/DX2                !
 ! A10   A(6,7,9)              108.203          estimate D2E/DX2                !
 ! A11   A(2,9,7)              110.811          estimate D2E/DX2                !
 ! A12   A(2,9,8)              124.4376         estimate D2E/DX2                !
 ! A13   A(7,9,8)              124.7513         estimate D2E/DX2                !
 ! D1    D(1,2,4,3)              0.0            estimate D2E/DX2                !
 ! D2    D(1,2,4,6)            180.0            estimate D2E/DX2                !
 ! D3    D(9,2,4,3)            180.0            estimate D2E/DX2                !
 ! D4    D(9,2,4,6)              0.0            estimate D2E/DX2                !
 ! D5    D(1,2,9,7)            180.0            estimate D2E/DX2                !
 ! D6    D(1,2,9,8)              0.0            estimate D2E/DX2                !
 ! D7    D(4,2,9,7)              0.0            estimate D2E/DX2                !
 ! D8    D(4,2,9,8)            180.0            estimate D2E/DX2                !
 ! D9    D(2,4,6,5)            180.0            estimate D2E/DX2                !
 ! D10   D(2,4,6,7)              0.0            estimate D2E/DX2                !
 ! D11   D(3,4,6,5)              0.0            estimate D2E/DX2                !
 ! D12   D(3,4,6,7)            180.0            estimate D2E/DX2                !
 ! D13   D(4,6,7,9)              0.0            estimate D2E/DX2                !
 ! D14   D(5,6,7,9)            180.0            estimate D2E/DX2                !
 ! D15   D(6,7,9,2)              0.0            estimate D2E/DX2                !
 ! D16   D(6,7,9,8)            180.0            estimate D2E/DX2                !
 --------------------------------------------------------------------------------
 Trust Radius=3.00D-01 FncErr=1.00D-07 GrdErr=1.00D-07
 Number of steps in this run=  48 maximum allowed number of steps= 100.
 GradGradGradGradGradGradGradGradGradGradGradGradGradGradGradGradGradGrad

                          Input orientation:                          
 ---------------------------------------------------------------------
 Center     Atomic     Atomic              Coordinates (Angstroms)
 Number     Number      Type              X           Y           Z
 ---------------------------------------------------------------------
    1          1             0       -1.912500    0.000000   -0.759375
    2          6             0       -1.084375    0.000000   -0.218750
    3          1             0        0.434375    0.000000   -1.631250
    4          6             0        0.150000    0.000000   -0.684375
    5          1             0        1.912500    0.000000    0.371875
    6          6             0        0.921875    0.000000    0.375000
    7          7             0        0.181250    0.000000    1.418750
    8          1             0       -1.740625    0.000000    1.631250
    9          7             0       -1.003125    0.000000    1.053125
 ---------------------------------------------------------------------
                    Distance matrix (angstroms):
                    1          2          3          4          5
     1  H    0.000000
     2  C    0.988972   0.000000
     3  H    2.503595   2.074068   0.000000
     4  C    2.063863   1.319276   0.988656   0.000000
     5  H    3.988778   3.054521   2.489450   2.054768   0.000000
     6  C    3.052947   2.092266   2.064630   1.310750   0.990630
     7  N    3.021261   2.069592   3.060486   2.103357   2.023159
     8  H    2.396796   1.962948   3.921037   2.989412   3.864110
     9  N    2.027836   1.274468   3.045041   2.085331   2.994156
                    6          7          8          9
     6  C    0.000000
     7  N    1.279820   0.000000
     8  H    2.943989   1.933587   0.000000
     9  N    2.040950   1.239526   0.937088   0.000000
 Stoichiometry    C3H4N2
 Framework group  CS[SG(C3H4N2)]
 Deg. of freedom    15
 Full point group                 CS      NOp   2
 Largest Abelian subgroup         CS      NOp   2
 Largest concise Abelian subgroup C1      NOp   1
                         Standard orientation:                         
 ---------------------------------------------------------------------
 Center     Atomic     Atomic              Coordinates (Angstroms)
 Number     Number      Type              X           Y           Z
 ---------------------------------------------------------------------
    1          1             0        1.974407    0.585689    0.000000
    2          6             0        1.028833    0.295936    0.000000
    3          1             0        1.140941   -1.775099    0.000000
    4          6             0        0.595873   -0.950271    0.000000
    5          1             0       -1.344123   -1.627388    0.000000
    6          6             0       -0.712074   -0.864589    0.000000
    7          7             0       -1.039336    0.372682    0.000000
    8          1             0        0.028336    1.984773    0.000000
    9          7             0        0.000000    1.048113    0.000000
 ---------------------------------------------------------------------
 Rotational constants (GHZ):     11.1878017     10.4520035      5.4036966
 Standard basis: 6-311G(d,p) (5D, 7F)
 There are    85 symmetry adapted basis functions of A'  symmetry.
 There are    29 symmetry adapted basis functions of A"  symmetry.
 Integral buffers will be    262144 words long.
 Raffenetti 1 integral format.
 Two-electron integral symmetry is turned on.
   114 basis functions,   192 primitive gaussians,   119 cartesian basis functions
    18 alpha electrons       18 beta electrons
       nuclear repulsion energy       173.7391745845 Hartrees.
 NAtoms=    9 NActive=    9 NUniq=    9 SFac= 1.00D+00 NAtFMM=   60 Big=F
 One-electron integrals computed using PRISM.
 NBasis=   114 RedAO= T  NBF=    85    29
 NBsUse=   114 1.00D-06 NBFU=    85    29
 Harris functional with IExCor=  205 diagonalized for initial guess.
 ExpMin= 1.03D-01 ExpMax= 6.29D+03 ExpMxC= 9.49D+02 IAcc=1 IRadAn=         1 AccDes= 1.00D-06
 HarFok:  IExCor= 205 AccDes= 1.00D-06 IRadAn=         1 IDoV=1
 ScaDFX=  1.000000  1.000000  1.000000  1.000000
 Initial guess orbital symmetries:
       Occupied  (A') (A') (A') (A') (A') (A') (A') (A') (A') (A')
                 (A') (A') (A') (A") (A') (A") (A') (A")
       Virtual   (A") (A") (A') (A') (A') (A') (A') (A') (A') (A')
                 (A') (A") (A') (A') (A') (A") (A') (A") (A') (A')
                 (A') (A') (A') (A") (A') (A') (A") (A') (A') (A')
                 (A') (A") (A') (A') (A") (A') (A") (A") (A') (A')
                 (A") (A') (A') (A') (A") (A') (A') (A') (A") (A")
                 (A') (A') (A') (A") (A") (A') (A') (A") (A') (A')
                 (A') (A") (A') (A") (A") (A') (A') (A') (A') (A")
                 (A') (A") (A') (A') (A") (A') (A') (A') (A') (A')
                 (A') (A') (A") (A') (A") (A') (A') (A') (A') (A')
                 (A') (A') (A') (A') (A') (A')
 The electronic state of the initial guess is 1-A'.
 Requested convergence on RMS density matrix=1.00D-08 within 128 cycles.
 Requested convergence on MAX density matrix=1.00D-06.
 Requested convergence on             energy=1.00D-06.
 No special actions if energy rises.
 Integral accuracy reduced to 1.0D-05 until final iterations.
 Initial convergence to 1.0D-05 achieved.  Increase integral accuracy.
 SCF Done:  E(RHF) =  -224.796576514     A.U. after   14 cycles
             Convg  =    0.6490D-08             -V/T =  1.9929
             S**2   =   0.0000

 **********************************************************************

            Population analysis using the SCF density.

 **********************************************************************

 Orbital symmetries:
       Occupied  (A') (A') (A') (A') (A') (A') (A') (A') (A') (A')
                 (A') (A') (A") (A') (A') (A') (A") (A")
       Virtual   (A') (A') (A') (A") (A') (A") (A') (A') (A') (A')
                 (A') (A") (A') (A") (A') (A') (A') (A") (A') (A')
                 (A') (A') (A") (A') (A') (A") (A') (A') (A') (A')
                 (A') (A') (A") (A') (A") (A') (A") (A') (A") (A')
                 (A") (A') (A') (A') (A") (A') (A') (A") (A') (A')
                 (A") (A') (A') (A") (A") (A') (A') (A") (A') (A')
                 (A') (A") (A') (A') (A') (A") (A") (A') (A') (A")
                 (A') (A') (A") (A') (A') (A") (A') (A') (A') (A')
                 (A') (A') (A") (A') (A") (A') (A') (A') (A') (A')
                 (A') (A') (A') (A') (A') (A')
 The electronic state is 1-A'.
 Alpha  occ. eigenvalues --  -15.63200 -15.55380 -11.23191 -11.20863 -11.17612
 Alpha  occ. eigenvalues --   -1.45568  -1.13000  -1.08397  -0.86790  -0.83498
 Alpha  occ. eigenvalues --   -0.77503  -0.65506  -0.65192  -0.61132  -0.56916
 Alpha  occ. eigenvalues --   -0.44088  -0.37632  -0.34399
 Alpha virt. eigenvalues --    0.15335   0.18726   0.19890   0.19910   0.22779
 Alpha virt. eigenvalues --    0.25732   0.39411   0.39893   0.42832   0.43989
 Alpha virt. eigenvalues --    0.55023   0.57010   0.60164   0.63487   0.64732
 Alpha virt. eigenvalues --    0.67192   0.69823   0.71987   0.73520   0.78441
 Alpha virt. eigenvalues --    0.81842   0.82589   0.85174   0.87358   0.92248
 Alpha virt. eigenvalues --    0.95740   0.97585   1.01235   1.04838   1.09735
 Alpha virt. eigenvalues --    1.16930   1.20393   1.22355   1.27629   1.37987
 Alpha virt. eigenvalues --    1.39292   1.45338   1.49119   1.51043   1.54766
 Alpha virt. eigenvalues --    1.68674   1.81324   1.84975   1.91108   1.91898
 Alpha virt. eigenvalues --    1.93486   1.97293   2.04539   2.08410   2.15312
 Alpha virt. eigenvalues --    2.21206   2.22298   2.31307   2.31551   2.34162
 Alpha virt. eigenvalues --    2.38410   2.45876   2.47995   2.53800   2.67147
 Alpha virt. eigenvalues --    2.76140   2.81882   2.85416   2.89915   2.95905
 Alpha virt. eigenvalues --    2.98424   3.06542   3.08160   3.14535   3.16529
 Alpha virt. eigenvalues --    3.17017   3.23067   3.24885   3.29647   3.39952
 Alpha virt. eigenvalues --    3.40724   3.63388   3.76772   3.89895   3.92606
 Alpha virt. eigenvalues --    4.05539   4.07839   4.16708   4.27350   4.44357
 Alpha virt. eigenvalues --    4.65098   4.67874   4.81807   5.08765   5.60255
 Alpha virt. eigenvalues --    6.18083  25.02387  25.45529  25.74895  37.06885
 Alpha virt. eigenvalues --   37.26709
          Condensed to atoms (all electrons):
              1          2          3          4          5          6
     1  H    0.531210   0.436635  -0.000280  -0.031774  -0.000255   0.004354
     2  C    0.436635   4.881193  -0.040600   0.531412   0.011593  -0.109430
     3  H   -0.000280  -0.040600   0.542913   0.446042  -0.002939  -0.033933
     4  C   -0.031774   0.531412   0.446042   5.032891  -0.056386   0.525174
     5  H   -0.000255   0.011593  -0.002939  -0.056386   0.533701   0.454537
     6  C    0.004354  -0.109430  -0.033933   0.525174   0.454537   4.620309
     7  N    0.004364  -0.198418   0.010231  -0.056043  -0.024405   0.591021
     8  H   -0.002435  -0.046085  -0.000150   0.009689  -0.000304   0.002196
     9  N   -0.030738   0.386859   0.005496  -0.058124   0.001308  -0.197732
              7          8          9
     1  H    0.004364  -0.002435  -0.030738
     2  C   -0.198418  -0.046085   0.386859
     3  H    0.010231  -0.000150   0.005496
     4  C   -0.056043   0.009689  -0.058124
     5  H   -0.024405  -0.000304   0.001308
     6  C    0.591021   0.002196  -0.197732
     7  N    6.653617  -0.038247   0.324597
     8  H   -0.038247   0.427794   0.418587
     9  N    0.324597   0.418587   6.304738
 Mulliken atomic charges:
              1
     1  H    0.088919
     2  C    0.146842
     3  H    0.073220
     4  C   -0.342881
     5  H    0.083149
     6  C    0.143504
     7  N   -0.266717
     8  H    0.228956
     9  N   -0.154991
 Sum of Mulliken charges=   0.00000
 Atomic charges with hydrogens summed into heavy atoms:
              1
     1  H    0.000000
     2  C    0.235761
     3  H    0.000000
     4  C   -0.269661
     5  H    0.000000
     6  C    0.226653
     7  N   -0.266717
     8  H    0.000000
     9  N    0.073964
 Sum of Mulliken charges=   0.00000
 Electronic spatial extent (au):  <R**2>=   258.9527
 Charge=     0.0000 electrons
 Dipole moment (field-independent basis, Debye):
    X=     2.1849    Y=     0.9557    Z=     0.0000  Tot=     2.3847
 Quadrupole moment (field-independent basis, Debye-Ang):
   XX=   -29.8695   YY=   -21.9086   ZZ=   -31.0726
   XY=     2.7181   XZ=     0.0000   YZ=     0.0000
 Traceless Quadrupole moment (field-independent basis, Debye-Ang):
   XX=    -2.2526   YY=     5.7083   ZZ=    -3.4557
   XY=     2.7181   XZ=     0.0000   YZ=     0.0000
 Octapole moment (field-independent basis, Debye-Ang**2):
  XXX=     8.7925  YYY=    11.2323  ZZZ=     0.0000  XYY=     0.3522
  XXY=    -2.2503  XXZ=     0.0000  XZZ=    -0.8533  YZZ=     2.2541
  YYZ=     0.0000  XYZ=     0.0000
 Hexadecapole moment (field-independent basis, Debye-Ang**3):
 XXXX=  -151.1245 YYYY=  -120.1279 ZZZZ=   -31.8108 XXXY=     7.5217
 XXXZ=     0.0000 YYYX=     0.6357 YYYZ=     0.0000 ZZZX=     0.0000
 ZZZY=     0.0000 XXYY=   -47.1192 XXZZ=   -33.3009 YYZZ=   -33.1063
 XXYZ=     0.0000 YYXZ=     0.0000 ZZXY=    -0.1052
 N-N= 1.737391745845D+02 E-N=-8.742812699368D+02  KE= 2.264070896728D+02
 Symmetry A'   KE= 2.184726208533D+02
 Symmetry A"   KE= 7.934468819490D+00
 ***** Axes restored to original set *****
 -------------------------------------------------------------------
 Center     Atomic                   Forces (Hartrees/Bohr)
 Number     Number              X              Y              Z
 -------------------------------------------------------------------
    1          1          -0.071960499    0.000000000   -0.034169035
    2          6          -0.006945767    0.000000000   -0.045413366
    3          1           0.019898376    0.000000000   -0.076455227
    4          6          -0.021141275    0.000000000   -0.043357022
    5          1           0.076682239    0.000000000    0.012544686
    6          6          -0.005593342    0.000000000    0.038517954
    7          7           0.087113791    0.000000000    0.111529263
    8          1          -0.045337811    0.000000000    0.051393779
    9          7          -0.032715713    0.000000000   -0.014591033
 -------------------------------------------------------------------
 Cartesian Forces:  Max     0.111529263 RMS     0.043284024

 GradGradGradGradGradGradGradGradGradGradGradGradGradGradGradGradGradGrad
 Berny optimization.
 Internal  Forces:  Max     0.123429593 RMS     0.042098755
 Search for a local minimum.
 Step number   1 out of a maximum of  48
 All quantities printed in internal units (Hartrees-Bohrs-Radians)
 Second derivative matrix not updated -- first step.
     Eigenvalues ---    0.03204   0.03245   0.03263   0.03273   0.03342
     Eigenvalues ---    0.03375   0.16000   0.16000   0.16000   0.16000
     Eigenvalues ---    0.22000   0.22938   0.49374   0.49681   0.49740
     Eigenvalues ---    0.56490   0.56686   0.60708   0.68179   0.73042
     Eigenvalues ---    0.827791000.000001000.000001000.000001000.00000
     Eigenvalues --- 1000.000001000.000001000.000001000.000001000.00000
     Eigenvalues --- 1000.000001000.000001000.000001000.000001000.00000
     Eigenvalues --- 1000.000001000.000001000.00000
 RFO step:  Lambda=-9.70665936D-02.
 Linear search not attempted -- first point.
 Maximum step size (   0.300) exceeded in Quadratic search.
    -- Step size scaled by   0.767
 Iteration  1 RMS(Cart)=  0.06292631 RMS(Int)=  0.00089730
 Iteration  2 RMS(Cart)=  0.00115955 RMS(Int)=  0.00005356
 Iteration  3 RMS(Cart)=  0.00000102 RMS(Int)=  0.00005355
 Iteration  4 RMS(Cart)=  0.00000000 RMS(Int)=  0.00005355
 Variable       Old X    -DE/DX   Delta X   Delta X   Delta X     New X
                                 (Linear)    (Quad)   (Total)
    R1        1.86889   0.07894   0.00000   0.10193   0.10193   1.97082
    R2        2.49307   0.06430   0.00000   0.06804   0.06813   2.56120
    R3        2.40839   0.09456   0.00000   0.08732   0.08729   2.49569
    R4        1.86829   0.07895   0.00000   0.10185   0.10185   1.97013
    R5        2.47696   0.12343   0.00000   0.12582   0.12589   2.60285
    R6        1.87202   0.07664   0.00000   0.09948   0.09948   1.97150
    R7        2.41851   0.04826   0.00000   0.04412   0.04408   2.46259
    R8        2.34237   0.10622   0.00000   0.08533   0.08523   2.42760
    R9        1.77084   0.06739   0.00000   0.07339   0.07339   1.84423
    A1        2.20252   0.01525   0.00000   0.04195   0.04191   2.24443
    A2        2.21295  -0.00480   0.00000  -0.01785  -0.01789   2.19507
    A3        1.86771  -0.01045   0.00000  -0.02409  -0.02403   1.84368
    A4        2.22327  -0.00083   0.00000  -0.00025  -0.00033   2.22294
    A5        1.83976  -0.00383   0.00000  -0.01585  -0.01569   1.82406
    A6        2.22016   0.00465   0.00000   0.01610   0.01602   2.23618
    A7        2.19731   0.00256   0.00000   0.01617   0.01615   2.21347
    A8        1.89479   0.01881   0.00000   0.03906   0.03910   1.93389
    A9        2.19108  -0.02138   0.00000  -0.05523  -0.05525   2.13583
   A10        1.88850  -0.02342   0.00000  -0.05031  -0.05048   1.83802
   A11        1.93402   0.01889   0.00000   0.05119   0.05110   1.98512
   A12        2.17185   0.00160   0.00000   0.00736   0.00741   2.17925
   A13        2.17732  -0.02049   0.00000  -0.05855  -0.05851   2.11881
    D1        0.00000   0.00000   0.00000   0.00000   0.00000   0.00000
    D2        3.14159   0.00000   0.00000   0.00000   0.00000   3.14159
    D3        3.14159   0.00000   0.00000   0.00000   0.00000   3.14159
    D4        0.00000   0.00000   0.00000   0.00000   0.00000   0.00000
    D5        3.14159   0.00000   0.00000   0.00000   0.00000   3.14159
    D6        0.00000   0.00000   0.00000   0.00000   0.00000   0.00000
    D7        0.00000   0.00000   0.00000   0.00000   0.00000   0.00000
    D8        3.14159   0.00000   0.00000   0.00000   0.00000   3.14159
    D9        3.14159   0.00000   0.00000   0.00000   0.00000   3.14159
   D10        0.00000   0.00000   0.00000   0.00000   0.00000   0.00000
   D11        0.00000   0.00000   0.00000   0.00000   0.00000   0.00000
   D12        3.14159   0.00000   0.00000   0.00000   0.00000   3.14159
   D13        0.00000   0.00000   0.00000   0.00000   0.00000   0.00000
   D14        3.14159   0.00000   0.00000   0.00000   0.00000   3.14159
   D15        0.00000   0.00000   0.00000   0.00000   0.00000   0.00000
   D16        3.14159   0.00000   0.00000   0.00000   0.00000   3.14159
         Item               Value     Threshold  Converged?
 Maximum Force            0.123430     0.000450     NO 
 RMS     Force            0.042099     0.000300     NO 
 Maximum Displacement     0.186926     0.001800     NO 
 RMS     Displacement     0.062922     0.001200     NO 
 Predicted change in Energy=-5.026477D-02
 GradGradGradGradGradGradGradGradGradGradGradGradGradGradGradGradGradGrad

                          Input orientation:                          
 ---------------------------------------------------------------------
 Center     Atomic     Atomic              Coordinates (Angstroms)
 Number     Number      Type              X           Y           Z
 ---------------------------------------------------------------------
    1          1             0       -2.011417    0.000000   -0.790137
    2          6             0       -1.116647    0.000000   -0.254365
    3          1             0        0.455540    0.000000   -1.726478
    4          6             0        0.152924    0.000000   -0.728813
    5          1             0        1.985743    0.000000    0.432567
    6          6             0        0.942996    0.000000    0.399430
    7          7             0        0.210634    0.000000    1.477313
    8          1             0       -1.755541    0.000000    1.685177
    9          7             0       -1.004857    0.000000    1.061556
 ---------------------------------------------------------------------
                    Distance matrix (angstroms):
                    1          2          3          4          5
     1  H    0.000000
     2  C    1.042911   0.000000
     3  H    2.638676   2.153809   0.000000
     4  C    2.165210   1.355328   1.042551   0.000000
     5  H    4.179988   3.177531   2.646318   2.169800   0.000000
     6  C    3.184906   2.160921   2.181078   1.377370   1.043274
     7  N    3.174719   2.181831   3.213138   2.206881   2.059735
     8  H    2.488504   2.042060   4.065498   3.077270   3.945408
     9  N    2.107588   1.320661   3.147363   2.132107   3.056030
                    6          7          8          9
     6  C    0.000000
     7  N    1.303144   0.000000
     8  H    2.989189   1.977133   0.000000
     9  N    2.057314   1.284630   0.975925   0.000000
 Stoichiometry    C3H4N2
 Framework group  CS[SG(C3H4N2)]
 Deg. of freedom    15
 Full point group                 CS      NOp   2
 Largest Abelian subgroup         CS      NOp   2
 Largest concise Abelian subgroup C1      NOp   1
                         Standard orientation:                         
 ---------------------------------------------------------------------
 Center     Atomic     Atomic              Coordinates (Angstroms)
 Number     Number      Type              X           Y           Z
 ---------------------------------------------------------------------
    1          1             0        2.066552    0.641428    0.000000
    2          6             0        1.081859    0.297854    0.000000
    3          1             0        1.204499   -1.852460    0.000000
    4          6             0        0.632522   -0.980821    0.000000
    5          1             0       -1.433566   -1.643625    0.000000
    6          6             0       -0.739914   -0.864352    0.000000
    7          7             0       -1.098084    0.388605    0.000000
    8          1             0        0.002304    2.031224    0.000000
    9          7             0        0.000000    1.055302    0.000000
 ---------------------------------------------------------------------
 Rotational constants (GHZ):     10.1753978     10.0175679      5.0479330
 Standard basis: 6-311G(d,p) (5D, 7F)
 There are    85 symmetry adapted basis functions of A'  symmetry.
 There are    29 symmetry adapted basis functions of A"  symmetry.
 Integral buffers will be    262144 words long.
 Raffenetti 1 integral format.
 Two-electron integral symmetry is turned on.
   114 basis functions,   192 primitive gaussians,   119 cartesian basis functions
    18 alpha electrons       18 beta electrons
       nuclear repulsion energy       167.8321282911 Hartrees.
 NAtoms=    9 NActive=    9 NUniq=    9 SFac= 1.00D+00 NAtFMM=   60 Big=F
 One-electron integrals computed using PRISM.
 NBasis=   114 RedAO= T  NBF=    85    29
 NBsUse=   114 1.00D-06 NBFU=    85    29
 Initial guess read from the read-write file:
 Initial guess orbital symmetries:
       Occupied  (A') (A') (A') (A') (A') (A') (A') (A') (A') (A')
                 (A') (A') (A") (A') (A') (A') (A") (A")
       Virtual   (A') (A') (A') (A") (A') (A") (A') (A') (A') (A')
                 (A') (A") (A') (A") (A') (A') (A') (A") (A') (A')
                 (A') (A') (A") (A') (A') (A") (A') (A') (A') (A')
                 (A') (A') (A") (A') (A") (A') (A") (A') (A") (A')
                 (A") (A') (A') (A') (A") (A') (A') (A") (A') (A')
                 (A") (A') (A') (A") (A") (A') (A') (A") (A') (A')
                 (A') (A") (A') (A') (A') (A") (A") (A') (A') (A")
                 (A') (A') (A") (A') (A') (A") (A') (A') (A') (A')
                 (A') (A') (A") (A') (A") (A') (A') (A') (A') (A')
                 (A') (A') (A') (A') (A') (A')
 Harris functional with IExCor=  205 diagonalized for initial guess.
 ExpMin= 1.03D-01 ExpMax= 6.29D+03 ExpMxC= 9.49D+02 IAcc=1 IRadAn=         1 AccDes= 1.00D-06
 HarFok:  IExCor= 205 AccDes= 1.00D-06 IRadAn=         1 IDoV=1
 ScaDFX=  1.000000  1.000000  1.000000  1.000000
 Requested convergence on RMS density matrix=1.00D-08 within 128 cycles.
 Requested convergence on MAX density matrix=1.00D-06.
 Requested convergence on             energy=1.00D-06.
 No special actions if energy rises.
 Integral accuracy reduced to 1.0D-05 until final iterations.
 Initial convergence to 1.0D-05 achieved.  Increase integral accuracy.
 SCF Done:  E(RHF) =  -224.842695889     A.U. after   13 cycles
             Convg  =    0.5579D-08             -V/T =  1.9978
             S**2   =   0.0000
 ***** Axes restored to original set *****
 -------------------------------------------------------------------
 Center     Atomic                   Forces (Hartrees/Bohr)
 Number     Number              X              Y              Z
 -------------------------------------------------------------------
    1          1          -0.022972242    0.000000000   -0.004870878
    2          6           0.013394953    0.000000000   -0.014382736
    3          1           0.006418148    0.000000000   -0.021571103
    4          6          -0.008744135    0.000000000   -0.009784946
    5          1           0.022695551    0.000000000    0.006030836
    6          6          -0.002782045    0.000000000    0.012081530
    7          7           0.037516784    0.000000000    0.021697194
    8          1          -0.009822614    0.000000000    0.015865445
    9          7          -0.035704400    0.000000000   -0.005065344
 -------------------------------------------------------------------
 Cartesian Forces:  Max     0.037516784 RMS     0.014717771

 GradGradGradGradGradGradGradGradGradGradGradGradGradGradGradGradGradGrad
 Berny optimization.
 Internal  Forces:  Max     0.040478864 RMS     0.012275825
 Search for a local minimum.
 Step number   2 out of a maximum of  48
 All quantities printed in internal units (Hartrees-Bohrs-Radians)
 Update second derivatives using D2CorX and points  1  2
 Trust test= 9.18D-01 RLast= 3.00D-01 DXMaxT set to 4.24D-01
     Eigenvalues ---    0.03204   0.03248   0.03259   0.03273   0.03343
     Eigenvalues ---    0.03374   0.15855   0.16000   0.16000   0.16055
     Eigenvalues ---    0.21997   0.24272   0.49427   0.49711   0.51015
     Eigenvalues ---    0.57092   0.58132   0.61489   0.68168   0.75345
     Eigenvalues ---    0.806891000.000001000.000001000.000001000.00000
     Eigenvalues --- 1000.000001000.000001000.000001000.000001000.00000
     Eigenvalues --- 1000.000001000.000001000.000001000.000001000.00000
     Eigenvalues --- 1000.000001000.000001000.00000
 RFO step:  Lambda=-3.17288737D-03.
 Quartic linear search produced a step of  0.46010.
 Iteration  1 RMS(Cart)=  0.03973515 RMS(Int)=  0.00085618
 Iteration  2 RMS(Cart)=  0.00095693 RMS(Int)=  0.00004049
 Iteration  3 RMS(Cart)=  0.00000101 RMS(Int)=  0.00004048
 Iteration  4 RMS(Cart)=  0.00000000 RMS(Int)=  0.00004048
 Variable       Old X    -DE/DX   Delta X   Delta X   Delta X     New X
                                 (Linear)    (Quad)   (Total)
    R1        1.97082   0.02221   0.04690   0.00692   0.05382   2.02464
    R2        2.56120   0.01726   0.03135   0.00012   0.03153   2.59272
    R3        2.49569   0.02305   0.04016  -0.00245   0.03777   2.53346
    R4        1.97013   0.02251   0.04686   0.00775   0.05461   2.02475
    R5        2.60285   0.03295   0.05792  -0.00019   0.05770   2.66055
    R6        1.97150   0.02288   0.04577   0.01066   0.05643   2.02793
    R7        2.46259   0.00772   0.02028  -0.00998   0.01022   2.47281
    R8        2.42760   0.04048   0.03922   0.02166   0.06085   2.48845
    R9        1.84423   0.01769   0.03377   0.00073   0.03449   1.87873
    A1        2.24443   0.00642   0.01928   0.03489   0.05411   2.29855
    A2        2.19507  -0.00861  -0.00823  -0.06449  -0.07278   2.12229
    A3        1.84368   0.00219  -0.01106   0.02960   0.01866   1.86235
    A4        2.22294  -0.00009  -0.00015   0.00617   0.00600   2.22894
    A5        1.82406  -0.00006  -0.00722  -0.00487  -0.01205   1.81201
    A6        2.23618   0.00015   0.00737  -0.00130   0.00605   2.24224
    A7        2.21347   0.00374   0.00743   0.03231   0.03978   2.25325
    A8        1.93389   0.00298   0.01799  -0.01284   0.00507   1.93896
    A9        2.13583  -0.00672  -0.02542  -0.01947  -0.04485   2.09097
   A10        1.83802  -0.00071  -0.02323   0.03360   0.01026   1.84828
   A11        1.98512  -0.00439   0.02351  -0.04550  -0.02195   1.96317
   A12        2.17925   0.00766   0.00341   0.05234   0.05573   2.23498
   A13        2.11881  -0.00327  -0.02692  -0.00684  -0.03378   2.08503
    D1        0.00000   0.00000   0.00000   0.00000   0.00000   0.00000
    D2        3.14159   0.00000   0.00000   0.00000   0.00000   3.14159
    D3        3.14159   0.00000   0.00000   0.00000   0.00000   3.14159
    D4        0.00000   0.00000   0.00000   0.00000   0.00000   0.00000
    D5        3.14159   0.00000   0.00000   0.00000   0.00000   3.14159
    D6        0.00000   0.00000   0.00000   0.00000   0.00000   0.00000
    D7        0.00000   0.00000   0.00000   0.00000   0.00000   0.00000
    D8        3.14159   0.00000   0.00000   0.00000   0.00000   3.14159
    D9        3.14159   0.00000   0.00000   0.00000   0.00000   3.14159
   D10        0.00000   0.00000   0.00000   0.00000   0.00000   0.00000
   D11        0.00000   0.00000   0.00000   0.00000   0.00000   0.00000
   D12        3.14159   0.00000   0.00000   0.00000   0.00000   3.14159
   D13        0.00000   0.00000   0.00000   0.00000   0.00000   0.00000
   D14        3.14159   0.00000   0.00000   0.00000   0.00000   3.14159
   D15        0.00000   0.00000   0.00000   0.00000   0.00000   0.00000
   D16        3.14159   0.00000   0.00000   0.00000   0.00000   3.14159
         Item               Value     Threshold  Converged?
 Maximum Force            0.040479     0.000450     NO 
 RMS     Force            0.012276     0.000300     NO 
 Maximum Displacement     0.111405     0.001800     NO 
 RMS     Displacement     0.039720     0.001200     NO 
 Predicted change in Energy=-4.996174D-03
 GradGradGradGradGradGradGradGradGradGradGradGradGradGradGradGradGradGrad

                          Input orientation:                          
 ---------------------------------------------------------------------
 Center     Atomic     Atomic              Coordinates (Angstroms)
 Number     Number      Type              X           Y           Z
 ---------------------------------------------------------------------
    1          1             0       -2.070370    0.000000   -0.773806
    2          6             0       -1.121294    0.000000   -0.276677
    3          1             0        0.476687    0.000000   -1.785044
    4          6             0        0.162505    0.000000   -0.760693
    5          1             0        2.029147    0.000000    0.486415
    6          6             0        0.959504    0.000000    0.399905
    7          7             0        0.219690    0.000000    1.479251
    8          1             0       -1.767612    0.000000    1.726117
    9          7             0       -1.028882    0.000000    1.060783
 ---------------------------------------------------------------------
                    Distance matrix (angstroms):
                    1          2          3          4          5
     1  H    0.000000
     2  C    1.071392   0.000000
     3  H    2.740456   2.197434   0.000000
     4  C    2.232914   1.372011   1.071450   0.000000
     5  H    4.288846   3.241542   2.751301   2.244912   0.000000
     6  C    3.249266   2.188032   2.237658   1.407904   1.073136
     7  N    3.212575   2.209417   3.274396   2.240674   2.063942
     8  H    2.518189   2.104498   4.167149   3.147949   3.994026
     9  N    2.109600   1.340649   3.219545   2.176506   3.111501
                    6          7          8          9
     6  C    0.000000
     7  N    1.308553   0.000000
     8  H    3.032491   2.002577   0.000000
     9  N    2.095337   1.316833   0.994179   0.000000
 Stoichiometry    C3H4N2
 Framework group  CS[SG(C3H4N2)]
 Deg. of freedom    15
 Full point group                 CS      NOp   2
 Largest Abelian subgroup         CS      NOp   2
 Largest concise Abelian subgroup C1      NOp   1
                         Standard orientation:                         
 ---------------------------------------------------------------------
 Center     Atomic     Atomic              Coordinates (Angstroms)
 Number     Number      Type              X           Y           Z
 ---------------------------------------------------------------------
    1          1             0        2.079441    0.722886    0.000000
    2          6             0        1.093738    0.303039    0.000000
    3          1             0        1.249479   -1.888868    0.000000
    4          6             0        0.655532   -0.997110    0.000000
    5          1             0       -1.491635   -1.652322    0.000000
    6          6             0       -0.747423   -0.879167    0.000000
    7          7             0       -1.114445    0.376861    0.000000
    8          1             0       -0.047253    2.071387    0.000000
    9          7             0        0.000000    1.078331    0.000000
 ---------------------------------------------------------------------
 Rotational constants (GHZ):      9.8262308      9.7049401      4.8826044
 Standard basis: 6-311G(d,p) (5D, 7F)
 There are    85 symmetry adapted basis functions of A'  symmetry.
 There are    29 symmetry adapted basis functions of A"  symmetry.
 Integral buffers will be    262144 words long.
 Raffenetti 1 integral format.
 Two-electron integral symmetry is turned on.
   114 basis functions,   192 primitive gaussians,   119 cartesian basis functions
    18 alpha electrons       18 beta electrons
       nuclear repulsion energy       165.0102896575 Hartrees.
 NAtoms=    9 NActive=    9 NUniq=    9 SFac= 1.00D+00 NAtFMM=   60 Big=F
 One-electron integrals computed using PRISM.
 NBasis=   114 RedAO= T  NBF=    85    29
 NBsUse=   114 1.00D-06 NBFU=    85    29
 Initial guess read from the read-write file:
 Initial guess orbital symmetries:
       Occupied  (A') (A') (A') (A') (A') (A') (A') (A') (A') (A')
                 (A') (A") (A') (A') (A') (A') (A") (A")
       Virtual   (A') (A") (A') (A') (A') (A") (A') (A') (A') (A')
                 (A') (A") (A') (A') (A") (A') (A') (A') (A") (A')
                 (A') (A') (A") (A') (A') (A') (A") (A') (A') (A')
                 (A') (A') (A") (A') (A") (A') (A") (A') (A") (A')
                 (A") (A') (A') (A") (A') (A') (A') (A") (A') (A')
                 (A") (A') (A') (A") (A") (A') (A') (A") (A') (A')
                 (A') (A") (A') (A') (A") (A') (A') (A') (A") (A')
                 (A") (A') (A') (A") (A') (A") (A') (A') (A') (A')
                 (A') (A') (A') (A") (A") (A') (A') (A') (A') (A')
                 (A') (A') (A') (A') (A') (A')
 Harris functional with IExCor=  205 diagonalized for initial guess.
 ExpMin= 1.03D-01 ExpMax= 6.29D+03 ExpMxC= 9.49D+02 IAcc=1 IRadAn=         1 AccDes= 1.00D-06
 HarFok:  IExCor= 205 AccDes= 1.00D-06 IRadAn=         1 IDoV=1
 ScaDFX=  1.000000  1.000000  1.000000  1.000000
 Requested convergence on RMS density matrix=1.00D-08 within 128 cycles.
 Requested convergence on MAX density matrix=1.00D-06.
 Requested convergence on             energy=1.00D-06.
 No special actions if energy rises.
 Integral accuracy reduced to 1.0D-05 until final iterations.
 Initial convergence to 1.0D-05 achieved.  Increase integral accuracy.
 SCF Done:  E(RHF) =  -224.848471556     A.U. after   13 cycles
             Convg  =    0.3060D-08             -V/T =  2.0000
             S**2   =   0.0000
 ***** Axes restored to original set *****
 -------------------------------------------------------------------
 Center     Atomic                   Forces (Hartrees/Bohr)
 Number     Number              X              Y              Z
 -------------------------------------------------------------------
    1          1           0.001170800    0.000000000   -0.000188340
    2          6           0.002999126    0.000000000   -0.004618900
    3          1          -0.000893481    0.000000000    0.001706139
    4          6          -0.008527769    0.000000000   -0.000935404
    5          1          -0.001682620    0.000000000   -0.000705770
    6          6          -0.005075822    0.000000000    0.009449280
    7          7           0.013702267    0.000000000    0.002325246
    8          1           0.001898245    0.000000000   -0.002197630
    9          7          -0.003590745    0.000000000   -0.004834622
 -------------------------------------------------------------------
 Cartesian Forces:  Max     0.013702267 RMS     0.004151230

 GradGradGradGradGradGradGradGradGradGradGradGradGradGradGradGradGradGrad
 Berny optimization.
 Internal  Forces:  Max     0.009360745 RMS     0.002953730
 Search for a local minimum.
 Step number   3 out of a maximum of  48
 All quantities printed in internal units (Hartrees-Bohrs-Radians)
 Update second derivatives using D2CorX and points  1  2  3
 Trust test= 1.16D+00 RLast= 1.93D-01 DXMaxT set to 5.78D-01
     Eigenvalues ---    0.03203   0.03248   0.03250   0.03273   0.03342
     Eigenvalues ---    0.03373   0.15157   0.16000   0.16005   0.16039
     Eigenvalues ---    0.22025   0.25569   0.45973   0.49504   0.49729
     Eigenvalues ---    0.56728   0.58811   0.60405   0.65064   0.74894
     Eigenvalues ---    0.813441000.000001000.000001000.000001000.00000
     Eigenvalues --- 1000.000001000.000001000.000001000.000001000.00000
     Eigenvalues --- 1000.000001000.000001000.000001000.000001000.00000
     Eigenvalues --- 1000.000001000.000001000.00000
 RFO step:  Lambda=-6.57080734D-04.
 Quartic linear search produced a step of -0.03759.
 Iteration  1 RMS(Cart)=  0.00766654 RMS(Int)=  0.00003707
 Iteration  2 RMS(Cart)=  0.00003852 RMS(Int)=  0.00001350
 Iteration  3 RMS(Cart)=  0.00000000 RMS(Int)=  0.00001350
 Variable       Old X    -DE/DX   Delta X   Delta X   Delta X     New X
                                 (Linear)    (Quad)   (Total)
    R1        2.02464  -0.00095  -0.00202   0.00215   0.00013   2.02477
    R2        2.59272  -0.00936  -0.00119  -0.01282  -0.01402   2.57871
    R3        2.53346  -0.00016  -0.00142   0.00304   0.00160   2.53506
    R4        2.02475  -0.00189  -0.00205   0.00039  -0.00167   2.02308
    R5        2.66055   0.00447  -0.00217   0.01025   0.00810   2.66865
    R6        2.02793  -0.00173  -0.00212   0.00084  -0.00128   2.02666
    R7        2.47281  -0.00814  -0.00038  -0.01011  -0.01047   2.46234
    R8        2.48845   0.00736  -0.00229   0.01371   0.01142   2.49987
    R9        1.87873  -0.00288  -0.00130  -0.00204  -0.00333   1.87539
    A1        2.29855   0.00042  -0.00203   0.00512   0.00311   2.30165
    A2        2.12229   0.00186   0.00274   0.00398   0.00673   2.12902
    A3        1.86235  -0.00228  -0.00070  -0.00910  -0.00984   1.85251
    A4        2.22894  -0.00113  -0.00023  -0.00282  -0.00304   2.22590
    A5        1.81201   0.00153   0.00045   0.00152   0.00198   1.81399
    A6        2.24224  -0.00041  -0.00023   0.00129   0.00106   2.24330
    A7        2.25325  -0.00226  -0.00150  -0.00654  -0.00805   2.24520
    A8        1.93896   0.00336  -0.00019   0.01223   0.01207   1.95103
    A9        2.09097  -0.00110   0.00169  -0.00569  -0.00402   2.08695
   A10        1.84828  -0.00618  -0.00039  -0.02044  -0.02079   1.82749
   A11        1.96317   0.00357   0.00083   0.01578   0.01659   1.97976
   A12        2.23498  -0.00212  -0.00210  -0.00665  -0.00873   2.22625
   A13        2.08503  -0.00144   0.00127  -0.00914  -0.00785   2.07718
    D1        0.00000   0.00000   0.00000   0.00000   0.00000   0.00000
    D2        3.14159   0.00000   0.00000   0.00000   0.00000   3.14159
    D3        3.14159   0.00000   0.00000   0.00000   0.00000   3.14159
    D4        0.00000   0.00000   0.00000   0.00000   0.00000   0.00000
    D5        3.14159   0.00000   0.00000   0.00000   0.00000   3.14159
    D6        0.00000   0.00000   0.00000   0.00000   0.00000   0.00000
    D7        0.00000   0.00000   0.00000   0.00000   0.00000   0.00000
    D8        3.14159   0.00000   0.00000   0.00000   0.00000   3.14159
    D9        3.14159   0.00000   0.00000   0.00000   0.00000   3.14159
   D10        0.00000   0.00000   0.00000   0.00000   0.00000   0.00000
   D11        0.00000   0.00000   0.00000   0.00000   0.00000   0.00000
   D12        3.14159   0.00000   0.00000   0.00000   0.00000   3.14159
   D13        0.00000   0.00000   0.00000   0.00000   0.00000   0.00000
   D14        3.14159   0.00000   0.00000   0.00000   0.00000   3.14159
   D15        0.00000   0.00000   0.00000   0.00000   0.00000   0.00000
   D16        3.14159   0.00000   0.00000   0.00000   0.00000   3.14159
         Item               Value     Threshold  Converged?
 Maximum Force            0.009361     0.000450     NO 
 RMS     Force            0.002954     0.000300     NO 
 Maximum Displacement     0.019099     0.001800     NO 
 RMS     Displacement     0.007677     0.001200     NO 
 Predicted change in Energy=-3.372816D-04
 GradGradGradGradGradGradGradGradGradGradGradGradGradGradGradGradGradGrad

                          Input orientation:                          
 ---------------------------------------------------------------------
 Center     Atomic     Atomic              Coordinates (Angstroms)
 Number     Number      Type              X           Y           Z
 ---------------------------------------------------------------------
    1          1             0       -2.071022    0.000000   -0.779106
    2          6             0       -1.122086    0.000000   -0.281563
    3          1             0        0.470857    0.000000   -1.781839
    4          6             0        0.156454    0.000000   -0.758479
    5          1             0        2.023603    0.000000    0.486367
    6          6             0        0.954093    0.000000    0.406877
    7          7             0        0.228780    0.000000    1.489357
    8          1             0       -1.760159    0.000000    1.718509
    9          7             0       -1.021146    0.000000    1.056128
 ---------------------------------------------------------------------
                    Distance matrix (angstroms):
                    1          2          3          4          5
     1  H    0.000000
     2  C    1.071461   0.000000
     3  H    2.732511   2.188217   0.000000
     4  C    2.227571   1.364593   1.070568   0.000000
     5  H    4.285718   3.238067   2.748779   2.244078   0.000000
     6  C    3.249289   2.187343   2.241427   1.412191   1.072460
     7  N    3.230327   2.227330   3.280142   2.248999   2.056060
     8  H    2.516887   2.099387   4.150888   3.131913   3.979326
     9  N    2.114314   1.341494   3.206264   2.163224   3.097600
                    6          7          8          9
     6  C    0.000000
     7  N    1.303013   0.000000
     8  H    3.014556   2.002096   0.000000
     9  N    2.079206   1.322876   0.992416   0.000000
 Stoichiometry    C3H4N2
 Framework group  CS[SG(C3H4N2)]
 Deg. of freedom    15
 Full point group                 CS      NOp   2
 Largest Abelian subgroup         CS      NOp   2
 Largest concise Abelian subgroup C1      NOp   1
                         Standard orientation:                         
 ---------------------------------------------------------------------
 Center     Atomic     Atomic              Coordinates (Angstroms)
 Number     Number      Type              X           Y           Z
 ---------------------------------------------------------------------
    1          1             0        2.085436    0.721044    0.000000
    2          6             0        1.099725    0.301043    0.000000
    3          1             0        1.253554   -1.881761    0.000000
    4          6             0        0.660040   -0.990774    0.000000
    5          1             0       -1.485348   -1.648952    0.000000
    6          6             0       -0.747067   -0.871062    0.000000
    7          7             0       -1.126359    0.375526    0.000000
    8          1             0       -0.045315    2.060676    0.000000
    9          7             0        0.000000    1.069295    0.000000
 ---------------------------------------------------------------------
 Rotational constants (GHZ):      9.9256115      9.6273984      4.8871154
 Standard basis: 6-311G(d,p) (5D, 7F)
 There are    85 symmetry adapted basis functions of A'  symmetry.
 There are    29 symmetry adapted basis functions of A"  symmetry.
 Integral buffers will be    262144 words long.
 Raffenetti 1 integral format.
 Two-electron integral symmetry is turned on.
   114 basis functions,   192 primitive gaussians,   119 cartesian basis functions
    18 alpha electrons       18 beta electrons
       nuclear repulsion energy       165.0882292909 Hartrees.
 NAtoms=    9 NActive=    9 NUniq=    9 SFac= 1.00D+00 NAtFMM=   60 Big=F
 One-electron integrals computed using PRISM.
 NBasis=   114 RedAO= T  NBF=    85    29
 NBsUse=   114 1.00D-06 NBFU=    85    29
 Initial guess read from the read-write file:
 Initial guess orbital symmetries:
       Occupied  (A') (A') (A') (A') (A') (A') (A') (A') (A') (A')
                 (A') (A') (A") (A') (A') (A') (A") (A")
       Virtual   (A') (A") (A') (A') (A') (A") (A') (A') (A') (A')
                 (A') (A') (A") (A') (A') (A") (A') (A') (A") (A')
                 (A') (A') (A") (A') (A') (A') (A") (A') (A') (A')
                 (A') (A') (A") (A') (A") (A') (A") (A') (A") (A')
                 (A") (A') (A') (A") (A') (A') (A') (A") (A') (A")
                 (A') (A') (A') (A") (A") (A') (A') (A") (A') (A')
                 (A') (A") (A') (A') (A") (A') (A') (A') (A') (A")
                 (A') (A") (A') (A") (A') (A") (A') (A') (A') (A')
                 (A') (A') (A') (A") (A") (A') (A') (A') (A') (A')
                 (A') (A') (A') (A') (A') (A')
 Requested convergence on RMS density matrix=1.00D-08 within 128 cycles.
 Requested convergence on MAX density matrix=1.00D-06.
 Requested convergence on             energy=1.00D-06.
 No special actions if energy rises.
 SCF Done:  E(RHF) =  -224.848718226     A.U. after   11 cycles
             Convg  =    0.7594D-08             -V/T =  1.9999
             S**2   =   0.0000
 ***** Axes restored to original set *****
 -------------------------------------------------------------------
 Center     Atomic                   Forces (Hartrees/Bohr)
 Number     Number              X              Y              Z
 -------------------------------------------------------------------
    1          1           0.001067307    0.000000000    0.000628053
    2          6           0.003328500    0.000000000    0.001260651
    3          1           0.000164407    0.000000000    0.001294601
    4          6          -0.001558877    0.000000000   -0.002250458
    5          1          -0.000713402    0.000000000   -0.001122094
    6          6           0.003272516    0.000000000    0.003433649
    7          7           0.003129440    0.000000000   -0.005447886
    8          1           0.000321118    0.000000000   -0.001014912
    9          7          -0.009011008    0.000000000    0.003218398
 -------------------------------------------------------------------
 Cartesian Forces:  Max     0.009011008 RMS     0.002580763

 GradGradGradGradGradGradGradGradGradGradGradGradGradGradGradGradGradGrad
 Berny optimization.
 Internal  Forces:  Max     0.004337302 RMS     0.001424104
 Search for a local minimum.
 Step number   4 out of a maximum of  48
 All quantities printed in internal units (Hartrees-Bohrs-Radians)
 Update second derivatives using D2CorX and points  1  2  3  4
 Trust test= 7.31D-01 RLast= 4.19D-02 DXMaxT set to 5.78D-01
     Eigenvalues ---    0.03203   0.03248   0.03251   0.03273   0.03342
     Eigenvalues ---    0.03373   0.15429   0.15869   0.16002   0.16039
     Eigenvalues ---    0.21905   0.39318   0.46525   0.49719   0.49803
     Eigenvalues ---    0.52133   0.57844   0.59908   0.61149   0.75254
     Eigenvalues ---    0.789211000.000001000.000001000.000001000.00000
     Eigenvalues --- 1000.000001000.000001000.000001000.000001000.00000
     Eigenvalues --- 1000.000001000.000001000.000001000.000001000.00000
     Eigenvalues --- 1000.000001000.000001000.00000
 RFO step:  Lambda=-1.23571713D-04.
 Quartic linear search produced a step of -0.21192.
 Iteration  1 RMS(Cart)=  0.00330472 RMS(Int)=  0.00000928
 Iteration  2 RMS(Cart)=  0.00000865 RMS(Int)=  0.00000547
 Iteration  3 RMS(Cart)=  0.00000000 RMS(Int)=  0.00000547
 Variable       Old X    -DE/DX   Delta X   Delta X   Delta X     New X
                                 (Linear)    (Quad)   (Total)
    R1        2.02477  -0.00124  -0.00003  -0.00120  -0.00123   2.02354
    R2        2.57871   0.00003   0.00297  -0.00528  -0.00231   2.57640
    R3        2.53506  -0.00081  -0.00034   0.00055   0.00022   2.53528
    R4        2.02308  -0.00119   0.00035  -0.00185  -0.00150   2.02158
    R5        2.66865   0.00017  -0.00172   0.00400   0.00227   2.67092
    R6        2.02666  -0.00079   0.00027  -0.00116  -0.00089   2.02576
    R7        2.46234  -0.00135   0.00222  -0.00501  -0.00280   2.45954
    R8        2.49987   0.00362  -0.00242   0.00809   0.00567   2.50555
    R9        1.87539  -0.00092   0.00071  -0.00197  -0.00127   1.87413
    A1        2.30165  -0.00119  -0.00066  -0.00278  -0.00344   2.29821
    A2        2.12902  -0.00131  -0.00143  -0.00107  -0.00250   2.12652
    A3        1.85251   0.00250   0.00209   0.00385   0.00594   1.85845
    A4        2.22590   0.00038   0.00064   0.00141   0.00206   2.22796
    A5        1.81399   0.00032  -0.00042   0.00041  -0.00002   1.81397
    A6        2.24330  -0.00070  -0.00023  -0.00182  -0.00204   2.24126
    A7        2.24520  -0.00018   0.00171  -0.00537  -0.00365   2.24155
    A8        1.95103  -0.00180  -0.00256  -0.00112  -0.00369   1.94734
    A9        2.08695   0.00198   0.00085   0.00649   0.00735   2.09430
   A10        1.82749   0.00332   0.00441   0.00263   0.00704   1.83453
   A11        1.97976  -0.00434  -0.00351  -0.00577  -0.00927   1.97049
   A12        2.22625   0.00166   0.00185   0.00025   0.00209   2.22834
   A13        2.07718   0.00268   0.00166   0.00552   0.00718   2.08435
    D1        0.00000   0.00000   0.00000   0.00000   0.00000   0.00000
    D2        3.14159   0.00000   0.00000   0.00000   0.00000   3.14159
    D3        3.14159   0.00000   0.00000   0.00000   0.00000   3.14159
    D4        0.00000   0.00000   0.00000   0.00000   0.00000   0.00000
    D5        3.14159   0.00000   0.00000   0.00000   0.00000   3.14159
    D6        0.00000   0.00000   0.00000   0.00000   0.00000   0.00000
    D7        0.00000   0.00000   0.00000   0.00000   0.00000   0.00000
    D8        3.14159   0.00000   0.00000   0.00000   0.00000   3.14159
    D9        3.14159   0.00000   0.00000   0.00000   0.00000   3.14159
   D10        0.00000   0.00000   0.00000   0.00000   0.00000   0.00000
   D11        0.00000   0.00000   0.00000   0.00000   0.00000   0.00000
   D12        3.14159   0.00000   0.00000   0.00000   0.00000   3.14159
   D13        0.00000   0.00000   0.00000   0.00000   0.00000   0.00000
   D14        3.14159   0.00000   0.00000   0.00000   0.00000   3.14159
   D15        0.00000   0.00000   0.00000   0.00000   0.00000   0.00000
   D16        3.14159   0.00000   0.00000   0.00000   0.00000   3.14159
         Item               Value     Threshold  Converged?
 Maximum Force            0.004337     0.000450     NO 
 RMS     Force            0.001424     0.000300     NO 
 Maximum Displacement     0.010416     0.001800     NO 
 RMS     Displacement     0.003303     0.001200     NO 
 Predicted change in Energy=-8.112960D-05
 GradGradGradGradGradGradGradGradGradGradGradGradGradGradGradGradGradGrad

                          Input orientation:                          
 ---------------------------------------------------------------------
 Center     Atomic     Atomic              Coordinates (Angstroms)
 Number     Number      Type              X           Y           Z
 ---------------------------------------------------------------------
    1          1             0       -2.067737    0.000000   -0.778829
    2          6             0       -1.120398    0.000000   -0.279647
    3          1             0        0.471178    0.000000   -1.780312
    4          6             0        0.156331    0.000000   -0.757918
    5          1             0        2.025681    0.000000    0.481402
    6          6             0        0.956256    0.000000    0.407327
    7          7             0        0.229266    0.000000    1.486897
    8          1             0       -1.765671    0.000000    1.718723
    9          7             0       -1.025533    0.000000    1.058605
 ---------------------------------------------------------------------
                    Distance matrix (angstroms):
                    1          2          3          4          5
     1  H    0.000000
     2  C    1.070810   0.000000
     3  H    2.729296   2.187490   0.000000
     4  C    2.224166   1.363371   1.069775   0.000000
     5  H    4.283019   3.236821   2.744418   2.242852   0.000000
     6  C    3.248307   2.187333   2.240774   1.413392   1.071988
     7  N    3.226412   2.223122   3.276153   2.246000   2.058672
     8  H    2.515752   2.099967   4.152920   3.134939   3.988147
     9  N    2.112428   1.341610   3.209298   2.167154   3.105329
                    6          7          8          9
     6  C    0.000000
     7  N    1.301532   0.000000
     8  H    3.021365   2.008362   0.000000
     9  N    2.086061   1.325878   0.991746   0.000000
 Stoichiometry    C3H4N2
 Framework group  CS[SG(C3H4N2)]
 Deg. of freedom    15
 Full point group                 CS      NOp   2
 Largest Abelian subgroup         CS      NOp   2
 Largest concise Abelian subgroup C1      NOp   1
                         Standard orientation:                         
 ---------------------------------------------------------------------
 Center     Atomic     Atomic              Coordinates (Angstroms)
 Number     Number      Type              X           Y           Z
 ---------------------------------------------------------------------
    1          1             0        2.082645    0.720430    0.000000
    2          6             0        1.097100    0.301701    0.000000
    3          1             0        1.254312   -1.880131    0.000000
    4          6             0        0.660923   -0.990014    0.000000
    5          1             0       -1.480904   -1.655569    0.000000
    6          6             0       -0.747664   -0.873573    0.000000
    7          7             0       -1.124907    0.372089    0.000000
    8          1             0       -0.043858    2.064675    0.000000
    9          7             0        0.000000    1.073899    0.000000
 ---------------------------------------------------------------------
 Rotational constants (GHZ):      9.8872809      9.6527887      4.8843139
 Standard basis: 6-311G(d,p) (5D, 7F)
 There are    85 symmetry adapted basis functions of A'  symmetry.
 There are    29 symmetry adapted basis functions of A"  symmetry.
 Integral buffers will be    262144 words long.
 Raffenetti 1 integral format.
 Two-electron integral symmetry is turned on.
   114 basis functions,   192 primitive gaussians,   119 cartesian basis functions
    18 alpha electrons       18 beta electrons
       nuclear repulsion energy       165.0423798555 Hartrees.
 NAtoms=    9 NActive=    9 NUniq=    9 SFac= 1.00D+00 NAtFMM=   60 Big=F
 One-electron integrals computed using PRISM.
 NBasis=   114 RedAO= T  NBF=    85    29
 NBsUse=   114 1.00D-06 NBFU=    85    29
 Initial guess read from the read-write file:
 Initial guess orbital symmetries:
       Occupied  (A') (A') (A') (A') (A') (A') (A') (A') (A') (A')
                 (A') (A") (A') (A') (A') (A') (A") (A")
       Virtual   (A') (A") (A') (A') (A') (A") (A') (A') (A') (A')
                 (A') (A') (A") (A') (A') (A") (A') (A') (A") (A')
                 (A') (A') (A") (A') (A') (A') (A") (A') (A') (A')
                 (A') (A') (A") (A') (A") (A') (A") (A') (A") (A')
                 (A") (A') (A') (A") (A') (A') (A') (A") (A') (A")
                 (A') (A') (A') (A") (A") (A') (A') (A") (A') (A')
                 (A') (A") (A') (A') (A") (A') (A') (A') (A') (A")
                 (A") (A') (A') (A") (A') (A") (A') (A') (A') (A')
                 (A') (A') (A') (A") (A") (A') (A') (A') (A') (A')
                 (A') (A') (A') (A') (A') (A')
 Requested convergence on RMS density matrix=1.00D-08 within 128 cycles.
 Requested convergence on MAX density matrix=1.00D-06.
 Requested convergence on             energy=1.00D-06.
 No special actions if energy rises.
 SCF Done:  E(RHF) =  -224.848816646     A.U. after   10 cycles
             Convg  =    0.3523D-08             -V/T =  1.9999
             S**2   =   0.0000
 ***** Axes restored to original set *****
 -------------------------------------------------------------------
 Center     Atomic                   Forces (Hartrees/Bohr)
 Number     Number              X              Y              Z
 -------------------------------------------------------------------
    1          1           0.000544672    0.000000000    0.000209111
    2          6           0.001053453    0.000000000    0.000417541
    3          1           0.000011573    0.000000000    0.000607069
    4          6          -0.000755840    0.000000000   -0.001286258
    5          1          -0.000513932    0.000000000   -0.000241729
    6          6           0.000103635    0.000000000    0.001567732
    7          7           0.001623522    0.000000000   -0.001203284
    8          1           0.000449202    0.000000000   -0.000216483
    9          7          -0.002516283    0.000000000    0.000146301
 -------------------------------------------------------------------
 Cartesian Forces:  Max     0.002516283 RMS     0.000809560

 GradGradGradGradGradGradGradGradGradGradGradGradGradGradGradGradGradGrad
 Berny optimization.
 Internal  Forces:  Max     0.001081199 RMS     0.000393281
 Search for a local minimum.
 Step number   5 out of a maximum of  48
 All quantities printed in internal units (Hartrees-Bohrs-Radians)
 Update second derivatives using D2CorX and points  1  2  3  4  5

 Trust test= 1.21D+00 RLast= 1.98D-02 DXMaxT set to 5.78D-01
     Eigenvalues ---    0.03203   0.03248   0.03251   0.03273   0.03342
     Eigenvalues ---    0.03373   0.14997   0.15545   0.16017   0.16261
     Eigenvalues ---    0.20722   0.34873   0.46641   0.48638   0.49727
     Eigenvalues ---    0.49924   0.57590   0.59363   0.60764   0.74097
     Eigenvalues ---    0.780311000.000001000.000001000.000001000.00000
     Eigenvalues --- 1000.000001000.000001000.000001000.000001000.00000
     Eigenvalues --- 1000.000001000.000001000.000001000.000001000.00000
     Eigenvalues --- 1000.000001000.000001000.00000
 RFO step:  Lambda=-9.98225823D-06.
 Quartic linear search produced a step of  0.27456.
 Iteration  1 RMS(Cart)=  0.00121378 RMS(Int)=  0.00000183
 Iteration  2 RMS(Cart)=  0.00000145 RMS(Int)=  0.00000140
 Iteration  3 RMS(Cart)=  0.00000000 RMS(Int)=  0.00000140
 Variable       Old X    -DE/DX   Delta X   Delta X   Delta X     New X
                                 (Linear)    (Quad)   (Total)
    R1        2.02354  -0.00058  -0.00034  -0.00083  -0.00117   2.02237
    R2        2.57640  -0.00053  -0.00063  -0.00147  -0.00210   2.57430
    R3        2.53528  -0.00034   0.00006  -0.00008  -0.00002   2.53526
    R4        2.02158  -0.00058  -0.00041  -0.00090  -0.00131   2.02027
    R5        2.67092   0.00029   0.00062   0.00109   0.00171   2.67263
    R6        2.02576  -0.00053  -0.00025  -0.00091  -0.00116   2.02460
    R7        2.45954  -0.00108  -0.00077  -0.00191  -0.00268   2.45685
    R8        2.50555   0.00104   0.00156   0.00152   0.00308   2.50863
    R9        1.87413  -0.00048  -0.00035  -0.00071  -0.00105   1.87308
    A1        2.29821  -0.00038  -0.00095  -0.00131  -0.00225   2.29595
    A2        2.12652  -0.00024  -0.00069  -0.00015  -0.00084   2.12569
    A3        1.85845   0.00062   0.00163   0.00146   0.00309   1.86154
    A4        2.22796   0.00029   0.00057   0.00181   0.00238   2.23034
    A5        1.81397  -0.00020   0.00000  -0.00179  -0.00180   1.81217
    A6        2.24126  -0.00009  -0.00056  -0.00002  -0.00058   2.24068
    A7        2.24155  -0.00024  -0.00100  -0.00152  -0.00252   2.23903
    A8        1.94734   0.00006  -0.00101   0.00209   0.00107   1.94841
    A9        2.09430   0.00018   0.00202  -0.00057   0.00145   2.09574
   A10        1.83453   0.00033   0.00193  -0.00125   0.00068   1.83520
   A11        1.97049  -0.00082  -0.00254  -0.00050  -0.00304   1.96745
   A12        2.22834   0.00054   0.00057   0.00204   0.00261   2.23095
   A13        2.08435   0.00028   0.00197  -0.00154   0.00043   2.08479
    D1        0.00000   0.00000   0.00000   0.00000   0.00000   0.00000
    D2        3.14159   0.00000   0.00000   0.00000   0.00000   3.14159
    D3        3.14159   0.00000   0.00000   0.00000   0.00000   3.14159
    D4        0.00000   0.00000   0.00000   0.00000   0.00000   0.00000
    D5        3.14159   0.00000   0.00000   0.00000   0.00000   3.14159
    D6        0.00000   0.00000   0.00000   0.00000   0.00000   0.00000
    D7        0.00000   0.00000   0.00000   0.00000   0.00000   0.00000
    D8        3.14159   0.00000   0.00000   0.00000   0.00000   3.14159
    D9        3.14159   0.00000   0.00000   0.00000   0.00000   3.14159
   D10        0.00000   0.00000   0.00000   0.00000   0.00000   0.00000
   D11        0.00000   0.00000   0.00000   0.00000   0.00000   0.00000
   D12        3.14159   0.00000   0.00000   0.00000   0.00000   3.14159
   D13        0.00000   0.00000   0.00000   0.00000   0.00000   0.00000
   D14        3.14159   0.00000   0.00000   0.00000   0.00000   3.14159
   D15        0.00000   0.00000   0.00000   0.00000   0.00000   0.00000
   D16        3.14159   0.00000   0.00000   0.00000   0.00000   3.14159
         Item               Value     Threshold  Converged?
 Maximum Force            0.001081     0.000450     NO 
 RMS     Force            0.000393     0.000300     NO 
 Maximum Displacement     0.004095     0.001800     NO 
 RMS     Displacement     0.001214     0.001200     NO 
 Predicted change in Energy=-9.745732D-06
 GradGradGradGradGradGradGradGradGradGradGradGradGradGradGradGradGradGrad

                          Input orientation:                          
 ---------------------------------------------------------------------
 Center     Atomic     Atomic              Coordinates (Angstroms)
 Number     Number      Type              X           Y           Z
 ---------------------------------------------------------------------
    1          1             0       -2.065570    0.000000   -0.779062
    2          6             0       -1.119302    0.000000   -0.279180
    3          1             0        0.471646    0.000000   -1.779962
    4          6             0        0.155808    0.000000   -0.758601
    5          1             0        2.024512    0.000000    0.479831
    6          6             0        0.955558    0.000000    0.407861
    7          7             0        0.229881    0.000000    1.486602
    8          1             0       -1.766201    0.000000    1.719522
    9          7             0       -1.026957    0.000000    1.059239
 ---------------------------------------------------------------------
                    Distance matrix (angstroms):
                    1          2          3          4          5
     1  H    0.000000
     2  C    1.070190   0.000000
     3  H    2.727502   2.187113   0.000000
     4  C    2.221472   1.362259   1.069080   0.000000
     5  H    4.279437   3.234140   2.741908   2.241823   0.000000
     6  C    3.245920   2.185650   2.240701   1.414297   1.071374
     7  N    3.225264   2.222224   3.275499   2.246425   2.057739
     8  H    2.516454   2.100782   4.153835   3.136114   3.988275
     9  N    2.111413   1.341600   3.210432   2.168750   3.105991
                    6          7          8          9
     6  C    0.000000
     7  N    1.300111   0.000000
     8  H    3.021329   2.009626   0.000000
     9  N    2.086782   1.327510   0.991189   0.000000
 Stoichiometry    C3H4N2
 Framework group  CS[SG(C3H4N2)]
 Deg. of freedom    15
 Full point group                 CS      NOp   2
 Largest Abelian subgroup         CS      NOp   2
 Largest concise Abelian subgroup C1      NOp   1
                         Standard orientation:                         
 ---------------------------------------------------------------------
 Center     Atomic     Atomic              Coordinates (Angstroms)
 Number     Number      Type              X           Y           Z
 ---------------------------------------------------------------------
    1          1             0        2.081177    0.719179    0.000000
    2          6             0        1.095917    0.301364    0.000000
    3          1             0        1.254410   -1.879999    0.000000
    4          6             0        0.662125   -0.989981    0.000000
    5          1             0       -1.478363   -1.656375    0.000000
    6          6             0       -0.747338   -0.873148    0.000000
    7          7             0       -1.125220    0.370835    0.000000
    8          1             0       -0.044911    2.065393    0.000000
    9          7             0        0.000000    1.075222    0.000000
 ---------------------------------------------------------------------
 Rotational constants (GHZ):      9.8870609      9.6536334      4.8844765
 Standard basis: 6-311G(d,p) (5D, 7F)
 There are    85 symmetry adapted basis functions of A'  symmetry.
 There are    29 symmetry adapted basis functions of A"  symmetry.
 Integral buffers will be    262144 words long.
 Raffenetti 1 integral format.
 Two-electron integral symmetry is turned on.
   114 basis functions,   192 primitive gaussians,   119 cartesian basis functions
    18 alpha electrons       18 beta electrons
       nuclear repulsion energy       165.0490360250 Hartrees.
 NAtoms=    9 NActive=    9 NUniq=    9 SFac= 1.00D+00 NAtFMM=   60 Big=F
 One-electron integrals computed using PRISM.
 NBasis=   114 RedAO= T  NBF=    85    29
 NBsUse=   114 1.00D-06 NBFU=    85    29
 Initial guess read from the read-write file:
 Initial guess orbital symmetries:
       Occupied  (A') (A') (A') (A') (A') (A') (A') (A') (A') (A')
                 (A') (A') (A") (A') (A') (A') (A") (A")
       Virtual   (A') (A") (A') (A') (A') (A") (A') (A') (A') (A')
                 (A') (A') (A") (A') (A') (A") (A') (A') (A") (A')
                 (A') (A') (A") (A') (A') (A') (A") (A') (A') (A')
                 (A') (A') (A") (A') (A") (A') (A") (A') (A") (A')
                 (A") (A') (A') (A") (A') (A') (A') (A") (A') (A")
                 (A') (A') (A') (A") (A") (A') (A') (A") (A') (A')
                 (A') (A") (A') (A') (A") (A') (A') (A') (A') (A")
                 (A") (A') (A') (A") (A') (A") (A') (A') (A') (A')
                 (A') (A') (A') (A") (A") (A') (A') (A') (A') (A')
                 (A') (A') (A') (A') (A') (A')
 Requested convergence on RMS density matrix=1.00D-08 within 128 cycles.
 Requested convergence on MAX density matrix=1.00D-06.
 Requested convergence on             energy=1.00D-06.
 No special actions if energy rises.
 SCF Done:  E(RHF) =  -224.848826004     A.U. after    9 cycles
             Convg  =    0.5622D-08             -V/T =  1.9999
             S**2   =   0.0000
 ***** Axes restored to original set *****
 -------------------------------------------------------------------
 Center     Atomic                   Forces (Hartrees/Bohr)
 Number     Number              X              Y              Z
 -------------------------------------------------------------------
    1          1           0.000023706    0.000000000   -0.000006215
    2          6          -0.000337640    0.000000000    0.000163528
    3          1          -0.000003348    0.000000000    0.000095278
    4          6          -0.000029664    0.000000000    0.000065614
    5          1          -0.000014971    0.000000000    0.000025613
    6          6           0.000271889    0.000000000    0.000114039
    7          7           0.000124181    0.000000000   -0.000098366
    8          1           0.000025770    0.000000000    0.000025627
    9          7          -0.000059924    0.000000000   -0.000385117
 -------------------------------------------------------------------
 Cartesian Forces:  Max     0.000385117 RMS     0.000124981

 GradGradGradGradGradGradGradGradGradGradGradGradGradGradGradGradGradGrad
 Berny optimization.
 Internal  Forces:  Max     0.000257526 RMS     0.000089705
 Search for a local minimum.
 Step number   6 out of a maximum of  48
 All quantities printed in internal units (Hartrees-Bohrs-Radians)
 Update second derivatives using D2CorX and points  1  2  3  4  5
                                                        6
 Trust test= 9.60D-01 RLast= 8.97D-03 DXMaxT set to 5.78D-01
     Eigenvalues ---    0.03203   0.03248   0.03251   0.03273   0.03342
     Eigenvalues ---    0.03373   0.14865   0.15535   0.16017   0.16336
     Eigenvalues ---    0.24271   0.31762   0.46762   0.47117   0.49762
     Eigenvalues ---    0.49866   0.58166   0.59235   0.60957   0.72701
     Eigenvalues ---    0.773631000.000001000.000001000.000001000.00000
     Eigenvalues --- 1000.000001000.000001000.000001000.000001000.00000
     Eigenvalues --- 1000.000001000.000001000.000001000.000001000.00000
     Eigenvalues --- 1000.000001000.000001000.00000
 RFO step:  Lambda=-8.12423529D-07.
 Quartic linear search produced a step of -0.04045.
 Iteration  1 RMS(Cart)=  0.00032059 RMS(Int)=  0.00000006
 Iteration  2 RMS(Cart)=  0.00000006 RMS(Int)=  0.00000003
 Variable       Old X    -DE/DX   Delta X   Delta X   Delta X     New X
                                 (Linear)    (Quad)   (Total)
    R1        2.02237  -0.00002   0.00005  -0.00012  -0.00007   2.02229
    R2        2.57430   0.00014   0.00009   0.00008   0.00016   2.57446
    R3        2.53526  -0.00026   0.00000  -0.00034  -0.00034   2.53491
    R4        2.02027  -0.00009   0.00005  -0.00027  -0.00022   2.02005
    R5        2.67263   0.00008  -0.00007   0.00028   0.00021   2.67284
    R6        2.02460  -0.00001   0.00005  -0.00011  -0.00006   2.02454
    R7        2.45685  -0.00014   0.00011  -0.00038  -0.00027   2.45659
    R8        2.50863   0.00018  -0.00012   0.00042   0.00030   2.50893
    R9        1.87308   0.00000   0.00004  -0.00008  -0.00003   1.87304
    A1        2.29595   0.00006   0.00009   0.00008   0.00017   2.29612
    A2        2.12569   0.00009   0.00003   0.00038   0.00042   2.12610
    A3        1.86154  -0.00015  -0.00013  -0.00046  -0.00059   1.86096
    A4        2.23034  -0.00006  -0.00010  -0.00006  -0.00015   2.23018
    A5        1.81217   0.00017   0.00007   0.00064   0.00072   1.81289
    A6        2.24068  -0.00011   0.00002  -0.00059  -0.00057   2.24011
    A7        2.23903   0.00012   0.00010   0.00035   0.00045   2.23948
    A8        1.94841  -0.00018  -0.00004  -0.00066  -0.00071   1.94770
    A9        2.09574   0.00006  -0.00006   0.00031   0.00026   2.09600
   A10        1.83520   0.00008  -0.00003   0.00036   0.00034   1.83554
   A11        1.96745   0.00009   0.00012   0.00012   0.00024   1.96769
   A12        2.23095  -0.00001  -0.00011   0.00024   0.00013   2.23108
   A13        2.08479  -0.00008  -0.00002  -0.00035  -0.00037   2.08442
    D1        0.00000   0.00000   0.00000   0.00000   0.00000   0.00000
    D2        3.14159   0.00000   0.00000   0.00000   0.00000   3.14159
    D3        3.14159   0.00000   0.00000   0.00000   0.00000   3.14159
    D4        0.00000   0.00000   0.00000   0.00000   0.00000   0.00000
    D5        3.14159   0.00000   0.00000   0.00000   0.00000   3.14159
    D6        0.00000   0.00000   0.00000   0.00000   0.00000   0.00000
    D7        0.00000   0.00000   0.00000   0.00000   0.00000   0.00000
    D8        3.14159   0.00000   0.00000   0.00000   0.00000   3.14159
    D9        3.14159   0.00000   0.00000   0.00000   0.00000   3.14159
   D10        0.00000   0.00000   0.00000   0.00000   0.00000   0.00000
   D11        0.00000   0.00000   0.00000   0.00000   0.00000   0.00000
   D12        3.14159   0.00000   0.00000   0.00000   0.00000   3.14159
[...]
 Depolar (U) --     0.8436                 0.2439                 0.4346
 Atom AN      X      Y      Z        X      Y      Z        X      Y      Z
   1   1     0.72   0.30   0.00    -0.55  -0.24   0.00     0.01   0.00   0.00
   2   6    -0.06  -0.03   0.00     0.05   0.03   0.00     0.00   0.00   0.00
   3   1    -0.29   0.42   0.00    -0.42   0.64   0.00     0.00   0.00   0.00
   4   6     0.03  -0.03   0.00     0.04  -0.06   0.00     0.00   0.00   0.00
   5   1     0.24   0.26   0.00     0.15   0.15   0.00     0.00   0.00   0.00
   6   6    -0.02  -0.02   0.00    -0.02  -0.01   0.00     0.00   0.00   0.00
   7   7     0.00   0.00   0.00     0.00   0.00   0.00     0.00   0.00   0.00
   8   1    -0.01  -0.01   0.00     0.00   0.01   0.00    -0.05   1.00   0.00
   9   7     0.00   0.00   0.00     0.00   0.00   0.00     0.00  -0.08   0.00

 -------------------
 - Thermochemistry -
 -------------------
 Temperature   298.150 Kelvin.  Pressure   1.00000 Atm.
 Atom  1 has atomic number  1 and mass   1.00783
 Atom  2 has atomic number  6 and mass  12.00000
 Atom  3 has atomic number  1 and mass   1.00783
 Atom  4 has atomic number  6 and mass  12.00000
 Atom  5 has atomic number  1 and mass   1.00783
 Atom  6 has atomic number  6 and mass  12.00000
 Atom  7 has atomic number  7 and mass  14.00307
 Atom  8 has atomic number  1 and mass   1.00783
 Atom  9 has atomic number  7 and mass  14.00307
 Molecular mass:    68.03745 amu.
 Principal axes and moments of inertia in atomic units:
                           1         2         3
     EIGENVALUES --   182.53566 186.94942 369.48509
           X            0.94250   0.33421   0.00000
           Y           -0.33421   0.94250   0.00000
           Z            0.00000   0.00000   1.00000
 This molecule is an asymmetric top.
 Rotational symmetry number  1.
 Rotational temperatures (Kelvin)      0.47450     0.46330     0.23442
 Rotational constants (GHZ):           9.88706     9.65363     4.88448
 Zero-point vibrational energy     200857.3 (Joules/Mol)
                                   48.00604 (Kcal/Mol)
 Warning -- explicit consideration of   1 degrees of freedom as
           vibrations may cause significant error
 Vibrational temperatures:    814.70   990.10  1075.25  1224.47  1418.20
          (Kelvin)           1437.53  1462.58  1473.72  1609.16  1633.50
                             1756.47  1838.20  2008.84  2206.54  2209.90
                             2338.13  2493.96  4873.00  4893.78  4923.29
                             5633.79
 
 Zero-point correction=                           0.076502 (Hartree/Particle)
 Thermal correction to Energy=                    0.080029
 Thermal correction to Enthalpy=                  0.080974
 Thermal correction to Gibbs Free Energy=         0.050342
 Sum of electronic and zero-point Energies=           -224.772324
 Sum of electronic and thermal Energies=              -224.768797
 Sum of electronic and thermal Enthalpies=            -224.767852
 Sum of electronic and thermal Free Energies=         -224.798484
 
                     E (Thermal)             CV                S
                      KCal/Mol        Cal/Mol-Kelvin    Cal/Mol-Kelvin
 Total                   50.219             11.899             64.469
 Electronic               0.000              0.000              0.000
 Translational            0.889              2.981             38.570
 Rotational               0.889              2.981             24.048
 Vibrational             48.442              5.937              1.851
 Vibration  1             0.922              1.104              0.512
                       Q            Log10(Q)             Ln(Q)
 Total Bot       0.698714D-23        -23.155701        -53.317972
 Total V=0       0.107877D+13         12.032928         27.706841
 Vib (Bot)       0.788027D-35        -35.103459        -80.828701
 Vib (Bot)  1    0.272806D+00         -0.564147         -1.298996
 Vib (V=0)       0.121666D+01          0.085170          0.196112
 Vib (V=0)  1    0.106958D+01          0.029214          0.067267
 Electronic      0.100000D+01          0.000000          0.000000
 Translational   0.220586D+08          7.343577         16.909211
 Rotational      0.401958D+05          4.604181         10.601518
 ***** Axes restored to original set *****
 -------------------------------------------------------------------
 Center     Atomic                   Forces (Hartrees/Bohr)
 Number     Number              X              Y              Z
 -------------------------------------------------------------------
    1          1           0.000023710    0.000000000   -0.000006213
    2          6          -0.000337656    0.000000000    0.000163589
    3          1          -0.000003345    0.000000000    0.000095275
    4          6          -0.000029644    0.000000000    0.000065618
    5          1          -0.000014961    0.000000000    0.000025614
    6          6           0.000271892    0.000000000    0.000113994
    7          7           0.000124160    0.000000000   -0.000098329
    8          1           0.000025783    0.000000000    0.000025619
    9          7          -0.000059939    0.000000000   -0.000385166
 -------------------------------------------------------------------
 Cartesian Forces:  Max     0.000385166 RMS     0.000124989

 GradGradGradGradGradGradGradGradGradGradGradGradGradGradGradGradGradGrad
 Berny optimization.
 Internal  Forces:  Max     0.000257573 RMS     0.000089708
 Search for a local minimum.
 Step number   1 out of a maximum of   2
 All quantities printed in internal units (Hartrees-Bohrs-Radians)
 Second derivative matrix not updated -- analytic derivatives used.
     Eigenvalues ---    0.00838   0.01462   0.02084   0.03389   0.06673
     Eigenvalues ---    0.07240   0.10791   0.12081   0.12776   0.13760
     Eigenvalues ---    0.25653   0.28929   0.39046   0.40313   0.40768
     Eigenvalues ---    0.41009   0.46918   0.47713   0.54451   0.57535
     Eigenvalues ---    0.675891000.000001000.000001000.000001000.00000
     Eigenvalues --- 1000.000001000.000001000.000001000.000001000.00000
     Eigenvalues --- 1000.000001000.000001000.000001000.000001000.00000
     Eigenvalues --- 1000.000001000.000001000.00000
 Angle between quadratic step and forces=  27.04 degrees.
 Linear search not attempted -- first point.
 Iteration  1 RMS(Cart)=  0.00024739 RMS(Int)=  0.00000004
 Iteration  2 RMS(Cart)=  0.00000005 RMS(Int)=  0.00000001
 Variable       Old X    -DE/DX   Delta X   Delta X   Delta X     New X
                                 (Linear)    (Quad)   (Total)
    R1        2.02237  -0.00002   0.00000  -0.00007  -0.00007   2.02229
    R2        2.57430   0.00014   0.00000   0.00027   0.00027   2.57456
    R3        2.53526  -0.00026   0.00000  -0.00047  -0.00047   2.53479
    R4        2.02027  -0.00009   0.00000  -0.00019  -0.00019   2.02007
    R5        2.67263   0.00008   0.00000   0.00014   0.00014   2.67277
    R6        2.02460  -0.00001   0.00000  -0.00006  -0.00006   2.02455
    R7        2.45685  -0.00014   0.00000  -0.00012  -0.00012   2.45673
    R8        2.50863   0.00018   0.00000   0.00024   0.00024   2.50887
    R9        1.87308   0.00000   0.00000   0.00000   0.00000   1.87308
    A1        2.29595   0.00006   0.00000  -0.00001  -0.00001   2.29594
    A2        2.12569   0.00009   0.00000   0.00043   0.00043   2.12612
    A3        1.86154  -0.00015   0.00000  -0.00042  -0.00042   1.86112
    A4        2.23034  -0.00006   0.00000  -0.00004  -0.00004   2.23029
    A5        1.81217   0.00017   0.00000   0.00046   0.00046   1.81263
    A6        2.24068  -0.00011   0.00000  -0.00041  -0.00041   2.24026
    A7        2.23903   0.00012   0.00000   0.00042   0.00042   2.23945
    A8        1.94841  -0.00018   0.00000  -0.00047  -0.00047   1.94794
    A9        2.09574   0.00006   0.00000   0.00005   0.00005   2.09580
   A10        1.83520   0.00008   0.00000   0.00016   0.00016   1.83536
   A11        1.96745   0.00009   0.00000   0.00028   0.00028   1.96773
   A12        2.23095  -0.00001   0.00000   0.00022   0.00022   2.23117
   A13        2.08479  -0.00008   0.00000  -0.00050  -0.00050   2.08429
    D1        0.00000   0.00000   0.00000   0.00000   0.00000   0.00000
    D2        3.14159   0.00000   0.00000   0.00000   0.00000   3.14159
    D3        3.14159   0.00000   0.00000   0.00000   0.00000   3.14159
    D4        0.00000   0.00000   0.00000   0.00000   0.00000   0.00000
    D5        3.14159   0.00000   0.00000   0.00000   0.00000   3.14159
    D6        0.00000   0.00000   0.00000   0.00000   0.00000   0.00000
    D7        0.00000   0.00000   0.00000   0.00000   0.00000   0.00000
    D8        3.14159   0.00000   0.00000   0.00000   0.00000   3.14159
    D9        3.14159   0.00000   0.00000   0.00000   0.00000   3.14159
   D10        0.00000   0.00000   0.00000   0.00000   0.00000   0.00000
   D11        0.00000   0.00000   0.00000   0.00000   0.00000   0.00000
   D12        3.14159   0.00000   0.00000   0.00000   0.00000   3.14159
   D13        0.00000   0.00000   0.00000   0.00000   0.00000   0.00000
   D14        3.14159   0.00000   0.00000   0.00000   0.00000   3.14159
   D15        0.00000   0.00000   0.00000   0.00000   0.00000   0.00000
   D16        3.14159   0.00000   0.00000   0.00000   0.00000   3.14159
         Item               Value     Threshold  Converged?
 Maximum Force            0.000258     0.000450     YES
 RMS     Force            0.000090     0.000300     YES
 Maximum Displacement     0.000655     0.001800     YES
 RMS     Displacement     0.000247     0.001200     YES
 Predicted change in Energy=-3.467995D-07
 Optimization completed.
    -- Stationary point found.
                           ----------------------------
                           !   Optimized Parameters   !
                           ! (Angstroms and Degrees)  !
 --------------------------                            --------------------------
 ! Name  Definition              Value          Derivative Info.                !
 --------------------------------------------------------------------------------
 ! R1    R(1,2)                  1.0702         -DE/DX =    0.0                 !
 ! R2    R(2,4)                  1.3623         -DE/DX =    0.0001              !
 ! R3    R(2,9)                  1.3416         -DE/DX =   -0.0003              !
 ! R4    R(3,4)                  1.0691         -DE/DX =   -0.0001              !
 ! R5    R(4,6)                  1.4143         -DE/DX =    0.0001              !
 ! R6    R(5,6)                  1.0714         -DE/DX =    0.0                 !
 ! R7    R(6,7)                  1.3001         -DE/DX =   -0.0001              !
 ! R8    R(7,9)                  1.3275         -DE/DX =    0.0002              !
 ! R9    R(8,9)                  0.9912         -DE/DX =    0.0                 !
 ! A1    A(1,2,4)              131.5485         -DE/DX =    0.0001              !
 ! A2    A(1,2,9)              121.7929         -DE/DX =    0.0001              !
 ! A3    A(4,2,9)              106.6586         -DE/DX =   -0.0002              !
 ! A4    A(2,4,3)              127.7888         -DE/DX =   -0.0001              !
 ! A5    A(2,4,6)              103.8298         -DE/DX =    0.0002              !
 ! A6    A(3,4,6)              128.3813         -DE/DX =   -0.0001              !
 ! A7    A(4,6,5)              128.2871         -DE/DX =    0.0001              !
 ! A8    A(4,6,7)              111.6357         -DE/DX =   -0.0002              !
 ! A9    A(5,6,7)              120.0772         -DE/DX =    0.0001              !
 ! A10   A(6,7,9)              105.1494         -DE/DX =    0.0001              !
 ! A11   A(2,9,7)              112.7265         -DE/DX =    0.0001              !
 ! A12   A(2,9,8)              127.824          -DE/DX =    0.0                 !
 ! A13   A(7,9,8)              119.4496         -DE/DX =   -0.0001              !
 ! D1    D(1,2,4,3)              0.0            -DE/DX =    0.0                 !
 ! D2    D(1,2,4,6)            180.0            -DE/DX =    0.0                 !
 ! D3    D(9,2,4,3)            180.0            -DE/DX =    0.0                 !
 ! D4    D(9,2,4,6)              0.0            -DE/DX =    0.0                 !
 ! D5    D(1,2,9,7)            180.0            -DE/DX =    0.0                 !
 ! D6    D(1,2,9,8)              0.0            -DE/DX =    0.0                 !
 ! D7    D(4,2,9,7)              0.0            -DE/DX =    0.0                 !
 ! D8    D(4,2,9,8)            180.0            -DE/DX =    0.0                 !
 ! D9    D(2,4,6,5)            180.0            -DE/DX =    0.0                 !
 ! D10   D(2,4,6,7)              0.0            -DE/DX =    0.0                 !
 ! D11   D(3,4,6,5)              0.0            -DE/DX =    0.0                 !
 ! D12   D(3,4,6,7)            180.0            -DE/DX =    0.0                 !
 ! D13   D(4,6,7,9)              0.0            -DE/DX =    0.0                 !
 ! D14   D(5,6,7,9)            180.0            -DE/DX =    0.0                 !
 ! D15   D(6,7,9,2)              0.0            -DE/DX =    0.0                 !
 ! D16   D(6,7,9,8)            180.0            -DE/DX =    0.0                 !
 --------------------------------------------------------------------------------
 GradGradGradGradGradGradGradGradGradGradGradGradGradGradGradGradGradGrad

 1|1|UNPC-UNK|Freq|RHF|6-311G(d,p)|C3H4N2|PCUSER|04-Jan-2005|0||#N GEOM
 =ALLCHECK GUESS=READ SCRF=CHECK GENCHK RHF/6-311G(D,P) FREQ||1H pyrazo
 le C3H4N2 casno=288131 method=1 basis=21||0,1|H,-1.8721596702,0.,-1.15
 91087955|C,-0.9258914545,0.,-0.6592267753|H,0.6650560052,0.,-2.1600094
 121|C,0.3492176089,0.,-1.1386484164|H,2.2179221346,0.,0.0997839852|C,1
 .1489681727,0.,0.0278140289|N,0.4232911998,0.,1.1065549507|H,-1.572791
 182,0.,1.3394746947|N,-0.8335473784,0.,0.6791916927||Version=x86-Win32
 -G03RevB.05|State=1-A'|HF=-224.848826|RMSD=1.832e-009|RMSF=1.250e-004|
 Dipole=-0.81101,0.,-0.4726865|DipoleDeriv=-0.0119051,0.,-0.0532248,0.,
 0.1867195,0.,-0.041145,0.,0.0817536,0.2841004,0.,-0.1358659,0.,-0.0348
 923,0.,-0.3889326,0.,0.3248304,0.0932976,0.,0.0316098,0.,0.1955194,0.,
 0.0382383,0.,-0.0423383,-0.4205592,0.,-0.0218114,0.,-0.304332,0.,-0.06
 72861,0.,0.0014917,-0.0687743,0.,-0.0099216,0.,0.148023,0.,-0.0384056,
 0.,0.0824582,0.329704,0.,0.1563006,0.,-0.0262622,0.,0.2762179,0.,0.247
 0093,0.0297003,0.,-0.2945063,0.,-0.2536649,0.,-0.1126933,0.,-0.6755555
 ,0.2345279,0.,-0.06587,0.,0.3413221,0.,-0.0525978,0.,0.2443795,-0.4700
 917,0.,0.3932897,0.,-0.2524326,0.,0.3866042,0.,-0.2640289|Polar=48.135
 7094,0.,21.8103968,-1.2593764,0.,43.974557|PolarDeriv=-7.4053191,0.,-0
 .0504237,-2.9938253,0.,-1.8725719,0.,-0.4010461,0.,0.,-0.3772791,0.,-2
 .8785702,0.,-0.0241593,-2.4240957,0.,-2.2263533,-2.7910819,0.,-1.71763
 83,-2.5740903,0.,-3.9746283,0.,-4.531964,0.,0.,-0.8403169,0.,-1.065959
 7,0.,-0.5239113,2.9098708,0.,0.5435163,1.3956216,0.,-0.0790404,-1.6963
 649,0.,1.8244821,0.,-0.1156957,0.,0.,-0.7653874,0.,-1.2324208,0.,0.146
 0178,2.2108104,0.,-8.6136786,2.681573,0.,0.7347838,5.4976072,0.,4.0864
 661,0.,2.7492185,0.,0.,-3.0923092,0.,-2.3967043,0.,-1.1818463,2.302072
 6,0.,1.1751047,10.1272314,0.,0.0869391,0.6632781,0.,0.7600282,0.,0.975
 6149,0.,0.,0.2921845,0.,0.4652902,0.,0.1190347,1.2940317,0.,0.0340754,
 -0.2647765,0.,1.2307342,-1.8064243,0.,1.6923302,0.,3.0519293,0.,0.,-0.
 6645962,0.,0.6690226,0.,0.1426705,-6.1499182,0.,-6.9770961,1.7919153,0
 .,-0.7452393,-1.6895659,0.,-1.715923,0.,0.4111018,0.,0.,3.5547689,0.,2
 .0392305,0.,0.6669798,4.662997,0.,13.4142922,-4.8454639,0.,0.1877155,3
 .1361473,0.,-2.6549573,0.,-0.6400911,0.,0.,0.5048166,0.,2.7054385,0.,0
 .1962717,-2.9927769,0.,4.1709748,-0.6896998,0.,0.3521691,1.4632381,0.,
 1.8547739,0.,-1.4990676,0.,0.,1.3881189,0.,1.6946732,0.,0.4589425,-1.8
 129917,0.,-1.5208355|HyperPolar=-16.7019766,0.,0.8217446,0.,7.4232099,
 0.,-13.6062281,0.9374317,0.,-50.250589|PG=CS [SG(C3H4N2)]|NImag=0||0.3
 3019553,0.,0.02803263,0.14409062,0.,0.13723737,-0.32637173,0.,-0.12125
 792,0.97750225,0.,-0.03914531,0.,0.,0.15942198,-0.13230039,0.,-0.13709
 099,0.11061350,0.,0.73087958,0.00034671,0.,-0.00110605,0.00387442,0.,0
 .02979556,0.08661165,0.,-0.00380625,0.,0.,-0.00052656,0.,0.,0.02643638
 ,0.00064691,0.,-0.00028106,-0.00353426,0.,0.00028237,-0.10011206,0.,0.
 37671734,-0.00707485,0.,0.00998111,-0.39668963,0.,0.06960043,-0.097481
 97,0.,0.09197528,0.69617050,0.,0.00486776,0.,0.,-0.08201673,0.,0.,-0.0
 3293131,0.,0.,0.14266209,-0.01784433,0.,0.01548312,0.11639033,0.,-0.17
 401141,0.08950881,0.,-0.36390201,-0.14940306,0.,0.92025706,-0.00025574
 ,0.,0.00030595,-0.00094641,0.,-0.00167564,-0.00023896,0.,-0.00062039,-
 0.00450855,0.,0.00462235,0.40209149,0.,0.00065891,0.,0.,0.00496194,0.,
 0.,-0.00197982,0.,0.,0.00287811,0.,0.,0.03131086,-0.00121174,0.,0.0012
 4202,-0.00371016,0.,-0.00707416,0.00118910,0.,0.00007761,-0.02410971,0
 .,0.00940199,0.02202598,0.,0.06515256,-0.00553608,0.,0.00508321,-0.061
 25625,0.,0.00016757,0.01644964,0.,0.01411265,-0.20071883,0.,-0.1034031
 5,-0.38005114,0.,-0.03632335,1.00455368,0.,0.00637685,0.,0.,0.01369165
 ,0.,0.,-0.00257907,0.,0.,-0.08143856,0.,0.,-0.04201178,0.,0.,0.1769270
 3,0.00167339,0.,-0.00160664,-0.08612348,0.,0.06007929,-0.01666083,0.,-
 0.00873215,-0.05377440,0.,-0.24560651,-0.02594711,0.,-0.07358399,-0.05
 159372,0.,0.70441658,0.00107967,0.,0.00188809,-0.07104373,0.,-0.049913
 89,-0.00244915,0.,-0.00179852,0.04467016,0.,0.05244005,-0.01566157,0.,
 0.03334424,-0.22899235,0.,0.16747010,0.59373889,0.,0.00732301,0.,0.,0.
 01877926,0.,0.,0.00671559,0.,0.,0.02651374,0.,0.,-0.00779575,0.,0.,-0.
 08829970,0.,0.,0.12437086,0.00238532,0.,-0.00668756,-0.01918488,0.,-0.
 08672276,-0.00745854,0.,-0.00500529,-0.04491044,0.,-0.08871120,-0.0019
 3008,0.,0.00883506,0.14899094,0.,-0.39071672,-0.06945245,0.,0.69899967
 ,-0.00028417,0.,0.00051027,0.01290176,0.,-0.00283886,0.00086763,0.,-0.
 00007501,0.00352146,0.,-0.00352301,-0.00053112,0.,0.00156342,-0.008320
 19,0.,-0.00759020,-0.02143912,0.,0.03002532,0.33773892,0.,-0.00213409,
 0.,0.,-0.00832145,0.,0.,0.00264291,0.,0.,0.00343577,0.,0.,0.00235893,0
 .,0.,0.00494185,0.,0.,-0.01404216,0.,0.,0.01402746,-0.00091996,0.,0.00
 022085,0.02900672,0.,-0.00521031,0.00133242,0.,0.00014350,-0.00309062,
 0.,-0.00797007,-0.00059930,0.,0.00108289,-0.00705253,0.,0.00154732,-0.
 01105638,0.,0.02050827,-0.23139667,0.,0.28552056,0.00790065,0.,-0.0394
 9528,-0.13797068,0.,-0.02344828,-0.00797998,0.,-0.00059461,-0.03788829
 ,0.,0.01121199,0.00010198,0.,0.00723222,-0.13612849,0.,0.07254625,-0.2
 9990281,0.,-0.03846519,-0.32445517,0.,0.22377632,0.93632279,0.,-0.0021
 7350,0.,0.,-0.06684477,0.,0.,0.00602812,0.,0.,0.01602913,0.,0.,0.00961
 860,0.,0.,0.01239173,0.,0.,-0.07356486,0.,0.,-0.00290921,0.,0.,0.10142
 478,0.00348017,0.,-0.00851709,-0.02219986,0.,-0.38113161,0.00351159,0.
 ,0.00069968,0.10373141,0.,-0.06494095,0.00381824,0.,-0.00513397,0.0300
 1836,0.,-0.04579718,-0.12292123,0.,-0.15049947,0.21332473,0.,-0.295843
 00,-0.21276342,0.,0.95116359||-0.00002371,0.,0.00000621,0.00033766,0.,
 -0.00016359,0.00000334,0.,-0.00009527,0.00002964,0.,-0.00006562,0.0000
 1496,0.,-0.00002561,-0.00027189,0.,-0.00011399,-0.00012416,0.,0.000098
 33,-0.00002578,0.,-0.00002562,0.00005994,0.,0.00038517|||@


 OUR LITTLE SYSTEMS HAVE THEIR DAY,    
   THEY HAVE THEIR DAY AND CEASE TO BE.
   THEY ARE BUT BROKEN LIGHTS OF THEE, 
 AND THOU, OH LORD, ART MORE THAN THEY.
          -------------------          
 LET KNOWLEDGE GROW FROM MORE TO MORE, 
   BUT MORE OF REVERENCE IN US DWELL.  
   THAT MIND AND SOUL, ACCORDING WELL, 
 MAY MAKE ONE MUSIC AS BEFORE.....     
          -------------------          
                    LORD TENNYSON      
 Job cpu time:  0 days  0 hours  4 minutes  2.0 seconds.
 File lengths (MBytes):  RWF=     26 Int=      0 D2E=      0 Chk=      5 Scr=      1
 Normal termination of Gaussian 03 at Tue Jan 04 17:56:32 2005.
