 Entering Link 1 = C:\G03W\l1.exe PID=    281128.
  
 Copyright (c) 1988,1990,1992,1993,1995,1998,2003, Gaussian, Inc.
                  All Rights Reserved.
  
 This is the Gaussian(R) 03 program.  It is based on the
 the Gaussian(R) 98 system (copyright 1998, Gaussian, Inc.),
 the Gaussian(R) 94 system (copyright 1995, Gaussian, Inc.),
 the Gaussian 92(TM) system (copyright 1992, Gaussian, Inc.),
 the Gaussian 90(TM) system (copyright 1990, Gaussian, Inc.),
 the Gaussian 88(TM) system (copyright 1988, Gaussian, Inc.),
 the Gaussian 86(TM) system (copyright 1986, Carnegie Mellon
 University), and the Gaussian 82(TM) system (copyright 1983,
 Carnegie Mellon University). Gaussian is a federally registered
 trademark of Gaussian, Inc.
  
 This software contains proprietary and confidential information,
 including trade secrets, belonging to Gaussian, Inc.
  
 This software is provided under written license and may be
 used, copied, transmitted, or stored only in accord with that
 written license.
  
 The following legend is applicable only to US Government
 contracts under DFARS:
  
                    RESTRICTED RIGHTS LEGEND
  
 Use, duplication or disclosure by the US Government is subject
 to restrictions as set forth in subparagraph (c)(1)(ii) of the
 Rights in Technical Data and Computer Software clause at DFARS
 252.227-7013.
  
 Gaussian, Inc.
 Carnegie Office Park, Building 6, Pittsburgh, PA 15106 USA
  
 The following legend is applicable only to US Government
 contracts under FAR:
  
                    RESTRICTED RIGHTS LEGEND
  
 Use, reproduction and disclosure by the US Government is subject
 to restrictions as set forth in subparagraph (c) of the
 Commercial Computer Software - Restricted Rights clause at FAR
 52.227-19.
  
 Gaussian, Inc.
 Carnegie Office Park, Building 6, Pittsburgh, PA 15106 USA
  
  
 ---------------------------------------------------------------
 Warning -- This program may not be used in any manner that
 competes with the business of Gaussian, Inc. or will provide
 assistance to any competitor of Gaussian, Inc.  The licensee
 of this program is prohibited from giving any competitor of
 Gaussian, Inc. access to this program.  By using this program,
 the user acknowledges that Gaussian, Inc. is engaged in the
 business of creating and licensing software in the field of
 computational chemistry and represents and warrants to the
 licensee that it is not a competitor of Gaussian, Inc. and that
 it will not use this program in any manner prohibited above.
 ---------------------------------------------------------------
  

 Cite this work as:
 Gaussian 03, Revision B.05,
 M. J. Frisch, G. W. Trucks, H. B. Schlegel, G. E. Scuseria, 
 M. A. Robb, J. R. Cheeseman, J. A. Montgomery, Jr., T. Vreven, 
 K. N. Kudin, J. C. Burant, J. M. Millam, S. S. Iyengar, J. Tomasi, 
 V. Barone, B. Mennucci, M. Cossi, G. Scalmani, N. Rega, 
 G. A. Petersson, H. Nakatsuji, M. Hada, M. Ehara, K. Toyota, 
 R. Fukuda, J. Hasegawa, M. Ishida, T. Nakajima, Y. Honda, O. Kitao, 
 H. Nakai, M. Klene, X. Li, J. E. Knox, H. P. Hratchian, J. B. Cross, 
 C. Adamo, J. Jaramillo, R. Gomperts, R. E. Stratmann, O. Yazyev, 
 A. J. Austin, R. Cammi, C. Pomelli, J. W. Ochterski, P. Y. Ayala, 
 K. Morokuma, G. A. Voth, P. Salvador, J. J. Dannenberg, 
 V. G. Zakrzewski, S. Dapprich, A. D. Daniels, M. C. Strain, 
 O. Farkas, D. K. Malick, A. D. Rabuck, K. Raghavachari, 
 J. B. Foresman, J. V. Ortiz, Q. Cui, A. G. Baboul, S. Clifford, 
 J. Cioslowski, B. B. Stefanov, G. Liu, A. Liashenko, P. Piskorz, 
 I. Komaromi, R. L. Martin, D. J. Fox, T. Keith, M. A. Al-Laham, 
 C. Y. Peng, A. Nanayakkara, M. Challacombe, P. M. W. Gill, 
 B. Johnson, W. Chen, M. W. Wong, C. Gonzalez, and J. A. Pople, 
 Gaussian, Inc., Pittsburgh PA, 2003.
 
 **********************************************
 Gaussian 03:  x86-Win32-G03RevB.05  8-Nov-2003
                  23-Jul-2004 
 **********************************************
 %mem=56000000
 Default route:  MaxDisk=6000MB MP2=InCore
 -------------------
 #HF/STO-3G opt freq
 -------------------
 1/18=20,38=1/1,3;
 2/9=110,17=6,18=5,40=1/2;
 3/6=3,11=9,16=1,25=1,30=1/1,2,3;
 4//1;
 5/5=2,38=5/2;
 6/7=2,8=2,9=2,10=2,28=1/1;
 7//1,2,3,16;
 1/18=20/3(1);
 99//99;
 2/9=110/2;
 3/6=3,11=9,16=1,25=1,30=1/1,2,3;
 4/5=5,16=3/1;
 5/5=2,38=5/2;
 7//1,2,3,16;
 1/18=20/3(-5);
 2/9=110/2;
 6/7=2,8=2,9=2,10=2,19=2,28=1/1;
 99/9=1/99;
 --------------------------------------------------
 1hpyraz 1H-Pyrazole casno=288131 method=1 basis=20
 --------------------------------------------------
 Symbolic Z-matrix:
 Charge =  0 Multiplicity = 1
 H                     2.08995   0.71705   0. 
 C                     1.10513   0.31286   0. 
 H                     1.2716   -1.86097   0. 
 C                     0.67589  -0.98015   0. 
 H                    -1.44178  -1.69836   0. 
 C                    -0.74155  -0.89685   0. 
 N                    -1.15616   0.34853   0. 
 H                    -0.06343   2.09008   0. 
 N                     0.        1.09962   0. 
 

 GradGradGradGradGradGradGradGradGradGradGradGradGradGradGradGradGradGrad
 Berny optimization.
 Initialization pass.
                           ----------------------------
                           !    Initial Parameters    !
                           ! (Angstroms and Degrees)  !
 --------------------------                            --------------------------
 ! Name  Definition              Value          Derivative Info.                !
 --------------------------------------------------------------------------------
 ! R1    R(1,2)                  1.0645         estimate D2E/DX2                !
 ! R2    R(2,4)                  1.3624         estimate D2E/DX2                !
 ! R3    R(2,9)                  1.3566         estimate D2E/DX2                !
 ! R4    R(3,4)                  1.0633         estimate D2E/DX2                !
 ! R5    R(4,6)                  1.4199         estimate D2E/DX2                !
 ! R6    R(5,6)                  1.0643         estimate D2E/DX2                !
 ! R7    R(6,7)                  1.3126         estimate D2E/DX2                !
 ! R8    R(7,9)                  1.3787         estimate D2E/DX2                !
 ! R9    R(8,9)                  0.9925         estimate D2E/DX2                !
 ! A1    A(1,2,4)              130.6788         estimate D2E/DX2                !
 ! A2    A(1,2,9)              122.2381         estimate D2E/DX2                !
 ! A3    A(4,2,9)              107.0831         estimate D2E/DX2                !
 ! A4    A(2,4,3)              127.5639         estimate D2E/DX2                !
 ! A5    A(2,4,6)              105.0013         estimate D2E/DX2                !
 ! A6    A(3,4,6)              127.4349         estimate D2E/DX2                !
 ! A7    A(4,6,5)              127.7783         estimate D2E/DX2                !
 ! A8    A(4,6,7)              111.7767         estimate D2E/DX2                !
 ! A9    A(5,6,7)              120.445          estimate D2E/DX2                !
 ! A10   A(6,7,9)              104.596          estimate D2E/DX2                !
 ! A11   A(2,9,7)              111.5429         estimate D2E/DX2                !
 ! A12   A(2,9,8)              129.112          estimate D2E/DX2                !
 ! A13   A(7,9,8)              119.345          estimate D2E/DX2                !
 ! D1    D(1,2,4,3)              0.0            estimate D2E/DX2                !
 ! D2    D(1,2,4,6)            180.0            estimate D2E/DX2                !
 ! D3    D(9,2,4,3)            180.0            estimate D2E/DX2                !
 ! D4    D(9,2,4,6)              0.0            estimate D2E/DX2                !
 ! D5    D(1,2,9,7)            180.0            estimate D2E/DX2                !
 ! D6    D(1,2,9,8)              0.0            estimate D2E/DX2                !
 ! D7    D(4,2,9,7)              0.0            estimate D2E/DX2                !
 ! D8    D(4,2,9,8)            180.0            estimate D2E/DX2                !
 ! D9    D(2,4,6,5)            180.0            estimate D2E/DX2                !
 ! D10   D(2,4,6,7)              0.0            estimate D2E/DX2                !
 ! D11   D(3,4,6,5)              0.0            estimate D2E/DX2                !
 ! D12   D(3,4,6,7)            180.0            estimate D2E/DX2                !
 ! D13   D(4,6,7,9)              0.0            estimate D2E/DX2                !
 ! D14   D(5,6,7,9)            180.0            estimate D2E/DX2                !
 ! D15   D(6,7,9,2)              0.0            estimate D2E/DX2                !
 ! D16   D(6,7,9,8)            180.0            estimate D2E/DX2                !
 --------------------------------------------------------------------------------
 Trust Radius=3.00D-01 FncErr=1.00D-07 GrdErr=1.00D-07
 Number of steps in this run=  48 maximum allowed number of steps= 100.
 GradGradGradGradGradGradGradGradGradGradGradGradGradGradGradGradGradGrad

                          Input orientation:                          
 ---------------------------------------------------------------------
 Center     Atomic     Atomic              Coordinates (Angstroms)
 Number     Number      Type              X           Y           Z
 ---------------------------------------------------------------------
    1          1             0        2.089952    0.717051    0.000000
    2          6             0        1.105128    0.312860    0.000000
    3          1             0        1.271601   -1.860965    0.000000
    4          6             0        0.675886   -0.980154    0.000000
    5          1             0       -1.441780   -1.698362    0.000000
    6          6             0       -0.741552   -0.896852    0.000000
    7          7             0       -1.156159    0.348533    0.000000
    8          1             0       -0.063431    2.090083    0.000000
    9          7             0        0.000000    1.099620    0.000000
 ---------------------------------------------------------------------
                    Distance matrix (angstroms):
                    1          2          3          4          5
     1  H    0.000000
     2  C    1.064542   0.000000
     3  H    2.704786   2.180190   0.000000
     4  C    2.209092   1.362400   1.063346   0.000000
     5  H    4.278709   3.245266   2.718249   2.236142   0.000000
     6  C    3.259156   2.207630   2.232106   1.419884   1.064301
     7  N    3.266962   2.261568   3.282667   2.263139   2.066727
     8  H    2.553875   2.126982   4.170502   3.157997   4.031397
     9  N    2.124678   1.356576   3.222116   2.186843   3.147607
                    6          7          8          9
     6  C    0.000000
     7  N    1.312586   0.000000
     8  H    3.062944   2.055979   0.000000
     9  N    2.129742   1.378708   0.992492   0.000000
 Stoichiometry    C3H4N2
 Framework group  CS[SG(C3H4N2)]
 Deg. of freedom    15
 Full point group                 CS      NOp   2
 Largest Abelian subgroup         CS      NOp   2
 Largest concise Abelian subgroup C1      NOp   1
                         Standard orientation:                         
 ---------------------------------------------------------------------
 Center     Atomic     Atomic              Coordinates (Angstroms)
 Number     Number      Type              X           Y           Z
 ---------------------------------------------------------------------
    1          1             0        2.089952    0.717051    0.000000
    2          6             0        1.105128    0.312860    0.000000
    3          1             0        1.271601   -1.860965    0.000000
    4          6             0        0.675886   -0.980154    0.000000
    5          1             0       -1.441780   -1.698362    0.000000
    6          6             0       -0.741552   -0.896852    0.000000
    7          7             0       -1.156159    0.348533    0.000000
    8          1             0       -0.063431    2.090083    0.000000
    9          7             0        0.000000    1.099620    0.000000
 ---------------------------------------------------------------------
 Rotational constants (GHZ):      9.6634953      9.4401160      4.7752498
 Standard basis: STO-3G (5D, 7F)
 There are    24 symmetry adapted basis functions of A'  symmetry.
 There are     5 symmetry adapted basis functions of A"  symmetry.
 Integral buffers will be    262144 words long.
 Raffenetti 1 integral format.
 Two-electron integral symmetry is turned on.
    29 basis functions,    87 primitive gaussians,    29 cartesian basis functions
    18 alpha electrons       18 beta electrons
       nuclear repulsion energy       163.2122889088 Hartrees.
 NAtoms=    9 NActive=    9 NUniq=    9 SFac= 1.00D+00 NAtFMM=   60 Big=F
 One-electron integrals computed using PRISM.
 NBasis=    29 RedAO= T  NBF=    24     5
 NBsUse=    29 1.00D-06 NBFU=    24     5
 Harris functional with IExCor=  205 diagonalized for initial guess.
 ExpMin= 1.69D-01 ExpMax= 9.91D+01 ExpMxC= 9.91D+01 IAcc=1 IRadAn=         1 AccDes= 1.00D-06
 HarFok:  IExCor= 205 AccDes= 1.00D-06 IRadAn=         1 IDoV=1
 ScaDFX=  1.000000  1.000000  1.000000  1.000000
 Initial guess orbital symmetries:
       Occupied  (A') (A') (A') (A') (A') (A') (A') (A') (A') (A')
                 (A') (A') (A') (A') (A") (A') (A") (A")
       Virtual   (A") (A") (A') (A') (A') (A') (A') (A') (A') (A')
                 (A')
 The electronic state of the initial guess is 1-A'.
 Requested convergence on RMS density matrix=1.00D-08 within 128 cycles.
 Requested convergence on MAX density matrix=1.00D-06.
 Requested convergence on             energy=1.00D-06.
 No special actions if energy rises.
 Keep R1 integrals in memory in canonical form, NReq=      528061.
 SCF Done:  E(RHF) =  -221.974125847     A.U. after   13 cycles
             Convg  =    0.6430D-08             -V/T =  2.0095
             S**2   =   0.0000

 **********************************************************************

            Population analysis using the SCF density.

 **********************************************************************

 Orbital symmetries:
       Occupied  (A') (A') (A') (A') (A') (A') (A') (A') (A') (A')
                 (A') (A') (A") (A') (A') (A') (A") (A")
       Virtual   (A") (A") (A') (A') (A') (A') (A') (A') (A') (A')
                 (A')
 The electronic state is 1-A'.
 Alpha  occ. eigenvalues --  -15.43984 -15.35651 -11.07861 -11.04442 -11.00904
 Alpha  occ. eigenvalues --   -1.30724  -1.04677  -0.98936  -0.77269  -0.74012
 Alpha  occ. eigenvalues --   -0.69157  -0.55510  -0.55303  -0.53115  -0.50888
 Alpha  occ. eigenvalues --   -0.37259  -0.31330  -0.28210
 Alpha virt. eigenvalues --    0.29101   0.38624   0.56096   0.60142   0.68120
 Alpha virt. eigenvalues --    0.70646   0.73320   0.79248   0.92528   0.96932
 Alpha virt. eigenvalues --    1.12219
          Condensed to atoms (all electrons):
              1          2          3          4          5          6
     1  H    0.555108   0.396835  -0.001387  -0.018895  -0.000022   0.001787
     2  C    0.396835   4.749126  -0.020757   0.554048   0.001507  -0.060037
     3  H   -0.001387  -0.020757   0.569189   0.399439  -0.001135  -0.018347
     4  C   -0.018895   0.554048   0.399439   4.831001  -0.021316   0.472210
     5  H   -0.000022   0.001507  -0.001135  -0.021316   0.565514   0.398020
     6  C    0.001787  -0.060037  -0.018347   0.472210   0.398020   4.800328
     7  N    0.001203  -0.049964   0.001022  -0.042004  -0.023661   0.474318
     8  H   -0.001449  -0.028447  -0.000046   0.002281  -0.000071   0.003370
     9  N   -0.019422   0.421597   0.001338  -0.061788   0.002235  -0.072285
              7          8          9
     1  H    0.001203  -0.001449  -0.019422
     2  C   -0.049964  -0.028447   0.421597
     3  H    0.001022  -0.000046   0.001338
     4  C   -0.042004   0.002281  -0.061788
     5  H   -0.023661  -0.000071   0.002235
     6  C    0.474318   0.003370  -0.072285
     7  N    6.493949  -0.025873   0.328373
     8  H   -0.025873   0.451082   0.357511
     9  N    0.328373   0.357511   6.284327
 Mulliken atomic charges:
              1
     1  H    0.086241
     2  C    0.036092
     3  H    0.070684
     4  C   -0.114975
     5  H    0.078930
     6  C    0.000635
     7  N   -0.157363
     8  H    0.241642
     9  N   -0.241887
 Sum of Mulliken charges=   0.00000
 Atomic charges with hydrogens summed into heavy atoms:
              1
     1  H    0.000000
     2  C    0.122333
     3  H    0.000000
     4  C   -0.044290
     5  H    0.000000
     6  C    0.079565
     7  N   -0.157363
     8  H    0.000000
     9  N   -0.000245
 Sum of Mulliken charges=   0.00000
 Electronic spatial extent (au):  <R**2>=   281.7859
 Charge=     0.0000 electrons
 Dipole moment (field-independent basis, Debye):
    X=     1.9147    Y=     0.9011    Z=     0.0000  Tot=     2.1162
 Quadrupole moment (field-independent basis, Debye-Ang):
   XX=   -28.3938   YY=   -22.0402   ZZ=   -28.3055
   XY=     2.1306   XZ=     0.0000   YZ=     0.0000
 Traceless Quadrupole moment (field-independent basis, Debye-Ang):
   XX=    -2.1473   YY=     4.2063   ZZ=    -2.0590
   XY=     2.1306   XZ=     0.0000   YZ=     0.0000
 Octapole moment (field-independent basis, Debye-Ang**2):
  XXX=     6.3107  YYY=    11.7530  ZZZ=     0.0000  XYY=    -0.3655
  XXY=    -1.1487  XXZ=     0.0000  XZZ=    -1.1797  YZZ=     1.6465
  YYZ=     0.0000  XYZ=     0.0000
 Hexadecapole moment (field-independent basis, Debye-Ang**3):
 XXXX=  -161.1058 YYYY=  -129.9765 ZZZZ=   -21.1628 XXXY=     6.0564
 XXXZ=     0.0000 YYYX=    -2.6818 YYYZ=     0.0000 ZZZX=     0.0000
 ZZZY=     0.0000 XXYY=   -48.8494 XXZZ=   -31.5399 YYZZ=   -31.6368
 XXYZ=     0.0000 YYXZ=     0.0000 ZZXY=    -0.6927
 N-N= 1.632122889088D+02 E-N=-8.450828304981D+02  KE= 2.198946507196D+02
 Symmetry A'   KE= 2.108731694039D+02
 Symmetry A"   KE= 9.021481315690D+00
 ***** Axes restored to original set *****
 -------------------------------------------------------------------
 Center     Atomic                   Forces (Hartrees/Bohr)
 Number     Number              X              Y              Z
 -------------------------------------------------------------------
    1          1           0.014483425    0.007431496    0.000000000
    2          6           0.007652048   -0.030241071    0.000000000
    3          1           0.007255569   -0.009689693    0.000000000
    4          6          -0.000401049    0.017398567    0.000000000
    5          1          -0.010602407   -0.012093897    0.000000000
    6          6           0.020782448   -0.005037621    0.000000000
    7          7          -0.023511228    0.022897608    0.000000000
    8          1           0.000217747    0.037959640    0.000000000
    9          7          -0.015876553   -0.028625028    0.000000000
 -------------------------------------------------------------------
 Cartesian Forces:  Max     0.037959640 RMS     0.014898366

 GradGradGradGradGradGradGradGradGradGradGradGradGradGradGradGradGradGrad
 Berny optimization.
 Internal  Forces:  Max     0.037868119 RMS     0.009989048
 Search for a local minimum.
 Step number   1 out of a maximum of  48
 All quantities printed in internal units (Hartrees-Bohrs-Radians)
 Second derivative matrix not updated -- first step.
     Eigenvalues ---    0.01994   0.02072   0.02122   0.02269   0.02364
     Eigenvalues ---    0.02460   0.16000   0.16000   0.16000   0.16000
     Eigenvalues ---    0.22000   0.22915   0.37929   0.37960   0.38084
     Eigenvalues ---    0.39349   0.46543   0.49033   0.49225   0.52023
     Eigenvalues ---    0.613711000.000001000.000001000.000001000.00000
     Eigenvalues --- 1000.000001000.000001000.000001000.000001000.00000
     Eigenvalues --- 1000.000001000.000001000.000001000.000001000.00000
     Eigenvalues --- 1000.000001000.000001000.00000
 RFO step:  Lambda=-8.13927894D-03.
 Linear search not attempted -- first point.
 Iteration  1 RMS(Cart)=  0.02146955 RMS(Int)=  0.00026594
 Iteration  2 RMS(Cart)=  0.00028719 RMS(Int)=  0.00005836
 Iteration  3 RMS(Cart)=  0.00000010 RMS(Int)=  0.00005836
 Variable       Old X    -DE/DX   Delta X   Delta X   Delta X     New X
                                 (Linear)    (Quad)   (Total)
    R1        2.01169   0.01622   0.00000   0.04187   0.04187   2.05356
    R2        2.57456  -0.01030   0.00000  -0.02149  -0.02159   2.55298
    R3        2.56356   0.02589   0.00000   0.04771   0.04771   2.61127
    R4        2.00943   0.01209   0.00000   0.03108   0.03108   2.04052
    R5        2.68319   0.00609   0.00000   0.01238   0.01233   2.69552
    R6        2.01124   0.01608   0.00000   0.04148   0.04148   2.05272
    R7        2.48043   0.02404   0.00000   0.03820   0.03826   2.51869
    R8        2.60538   0.00461   0.00000   0.01154   0.01163   2.61701
    R9        1.87554   0.03787   0.00000   0.07597   0.07597   1.95151
    A1        2.28078   0.00167   0.00000   0.01253   0.01259   2.29336
    A2        2.13346  -0.00110   0.00000  -0.00393  -0.00387   2.12958
    A3        1.86895  -0.00057   0.00000  -0.00861  -0.00872   1.86024
    A4        2.22641  -0.00175   0.00000  -0.00382  -0.00374   2.22267
    A5        1.83262   0.00233   0.00000   0.00069   0.00054   1.83315
    A6        2.22416  -0.00058   0.00000   0.00313   0.00321   2.22737
    A7        2.23015  -0.00318   0.00000  -0.01301  -0.01301   2.21714
    A8        1.95087   0.00641   0.00000   0.02635   0.02635   1.97722
    A9        2.10216  -0.00323   0.00000  -0.01334  -0.01334   2.08882
   A10        1.82554  -0.01265   0.00000  -0.04119  -0.04099   1.78456
   A11        1.94679   0.00448   0.00000   0.02275   0.02282   1.96961
   A12        2.25343  -0.00472   0.00000  -0.02612  -0.02615   2.22728
   A13        2.08296   0.00024   0.00000   0.00337   0.00333   2.08630
    D1        0.00000   0.00000   0.00000   0.00000   0.00000   0.00000
    D2        3.14159   0.00000   0.00000   0.00000   0.00000   3.14159
    D3        3.14159   0.00000   0.00000   0.00000   0.00000   3.14159
    D4        0.00000   0.00000   0.00000   0.00000   0.00000   0.00000
    D5        3.14159   0.00000   0.00000   0.00000   0.00000   3.14159
    D6        0.00000   0.00000   0.00000   0.00000   0.00000   0.00000
    D7        0.00000   0.00000   0.00000   0.00000   0.00000   0.00000
    D8        3.14159   0.00000   0.00000   0.00000   0.00000   3.14159
    D9        3.14159   0.00000   0.00000   0.00000   0.00000   3.14159
   D10        0.00000   0.00000   0.00000   0.00000   0.00000   0.00000
   D11        0.00000   0.00000   0.00000   0.00000   0.00000   0.00000
   D12        3.14159   0.00000   0.00000   0.00000   0.00000   3.14159
   D13        0.00000   0.00000   0.00000   0.00000   0.00000   0.00000
   D14        3.14159   0.00000   0.00000   0.00000   0.00000   3.14159
   D15        0.00000   0.00000   0.00000   0.00000   0.00000   0.00000
   D16        3.14159   0.00000   0.00000   0.00000   0.00000   3.14159
         Item               Value     Threshold  Converged?
 Maximum Force            0.037868     0.000450     NO 
 RMS     Force            0.009989     0.000300     NO 
 Maximum Displacement     0.068918     0.001800     NO 
 RMS     Displacement     0.021395     0.001200     NO 
 Predicted change in Energy=-4.145068D-03
 GradGradGradGradGradGradGradGradGradGradGradGradGradGradGradGradGradGrad

                          Input orientation:                          
 ---------------------------------------------------------------------
 Center     Atomic     Atomic              Coordinates (Angstroms)
 Number     Number      Type              X           Y           Z
 ---------------------------------------------------------------------
    1          1             0        2.114965    0.719472    0.000000
    2          6             0        1.113137    0.298461    0.000000
    3          1             0        1.286611   -1.876626    0.000000
    4          6             0        0.682099   -0.981908    0.000000
    5          1             0       -1.448536   -1.717666    0.000000
    6          6             0       -0.741534   -0.892991    0.000000
    7          7             0       -1.191099    0.361734    0.000000
    8          1             0       -0.059839    2.126553    0.000000
    9          7             0       -0.016160    1.094784    0.000000
 ---------------------------------------------------------------------
                    Distance matrix (angstroms):
                    1          2          3          4          5
     1  H    0.000000
     2  C    1.086697   0.000000
     3  H    2.725050   2.181994   0.000000
     4  C    2.224364   1.350976   1.079795   0.000000
     5  H    4.317196   3.259899   2.739763   2.254096   0.000000
     6  C    3.280186   2.204395   2.254088   1.426407   1.086252
     7  N    3.325363   2.305105   3.339058   2.305265   2.095276
     8  H    2.590299   2.172048   4.223550   3.195778   4.087359
     9  N    2.163920   1.381826   3.244456   2.190939   3.156197
                    6          7          8          9
     6  C    0.000000
     7  N    1.332833   0.000000
     8  H    3.095537   2.096267   0.000000
     9  N    2.115991   1.384863   1.032693   0.000000
 Stoichiometry    C3H4N2
 Framework group  CS[SG(C3H4N2)]
 Deg. of freedom    15
 Full point group                 CS      NOp   2
 Largest Abelian subgroup         CS      NOp   2
 Largest concise Abelian subgroup C1      NOp   1
                         Standard orientation:                         
 ---------------------------------------------------------------------
 Center     Atomic     Atomic              Coordinates (Angstroms)
 Number     Number      Type              X           Y           Z
 ---------------------------------------------------------------------
    1          1             0        2.127745    0.701119    0.000000
    2          6             0        1.122257    0.288926    0.000000
    3          1             0        1.276617   -1.887602    0.000000
    4          6             0        0.679988   -0.987607    0.000000
    5          1             0       -1.457029   -1.704619    0.000000
    6          6             0       -0.742809   -0.886186    0.000000
    7          7             0       -1.181334    0.372440    0.000000
    8          1             0       -0.034613    2.127252    0.000000
    9          7             0        0.000000    1.095139    0.000000
 ---------------------------------------------------------------------
 Rotational constants (GHZ):      9.6895114      9.1232801      4.6989373
 Standard basis: STO-3G (5D, 7F)
 There are    24 symmetry adapted basis functions of A'  symmetry.
 There are     5 symmetry adapted basis functions of A"  symmetry.
 Integral buffers will be    262144 words long.
 Raffenetti 1 integral format.
 Two-electron integral symmetry is turned on.
    29 basis functions,    87 primitive gaussians,    29 cartesian basis functions
    18 alpha electrons       18 beta electrons
       nuclear repulsion energy       161.7617368206 Hartrees.
 NAtoms=    9 NActive=    9 NUniq=    9 SFac= 1.00D+00 NAtFMM=   60 Big=F
 One-electron integrals computed using PRISM.
 NBasis=    29 RedAO= T  NBF=    24     5
 NBsUse=    29 1.00D-06 NBFU=    24     5
 Initial guess read from the read-write file:
 Initial guess orbital symmetries:
       Occupied  (A') (A') (A') (A') (A') (A') (A') (A') (A') (A')
                 (A') (A') (A") (A') (A') (A') (A") (A")
       Virtual   (A") (A") (A') (A') (A') (A') (A') (A') (A') (A')
                 (A')
 Harris functional with IExCor=  205 diagonalized for initial guess.
 ExpMin= 1.69D-01 ExpMax= 9.91D+01 ExpMxC= 9.91D+01 IAcc=1 IRadAn=         1 AccDes= 1.00D-06
 HarFok:  IExCor= 205 AccDes= 1.00D-06 IRadAn=         1 IDoV=1
 ScaDFX=  1.000000  1.000000  1.000000  1.000000
 Requested convergence on RMS density matrix=1.00D-08 within 128 cycles.
 Requested convergence on MAX density matrix=1.00D-06.
 Requested convergence on             energy=1.00D-06.
 No special actions if energy rises.
 Keep R1 integrals in memory in canonical form, NReq=      528061.
 SCF Done:  E(RHF) =  -221.976842438     A.U. after   12 cycles
             Convg  =    0.4096D-08             -V/T =  2.0101
             S**2   =   0.0000
 ***** Axes restored to original set *****
 -------------------------------------------------------------------
 Center     Atomic                   Forces (Hartrees/Bohr)
 Number     Number              X              Y              Z
 -------------------------------------------------------------------
    1          1          -0.005582578   -0.000329613    0.000000000
    2          6           0.003107512    0.005507896    0.000000000
    3          1          -0.003065735    0.002509040    0.000000000
    4          6          -0.003464724   -0.002596761    0.000000000
    5          1           0.003166828    0.003111890    0.000000000
    6          6          -0.007555030   -0.007696140    0.000000000
    7          7           0.010007284   -0.007012448    0.000000000
    8          1           0.002008479   -0.009969788    0.000000000
    9          7           0.001377964    0.016475925    0.000000000
 -------------------------------------------------------------------
 Cartesian Forces:  Max     0.016475925 RMS     0.005332765

 GradGradGradGradGradGradGradGradGradGradGradGradGradGradGradGradGradGrad
 Berny optimization.
 Internal  Forces:  Max     0.010045818 RMS     0.003368108
 Search for a local minimum.
 Step number   2 out of a maximum of  48
 All quantities printed in internal units (Hartrees-Bohrs-Radians)
 Update second derivatives using D2CorX and points  1  2
 Trust test= 6.55D-01 RLast= 1.38D-01 DXMaxT set to 3.00D-01
     Eigenvalues ---    0.01997   0.02067   0.02120   0.02262   0.02365
     Eigenvalues ---    0.02461   0.15679   0.16000   0.16000   0.16023
     Eigenvalues ---    0.21946   0.24788   0.37936   0.38049   0.39023
     Eigenvalues ---    0.39952   0.46820   0.48897   0.50781   0.58244
     Eigenvalues ---    0.637561000.000001000.000001000.000001000.00000
     Eigenvalues --- 1000.000001000.000001000.000001000.000001000.00000
     Eigenvalues --- 1000.000001000.000001000.000001000.000001000.00000
     Eigenvalues --- 1000.000001000.000001000.00000
 RFO step:  Lambda=-3.43807595D-04.
 Quartic linear search produced a step of -0.24514.
 Iteration  1 RMS(Cart)=  0.00870961 RMS(Int)=  0.00004480
 Iteration  2 RMS(Cart)=  0.00004974 RMS(Int)=  0.00000586
 Iteration  3 RMS(Cart)=  0.00000000 RMS(Int)=  0.00000586
 Variable       Old X    -DE/DX   Delta X   Delta X   Delta X     New X
                                 (Linear)    (Quad)   (Total)
    R1        2.05356  -0.00527  -0.01026   0.00103  -0.00923   2.04433
    R2        2.55298   0.00609   0.00529   0.00292   0.00822   2.56120
    R3        2.61127  -0.00471  -0.01170   0.00684  -0.00486   2.60641
    R4        2.04052  -0.00380  -0.00762   0.00104  -0.00658   2.03394
    R5        2.69552  -0.00348  -0.00302  -0.00284  -0.00585   2.68967
    R6        2.05272  -0.00442  -0.01017   0.00263  -0.00754   2.04518
    R7        2.51869  -0.00313  -0.00938   0.00685  -0.00254   2.51615
    R8        2.61701   0.00130  -0.00285   0.00514   0.00228   2.61929
    R9        1.95151  -0.01005  -0.01862   0.00567  -0.01295   1.93856
    A1        2.29336   0.00166  -0.00309   0.01072   0.00763   2.30100
    A2        2.12958  -0.00216   0.00095  -0.01148  -0.01054   2.11904
    A3        1.86024   0.00050   0.00214   0.00076   0.00291   1.86314
    A4        2.22267  -0.00012   0.00092  -0.00037   0.00054   2.22321
    A5        1.83315   0.00255  -0.00013   0.00985   0.00974   1.84289
    A6        2.22737  -0.00244  -0.00079  -0.00949  -0.01028   2.21708
    A7        2.21714   0.00257   0.00319   0.00476   0.00795   2.22509
    A8        1.97722  -0.00591  -0.00646  -0.01309  -0.01955   1.95767
    A9        2.08882   0.00334   0.00327   0.00833   0.01160   2.10043
   A10        1.78456   0.00813   0.01005   0.01365   0.02367   1.80823
   A11        1.96961  -0.00528  -0.00559  -0.01117  -0.01677   1.95284
   A12        2.22728   0.00109   0.00641  -0.00549   0.00092   2.22820
   A13        2.08630   0.00419  -0.00082   0.01666   0.01585   2.10214
    D1        0.00000   0.00000   0.00000   0.00000   0.00000   0.00000
    D2        3.14159   0.00000   0.00000   0.00000   0.00000   3.14159
    D3        3.14159   0.00000   0.00000   0.00000   0.00000   3.14159
    D4        0.00000   0.00000   0.00000   0.00000   0.00000   0.00000
    D5        3.14159   0.00000   0.00000   0.00000   0.00000   3.14159
    D6        0.00000   0.00000   0.00000   0.00000   0.00000   0.00000
    D7        0.00000   0.00000   0.00000   0.00000   0.00000   0.00000
    D8        3.14159   0.00000   0.00000   0.00000   0.00000   3.14159
    D9        3.14159   0.00000   0.00000   0.00000   0.00000   3.14159
   D10        0.00000   0.00000   0.00000   0.00000   0.00000   0.00000
   D11        0.00000   0.00000   0.00000   0.00000   0.00000   0.00000
   D12        3.14159   0.00000   0.00000   0.00000   0.00000   3.14159
   D13        0.00000   0.00000   0.00000   0.00000   0.00000   0.00000
   D14        3.14159   0.00000   0.00000   0.00000   0.00000   3.14159
   D15        0.00000   0.00000   0.00000   0.00000   0.00000   0.00000
   D16        3.14159   0.00000   0.00000   0.00000   0.00000   3.14159
         Item               Value     Threshold  Converged?
 Maximum Force            0.010046     0.000450     NO 
 RMS     Force            0.003368     0.000300     NO 
 Maximum Displacement     0.023853     0.001800     NO 
 RMS     Displacement     0.008701     0.001200     NO 
 Predicted change in Energy=-4.606249D-04
 GradGradGradGradGradGradGradGradGradGradGradGradGradGradGradGradGradGrad

                          Input orientation:                          
 ---------------------------------------------------------------------
 Center     Atomic     Atomic              Coordinates (Angstroms)
 Number     Number      Type              X           Y           Z
 ---------------------------------------------------------------------
    1          1             0        2.106944    0.727137    0.000000
    2          6             0        1.111978    0.302450    0.000000
    3          1             0        1.277186   -1.874544    0.000000
    4          6             0        0.676930   -0.981157    0.000000
    5          1             0       -1.448863   -1.724840    0.000000
    6          6             0       -0.744253   -0.903370    0.000000
    7          7             0       -1.178477    0.355325    0.000000
    8          1             0       -0.050531    2.127950    0.000000
    9          7             0       -0.011269    1.102862    0.000000
 ---------------------------------------------------------------------
                    Distance matrix (angstroms):
                    1          2          3          4          5
     1  H    0.000000
     2  C    1.081812   0.000000
     3  H    2.730796   2.183253   0.000000
     4  C    2.227826   1.355327   1.076312   0.000000
     5  H    4.319254   3.266161   2.730156   2.252123   0.000000
     6  C    3.284491   2.213503   2.242631   1.423310   1.082260
     7  N    3.306393   2.291065   3.317016   2.286639   2.097664
     8  H    2.572348   2.164226   4.216964   3.193077   4.098697
     9  N    2.151278   1.379254   3.244235   2.194709   3.172155
                    6          7          8          9
     6  C    0.000000
     7  N    1.331489   0.000000
     8  H    3.109686   2.101061   0.000000
     9  N    2.135938   1.386068   1.025840   0.000000
 Stoichiometry    C3H4N2
 Framework group  CS[SG(C3H4N2)]
 Deg. of freedom    15
 Full point group                 CS      NOp   2
 Largest Abelian subgroup         CS      NOp   2
 Largest concise Abelian subgroup C1      NOp   1
                         Standard orientation:                         
 ---------------------------------------------------------------------
 Center     Atomic     Atomic              Coordinates (Angstroms)
 Number     Number      Type              X           Y           Z
 ---------------------------------------------------------------------
    1          1             0        2.116001    0.715712    0.000000
    2          6             0        1.118592    0.296794    0.000000
    3          1             0        1.271189   -1.881120    0.000000
    4          6             0        0.676117   -0.984271    0.000000
    5          1             0       -1.453947   -1.715630    0.000000
    6          6             0       -0.744591   -0.898255    0.000000
    7          7             0       -1.171518    0.362934    0.000000
    8          1             0       -0.033325    2.128996    0.000000
    9          7             0        0.000000    1.103698    0.000000
 ---------------------------------------------------------------------
 Rotational constants (GHZ):      9.5702513      9.2456785      4.7025827
 Standard basis: STO-3G (5D, 7F)
 There are    24 symmetry adapted basis functions of A'  symmetry.
 There are     5 symmetry adapted basis functions of A"  symmetry.
 Integral buffers will be    262144 words long.
 Raffenetti 1 integral format.
 Two-electron integral symmetry is turned on.
    29 basis functions,    87 primitive gaussians,    29 cartesian basis functions
    18 alpha electrons       18 beta electrons
       nuclear repulsion energy       161.8371703897 Hartrees.
 NAtoms=    9 NActive=    9 NUniq=    9 SFac= 1.00D+00 NAtFMM=   60 Big=F
 One-electron integrals computed using PRISM.
 NBasis=    29 RedAO= T  NBF=    24     5
 NBsUse=    29 1.00D-06 NBFU=    24     5
 Initial guess read from the read-write file:
 Initial guess orbital symmetries:
       Occupied  (A') (A') (A') (A') (A') (A') (A') (A') (A') (A')
                 (A') (A") (A') (A') (A') (A') (A") (A")
       Virtual   (A") (A") (A') (A') (A') (A') (A') (A') (A') (A')
                 (A')
 Harris functional with IExCor=  205 diagonalized for initial guess.
 ExpMin= 1.69D-01 ExpMax= 9.91D+01 ExpMxC= 9.91D+01 IAcc=1 IRadAn=         1 AccDes= 1.00D-06
 HarFok:  IExCor= 205 AccDes= 1.00D-06 IRadAn=         1 IDoV=1
 ScaDFX=  1.000000  1.000000  1.000000  1.000000
 Requested convergence on RMS density matrix=1.00D-08 within 128 cycles.
 Requested convergence on MAX density matrix=1.00D-06.
 Requested convergence on             energy=1.00D-06.
 No special actions if energy rises.
 Keep R1 integrals in memory in canonical form, NReq=      528061.
 SCF Done:  E(RHF) =  -221.977192099     A.U. after   11 cycles
             Convg  =    0.7935D-08             -V/T =  2.0101
             S**2   =   0.0000
 ***** Axes restored to original set *****
 -------------------------------------------------------------------
 Center     Atomic                   Forces (Hartrees/Bohr)
 Number     Number              X              Y              Z
 -------------------------------------------------------------------
    1          1          -0.000659593   -0.000242988    0.000000000
    2          6           0.000758283   -0.001020866    0.000000000
    3          1          -0.000041507    0.000311132    0.000000000
    4          6           0.001417386    0.000546827    0.000000000
    5          1           0.000500970    0.001242743    0.000000000
    6          6           0.001742175    0.004164940    0.000000000
    7          7          -0.002036747    0.000920590    0.000000000
    8          1          -0.000107033   -0.002794754    0.000000000
    9          7          -0.001573933   -0.003127625    0.000000000
 -------------------------------------------------------------------
 Cartesian Forces:  Max     0.004164940 RMS     0.001384736

 GradGradGradGradGradGradGradGradGradGradGradGradGradGradGradGradGradGrad
 Berny optimization.
 Internal  Forces:  Max     0.003571962 RMS     0.001420281
 Search for a local minimum.
 Step number   3 out of a maximum of  48
 All quantities printed in internal units (Hartrees-Bohrs-Radians)
 Update second derivatives using D2CorX and points  1  2  3
 Trust test= 7.59D-01 RLast= 5.04D-02 DXMaxT set to 3.00D-01
     Eigenvalues ---    0.01995   0.02067   0.02121   0.02266   0.02366
     Eigenvalues ---    0.02463   0.15310   0.16000   0.16004   0.16048
     Eigenvalues ---    0.21873   0.34895   0.37984   0.38001   0.38706
     Eigenvalues ---    0.39921   0.46710   0.49267   0.50066   0.61140
     Eigenvalues ---    0.661161000.000001000.000001000.000001000.00000
     Eigenvalues --- 1000.000001000.000001000.000001000.000001000.00000
     Eigenvalues --- 1000.000001000.000001000.000001000.000001000.00000
     Eigenvalues --- 1000.000001000.000001000.00000
 RFO step:  Lambda=-9.79801314D-05.
 Quartic linear search produced a step of -0.20938.
 Iteration  1 RMS(Cart)=  0.00398968 RMS(Int)=  0.00000618
 Iteration  2 RMS(Cart)=  0.00000610 RMS(Int)=  0.00000113
 Iteration  3 RMS(Cart)=  0.00000000 RMS(Int)=  0.00000113
 Variable       Old X    -DE/DX   Delta X   Delta X   Delta X     New X
                                 (Linear)    (Quad)   (Total)
    R1        2.04433  -0.00070   0.00193  -0.00458  -0.00265   2.04168
    R2        2.56120  -0.00335  -0.00172  -0.00151  -0.00323   2.55797
    R3        2.60641  -0.00007   0.00102  -0.00187  -0.00085   2.60556
    R4        2.03394  -0.00028   0.00138  -0.00285  -0.00147   2.03246
    R5        2.68967   0.00034   0.00123  -0.00141  -0.00018   2.68948
    R6        2.04518  -0.00127   0.00158  -0.00506  -0.00348   2.04169
    R7        2.51615  -0.00215   0.00053  -0.00348  -0.00295   2.51320
    R8        2.61929  -0.00254  -0.00048  -0.00305  -0.00352   2.61577
    R9        1.93856  -0.00279   0.00271  -0.00874  -0.00603   1.93253
    A1        2.30100   0.00057  -0.00160   0.00458   0.00298   2.30398
    A2        2.11904   0.00049   0.00221  -0.00225  -0.00004   2.11900
    A3        1.86314  -0.00106  -0.00061  -0.00233  -0.00294   1.86021
    A4        2.22321   0.00052  -0.00011   0.00157   0.00146   2.22467
    A5        1.84289  -0.00133  -0.00204  -0.00066  -0.00269   1.84020
    A6        2.21708   0.00081   0.00215  -0.00092   0.00123   2.21832
    A7        2.22509  -0.00103  -0.00166   0.00009  -0.00157   2.22352
    A8        1.95767   0.00294   0.00409   0.00247   0.00656   1.96423
    A9        2.10043  -0.00191  -0.00243  -0.00256  -0.00499   2.09544
   A10        1.80823  -0.00357  -0.00496  -0.00305  -0.00801   1.80023
   A11        1.95284   0.00303   0.00351   0.00357   0.00708   1.95991
   A12        2.22820  -0.00131  -0.00019  -0.00358  -0.00377   2.22443
   A13        2.10214  -0.00172  -0.00332   0.00001  -0.00331   2.09884
    D1        0.00000   0.00000   0.00000   0.00000   0.00000   0.00000
    D2        3.14159   0.00000   0.00000   0.00000   0.00000   3.14159
    D3        3.14159   0.00000   0.00000   0.00000   0.00000   3.14159
    D4        0.00000   0.00000   0.00000   0.00000   0.00000   0.00000
    D5        3.14159   0.00000   0.00000   0.00000   0.00000   3.14159
    D6        0.00000   0.00000   0.00000   0.00000   0.00000   0.00000
    D7        0.00000   0.00000   0.00000   0.00000   0.00000   0.00000
    D8        3.14159   0.00000   0.00000   0.00000   0.00000   3.14159
    D9        3.14159   0.00000   0.00000   0.00000   0.00000   3.14159
   D10        0.00000   0.00000   0.00000   0.00000   0.00000   0.00000
   D11        0.00000   0.00000   0.00000   0.00000   0.00000   0.00000
   D12        3.14159   0.00000   0.00000   0.00000   0.00000   3.14159
   D13        0.00000   0.00000   0.00000   0.00000   0.00000   0.00000
   D14        3.14159   0.00000   0.00000   0.00000   0.00000   3.14159
   D15        0.00000   0.00000   0.00000   0.00000   0.00000   0.00000
   D16        3.14159   0.00000   0.00000   0.00000   0.00000   3.14159
         Item               Value     Threshold  Converged?
 Maximum Force            0.003572     0.000450     NO 
 RMS     Force            0.001420     0.000300     NO 
 Maximum Displacement     0.014934     0.001800     NO 
 RMS     Displacement     0.003991     0.001200     NO 
 Predicted change in Energy=-7.538641D-05
 GradGradGradGradGradGradGradGradGradGradGradGradGradGradGradGradGradGrad

                          Input orientation:                          
 ---------------------------------------------------------------------
 Center     Atomic     Atomic              Coordinates (Angstroms)
 Number     Number      Type              X           Y           Z
 ---------------------------------------------------------------------
    1          1             0        2.105166    0.728548    0.000000
    2          6             0        1.112795    0.301366    0.000000
    3          1             0        1.277002   -1.874223    0.000000
    4          6             0        0.678407   -0.980662    0.000000
    5          1             0       -1.446728   -1.718522    0.000000
    6          6             0       -0.742472   -0.899178    0.000000
    7          7             0       -1.181153    0.356319    0.000000
    8          1             0       -0.050875    2.120047    0.000000
    9          7             0       -0.012498    1.098118    0.000000
 ---------------------------------------------------------------------
                    Distance matrix (angstroms):
                    1          2          3          4          5
     1  H    0.000000
     2  C    1.080409   0.000000
     3  H    2.731350   2.181778   0.000000
     4  C    2.226441   1.353620   1.075532   0.000000
     5  H    4.313247   3.260538   2.728177   2.249586   0.000000
     6  C    3.280020   2.209824   2.242541   1.423214   1.080417
     7  N    3.307332   2.294606   3.319314   2.290301   2.091768
     8  H    2.566083   2.159104   4.209211   3.185317   4.084485
     9  N    2.149671   1.378804   3.240004   2.190588   3.160771
                    6          7          8          9
     6  C    0.000000
     7  N    1.329930   0.000000
     8  H    3.097422   2.094819   0.000000
     9  N    2.126511   1.384203   1.022649   0.000000
 Stoichiometry    C3H4N2
 Framework group  CS[SG(C3H4N2)]
 Deg. of freedom    15
 Full point group                 CS      NOp   2
 Largest Abelian subgroup         CS      NOp   2
 Largest concise Abelian subgroup C1      NOp   1
                         Standard orientation:                         
 ---------------------------------------------------------------------
 Center     Atomic     Atomic              Coordinates (Angstroms)
 Number     Number      Type              X           Y           Z
 ---------------------------------------------------------------------
    1          1             0        2.115081    0.715003    0.000000
    2          6             0        1.119804    0.294636    0.000000
    3          1             0        1.269088   -1.882028    0.000000
    4          6             0        0.676634   -0.984382    0.000000
    5          1             0       -1.453511   -1.707652    0.000000
    6          6             0       -0.743653   -0.893156    0.000000
    7          7             0       -1.173714    0.365319    0.000000
    8          1             0       -0.031368    2.121254    0.000000
    9          7             0        0.000000    1.099086    0.000000
 ---------------------------------------------------------------------
 Rotational constants (GHZ):      9.6323946      9.2241138      4.7119171
 Standard basis: STO-3G (5D, 7F)
 There are    24 symmetry adapted basis functions of A'  symmetry.
 There are     5 symmetry adapted basis functions of A"  symmetry.
 Integral buffers will be    262144 words long.
 Raffenetti 1 integral format.
 Two-electron integral symmetry is turned on.
    29 basis functions,    87 primitive gaussians,    29 cartesian basis functions
    18 alpha electrons       18 beta electrons
       nuclear repulsion energy       162.0110932892 Hartrees.
 NAtoms=    9 NActive=    9 NUniq=    9 SFac= 1.00D+00 NAtFMM=   60 Big=F
 One-electron integrals computed using PRISM.
 NBasis=    29 RedAO= T  NBF=    24     5
 NBsUse=    29 1.00D-06 NBFU=    24     5
 Initial guess read from the read-write file:
 Initial guess orbital symmetries:
       Occupied  (A') (A') (A') (A') (A') (A') (A') (A') (A') (A')
                 (A') (A') (A") (A') (A') (A') (A") (A")
       Virtual   (A") (A") (A') (A') (A') (A') (A') (A') (A') (A')
                 (A')
 Requested convergence on RMS density matrix=1.00D-08 within 128 cycles.
 Requested convergence on MAX density matrix=1.00D-06.
 Requested convergence on             energy=1.00D-06.
 No special actions if energy rises.
 Keep R1 integrals in memory in canonical form, NReq=      528061.
 SCF Done:  E(RHF) =  -221.977257100     A.U. after   10 cycles
             Convg  =    0.4371D-08             -V/T =  2.0100
             S**2   =   0.0000
 ***** Axes restored to original set *****
 -------------------------------------------------------------------
 Center     Atomic                   Forces (Hartrees/Bohr)
 Number     Number              X              Y              Z
 -------------------------------------------------------------------
    1          1           0.000474546    0.000269679    0.000000000
    2          6          -0.000697450   -0.000250246    0.000000000
    3          1           0.000151171   -0.000361593    0.000000000
    4          6           0.000208825   -0.000182802    0.000000000
    5          1          -0.000328288   -0.000510040    0.000000000
    6          6           0.000067686    0.000015191    0.000000000
    7          7           0.000278844    0.000286890    0.000000000
    8          1          -0.000032313    0.000927006    0.000000000
    9          7          -0.000123021   -0.000194084    0.000000000
 -------------------------------------------------------------------
 Cartesian Forces:  Max     0.000927006 RMS     0.000305722

 GradGradGradGradGradGradGradGradGradGradGradGradGradGradGradGradGradGrad
 Berny optimization.
 Internal  Forces:  Max     0.000927566 RMS     0.000269135
 Search for a local minimum.
 Step number   4 out of a maximum of  48
 All quantities printed in internal units (Hartrees-Bohrs-Radians)
 Update second derivatives using D2CorX and points  1  2  3  4
 Trust test= 8.62D-01 RLast= 1.81D-02 DXMaxT set to 3.00D-01
     Eigenvalues ---    0.01995   0.02066   0.02121   0.02264   0.02366
     Eigenvalues ---    0.02464   0.14492   0.15991   0.16001   0.16060
     Eigenvalues ---    0.22001   0.35864   0.37985   0.38284   0.39395
     Eigenvalues ---    0.40029   0.46385   0.49268   0.54065   0.62005
     Eigenvalues ---    0.687571000.000001000.000001000.000001000.00000
     Eigenvalues --- 1000.000001000.000001000.000001000.000001000.00000
     Eigenvalues --- 1000.000001000.000001000.000001000.000001000.00000
     Eigenvalues --- 1000.000001000.000001000.00000
 RFO step:  Lambda=-2.78870637D-06.
 Quartic linear search produced a step of -0.12194.
 Iteration  1 RMS(Cart)=  0.00069430 RMS(Int)=  0.00000016
 Iteration  2 RMS(Cart)=  0.00000014 RMS(Int)=  0.00000010
 Variable       Old X    -DE/DX   Delta X   Delta X   Delta X     New X
                                 (Linear)    (Quad)   (Total)
    R1        2.04168   0.00054   0.00032   0.00083   0.00116   2.04284
    R2        2.55797   0.00041   0.00039   0.00008   0.00048   2.55845
    R3        2.60556   0.00024   0.00010   0.00020   0.00030   2.60587
    R4        2.03246   0.00038   0.00018   0.00065   0.00083   2.03329
    R5        2.68948   0.00019   0.00002   0.00043   0.00045   2.68994
    R6        2.04169   0.00060   0.00042   0.00081   0.00124   2.04293
    R7        2.51320   0.00049   0.00036   0.00018   0.00054   2.51374
    R8        2.61577  -0.00003   0.00043  -0.00068  -0.00025   2.61552
    R9        1.93253   0.00093   0.00074   0.00069   0.00143   1.93395
    A1        2.30398  -0.00011  -0.00036   0.00004  -0.00033   2.30365
    A2        2.11900  -0.00023   0.00001  -0.00083  -0.00083   2.11817
    A3        1.86021   0.00034   0.00036   0.00079   0.00115   1.86136
    A4        2.22467   0.00018  -0.00018   0.00098   0.00080   2.22546
    A5        1.84020  -0.00020   0.00033  -0.00122  -0.00089   1.83931
    A6        2.21832   0.00002  -0.00015   0.00025   0.00010   2.21842
    A7        2.22352  -0.00002   0.00019  -0.00057  -0.00038   2.22314
    A8        1.96423  -0.00014  -0.00080   0.00083   0.00003   1.96426
    A9        2.09544   0.00015   0.00061  -0.00026   0.00035   2.09579
   A10        1.80023   0.00034   0.00098  -0.00031   0.00067   1.80089
   A11        1.95991  -0.00034  -0.00086  -0.00009  -0.00095   1.95896
   A12        2.22443   0.00017   0.00046   0.00012   0.00058   2.22501
   A13        2.09884   0.00017   0.00040  -0.00003   0.00038   2.09921
    D1        0.00000   0.00000   0.00000   0.00000   0.00000   0.00000
    D2        3.14159   0.00000   0.00000   0.00000   0.00000   3.14159
    D3        3.14159   0.00000   0.00000   0.00000   0.00000   3.14159
    D4        0.00000   0.00000   0.00000   0.00000   0.00000   0.00000
    D5        3.14159   0.00000   0.00000   0.00000   0.00000   3.14159
    D6        0.00000   0.00000   0.00000   0.00000   0.00000   0.00000
    D7        0.00000   0.00000   0.00000   0.00000   0.00000   0.00000
    D8        3.14159   0.00000   0.00000   0.00000   0.00000   3.14159
    D9        3.14159   0.00000   0.00000   0.00000   0.00000   3.14159
   D10        0.00000   0.00000   0.00000   0.00000   0.00000   0.00000
   D11        0.00000   0.00000   0.00000   0.00000   0.00000   0.00000
   D12        3.14159   0.00000   0.00000   0.00000   0.00000   3.14159
   D13        0.00000   0.00000   0.00000   0.00000   0.00000   0.00000
   D14        3.14159   0.00000   0.00000   0.00000   0.00000   3.14159
   D15        0.00000   0.00000   0.00000   0.00000   0.00000   0.00000
   D16        3.14159   0.00000   0.00000   0.00000   0.00000   3.14159
         Item               Value     Threshold  Converged?
 Maximum Force            0.000928     0.000450     NO 
 RMS     Force            0.000269     0.000300     YES
 Maximum Displacement     0.002611     0.001800     NO 
 RMS     Displacement     0.000694     0.001200     YES
 Predicted change in Energy=-2.682616D-06
 GradGradGradGradGradGradGradGradGradGradGradGradGradGradGradGradGradGrad

                          Input orientation:                          
 ---------------------------------------------------------------------
 Center     Atomic     Atomic              Coordinates (Angstroms)
 Number     Number      Type              X           Y           Z
 ---------------------------------------------------------------------
    1          1             0        2.105216    0.728917    0.000000
    2          6             0        1.112388    0.301248    0.000000
    3          1             0        1.277294   -1.875329    0.000000
    4          6             0        0.678654   -0.981268    0.000000
    5          1             0       -1.447076   -1.719193    0.000000
    6          6             0       -0.742438   -0.899314    0.000000
    7          7             0       -1.180842    0.356580    0.000000
    8          1             0       -0.050976    2.121429    0.000000
    9          7             0       -0.012575    1.098745    0.000000
 ---------------------------------------------------------------------
                    Distance matrix (angstroms):
                    1          2          3          4          5
     1  H    0.000000
     2  C    1.081022   0.000000
     3  H    2.732683   2.182815   0.000000
     4  C    2.227064   1.353873   1.075971   0.000000
     5  H    4.314165   3.260834   2.728840   2.250169   0.000000
     6  C    3.280285   2.209464   2.243195   1.423454   1.081071
     7  N    3.307085   2.293898   3.320218   2.290756   2.092776
     8  H    2.566759   2.160203   4.211695   3.187332   4.086498
     9  N    2.149840   1.378965   3.241740   2.191860   3.162051
                    6          7          8          9
     6  C    0.000000
     7  N    1.330213   0.000000
     8  H    3.098872   2.095540   0.000000
     9  N    2.127190   1.384073   1.023404   0.000000
 Stoichiometry    C3H4N2
 Framework group  CS[SG(C3H4N2)]
 Deg. of freedom    15
 Full point group                 CS      NOp   2
 Largest Abelian subgroup         CS      NOp   2
 Largest concise Abelian subgroup C1      NOp   1
                         Standard orientation:                         
 ---------------------------------------------------------------------
 Center     Atomic     Atomic              Coordinates (Angstroms)
 Number     Number      Type              X           Y           Z
 ---------------------------------------------------------------------
    1          1             0        2.115172    0.715164    0.000000
    2          6             0        1.119399    0.294397    0.000000
    3          1             0        1.269189   -1.883272    0.000000
    4          6             0        0.676771   -0.985076    0.000000
    5          1             0       -1.454031   -1.708225    0.000000
    6          6             0       -0.743718   -0.893258    0.000000
    7          7             0       -1.173392    0.365649    0.000000
    8          1             0       -0.031300    2.122611    0.000000
    9          7             0        0.000000    1.099686    0.000000
 ---------------------------------------------------------------------
 Rotational constants (GHZ):      9.6246703      9.2252166      4.7103555
 Standard basis: STO-3G (5D, 7F)
 There are    24 symmetry adapted basis functions of A'  symmetry.
 There are     5 symmetry adapted basis functions of A"  symmetry.
 Integral buffers will be    262144 words long.
 Raffenetti 1 integral format.
 Two-electron integral symmetry is turned on.
    29 basis functions,    87 primitive gaussians,    29 cartesian basis functions
    18 alpha electrons       18 beta electrons
       nuclear repulsion energy       161.9813011469 Hartrees.
 NAtoms=    9 NActive=    9 NUniq=    9 SFac= 1.00D+00 NAtFMM=   60 Big=F
 One-electron integrals computed using PRISM.
 NBasis=    29 RedAO= T  NBF=    24     5
 NBsUse=    29 1.00D-06 NBFU=    24     5
 Initial guess read from the read-write file:
 Initial guess orbital symmetries:
       Occupied  (A') (A') (A') (A') (A') (A') (A') (A') (A') (A')
                 (A') (A') (A") (A') (A') (A') (A") (A")
       Virtual   (A") (A") (A') (A') (A') (A') (A') (A') (A') (A')
                 (A')
 Requested convergence on RMS density matrix=1.00D-08 within 128 cycles.
 Requested convergence on MAX density matrix=1.00D-06.
 Requested convergence on             energy=1.00D-06.
 No special actions if energy rises.
 Keep R1 integrals in memory in canonical form, NReq=      528061.
 SCF Done:  E(RHF) =  -221.977259497     A.U. after    9 cycles
             Convg  =    0.4273D-08             -V/T =  2.0100
             S**2   =   0.0000
 ***** Axes restored to original set *****
 -------------------------------------------------------------------
 Center     Atomic                   Forces (Hartrees/Bohr)
 Number     Number              X              Y              Z
 -------------------------------------------------------------------
    1          1          -0.000011066    0.000010208    0.000000000
    2          6           0.000180390   -0.000007880    0.000000000
    3          1          -0.000033673    0.000035261    0.000000000
    4          6          -0.000013836    0.000178710    0.000000000
    5          1           0.000010115    0.000008747    0.000000000
    6          6          -0.000144778   -0.000062092    0.000000000
    7          7          -0.000077639   -0.000097703    0.000000000
    8          1           0.000018750    0.000050903    0.000000000
    9          7           0.000071737   -0.000116155    0.000000000
 -------------------------------------------------------------------
 Cartesian Forces:  Max     0.000180390 RMS     0.000069251

 GradGradGradGradGradGradGradGradGradGradGradGradGradGradGradGradGradGrad
 Berny optimization.
 Internal  Forces:  Max     0.000136168 RMS     0.000051852
 Search for a local minimum.
 Step number   5 out of a maximum of  48
 All quantities printed in internal units (Hartrees-Bohrs-Radians)
 Update second derivatives using D2CorX and points  1  2  3  4  5

 Trust test= 8.94D-01 RLast= 3.48D-03 DXMaxT set to 3.00D-01
     Eigenvalues ---    0.01995   0.02066   0.02121   0.02265   0.02366
     Eigenvalues ---    0.02464   0.13951   0.15983   0.16003   0.16036
     Eigenvalues ---    0.25328   0.35842   0.37863   0.38127   0.39409
     Eigenvalues ---    0.40451   0.47129   0.49226   0.51809   0.62623
     Eigenvalues ---    0.701911000.000001000.000001000.000001000.00000
     Eigenvalues --- 1000.000001000.000001000.000001000.000001000.00000
     Eigenvalues --- 1000.000001000.000001000.000001000.000001000.00000
     Eigenvalues --- 1000.000001000.000001000.00000
 RFO step:  Lambda=-2.47064101D-07.
 Quartic linear search produced a step of -0.09446.
 Iteration  1 RMS(Cart)=  0.00019207 RMS(Int)=  0.00000002
 Iteration  2 RMS(Cart)=  0.00000002 RMS(Int)=  0.00000000
 Variable       Old X    -DE/DX   Delta X   Delta X   Delta X     New X
                                 (Linear)    (Quad)   (Total)
    R1        2.04284  -0.00001  -0.00011   0.00016   0.00005   2.04289
    R2        2.55845  -0.00006  -0.00005  -0.00004  -0.00008   2.55837
    R3        2.60587  -0.00002  -0.00003   0.00002   0.00000   2.60586
    R4        2.03329  -0.00005  -0.00008   0.00002  -0.00006   2.03323
    R5        2.68994   0.00007  -0.00004   0.00021   0.00016   2.69010
    R6        2.04293  -0.00001  -0.00012   0.00016   0.00004   2.04297
    R7        2.51374  -0.00008  -0.00005  -0.00002  -0.00007   2.51367
    R8        2.61552   0.00013   0.00002   0.00021   0.00023   2.61575
    R9        1.93395   0.00005  -0.00013   0.00031   0.00018   1.93413
    A1        2.30365   0.00007   0.00003   0.00028   0.00031   2.30396
    A2        2.11817   0.00004   0.00008   0.00003   0.00011   2.11828
    A3        1.86136  -0.00012  -0.00011  -0.00031  -0.00042   1.86094
    A4        2.22546  -0.00006  -0.00008  -0.00009  -0.00016   2.22530
    A5        1.83931   0.00014   0.00008   0.00038   0.00046   1.83977
    A6        2.21842  -0.00008  -0.00001  -0.00029  -0.00030   2.21811
    A7        2.22314   0.00003   0.00004   0.00008   0.00011   2.22325
    A8        1.96426  -0.00007   0.00000  -0.00028  -0.00029   1.96397
    A9        2.09579   0.00004  -0.00003   0.00021   0.00017   2.09596
   A10        1.80089  -0.00002  -0.00006   0.00004  -0.00002   1.80087
   A11        1.95896   0.00007   0.00009   0.00017   0.00026   1.95923
   A12        2.22501  -0.00006  -0.00005  -0.00019  -0.00024   2.22476
   A13        2.09921  -0.00002  -0.00004   0.00002  -0.00002   2.09920
    D1        0.00000   0.00000   0.00000   0.00000   0.00000   0.00000
    D2        3.14159   0.00000   0.00000   0.00000   0.00000   3.14159
    D3        3.14159   0.00000   0.00000   0.00000   0.00000   3.14159
    D4        0.00000   0.00000   0.00000   0.00000   0.00000   0.00000
    D5        3.14159   0.00000   0.00000   0.00000   0.00000   3.14159
    D6        0.00000   0.00000   0.00000   0.00000   0.00000   0.00000
    D7        0.00000   0.00000   0.00000   0.00000   0.00000   0.00000
    D8        3.14159   0.00000   0.00000   0.00000   0.00000   3.14159
    D9        3.14159   0.00000   0.00000   0.00000   0.00000   3.14159
   D10        0.00000   0.00000   0.00000   0.00000   0.00000   0.00000
   D11        0.00000   0.00000   0.00000   0.00000   0.00000   0.00000
   D12        3.14159   0.00000   0.00000   0.00000   0.00000   3.14159
   D13        0.00000   0.00000   0.00000   0.00000   0.00000   0.00000
   D14        3.14159   0.00000   0.00000   0.00000   0.00000   3.14159
   D15        0.00000   0.00000   0.00000   0.00000   0.00000   0.00000
   D16        3.14159   0.00000   0.00000   0.00000   0.00000   3.14159
         Item               Value     Threshold  Converged?
 Maximum Force            0.000136     0.000450     YES
 RMS     Force            0.000052     0.000300     YES
 Maximum Displacement     0.000405     0.001800     YES
 RMS     Displacement     0.000192     0.001200     YES
 Predicted change in Energy=-1.498365D-07
 Optimization completed.
    -- Stationary point found.
                           ----------------------------
                           !   Optimized Parameters   !
                           ! (Angstroms and Degrees)  !
 --------------------------                            --------------------------
 ! Name  Definition              Value          Derivative Info.                !
 --------------------------------------------------------------------------------
 ! R1    R(1,2)                  1.081          -DE/DX =    0.0                 !
 ! R2    R(2,4)                  1.3539         -DE/DX =   -0.0001              !
 ! R3    R(2,9)                  1.379          -DE/DX =    0.0                 !
 ! R4    R(3,4)                  1.076          -DE/DX =    0.0                 !
 ! R5    R(4,6)                  1.4235         -DE/DX =    0.0001              !
 ! R6    R(5,6)                  1.0811         -DE/DX =    0.0                 !
 ! R7    R(6,7)                  1.3302         -DE/DX =   -0.0001              !
 ! R8    R(7,9)                  1.3841         -DE/DX =    0.0001              !
 ! R9    R(8,9)                  1.0234         -DE/DX =    0.0001              !
 ! A1    A(1,2,4)              131.9894         -DE/DX =    0.0001              !
 ! A2    A(1,2,9)              121.3624         -DE/DX =    0.0                 !
 ! A3    A(4,2,9)              106.6482         -DE/DX =   -0.0001              !
 ! A4    A(2,4,3)              127.5097         -DE/DX =   -0.0001              !
 ! A5    A(2,4,6)              105.3844         -DE/DX =    0.0001              !
 ! A6    A(3,4,6)              127.1058         -DE/DX =   -0.0001              !
 ! A7    A(4,6,5)              127.3765         -DE/DX =    0.0                 !
 ! A8    A(4,6,7)              112.5435         -DE/DX =   -0.0001              !
 ! A9    A(5,6,7)              120.08           -DE/DX =    0.0                 !
 ! A10   A(6,7,9)              103.1836         -DE/DX =    0.0                 !
 ! A11   A(2,9,7)              112.2402         -DE/DX =    0.0001              !
 ! A12   A(2,9,8)              127.4836         -DE/DX =   -0.0001              !
 ! A13   A(7,9,8)              120.2762         -DE/DX =    0.0                 !
 ! D1    D(1,2,4,3)              0.0            -DE/DX =    0.0                 !
 ! D2    D(1,2,4,6)            180.0            -DE/DX =    0.0                 !
 ! D3    D(9,2,4,3)            180.0            -DE/DX =    0.0                 !
 ! D4    D(9,2,4,6)              0.0            -DE/DX =    0.0                 !
 ! D5    D(1,2,9,7)            180.0            -DE/DX =    0.0                 !
 ! D6    D(1,2,9,8)              0.0            -DE/DX =    0.0                 !
 ! D7    D(4,2,9,7)              0.0            -DE/DX =    0.0                 !
 ! D8    D(4,2,9,8)            180.0            -DE/DX =    0.0                 !
 ! D9    D(2,4,6,5)            180.0            -DE/DX =    0.0                 !
 ! D10   D(2,4,6,7)              0.0            -DE/DX =    0.0                 !
 ! D11   D(3,4,6,5)              0.0            -DE/DX =    0.0                 !
 ! D12   D(3,4,6,7)            180.0            -DE/DX =    0.0                 !
 ! D13   D(4,6,7,9)              0.0            -DE/DX =    0.0                 !
 ! D14   D(5,6,7,9)            180.0            -DE/DX =    0.0                 !
 ! D15   D(6,7,9,2)              0.0            -DE/DX =    0.0                 !
 ! D16   D(6,7,9,8)            180.0            -DE/DX =    0.0                 !
 --------------------------------------------------------------------------------
 GradGradGradGradGradGradGradGradGradGradGradGradGradGradGradGradGradGrad

                          Input orientation:                          
 ---------------------------------------------------------------------
 Center     Atomic     Atomic              Coordinates (Angstroms)
 Number     Number      Type              X           Y           Z
 ---------------------------------------------------------------------
    1          1             0        2.105216    0.728917    0.000000
    2          6             0        1.112388    0.301248    0.000000
    3          1             0        1.277294   -1.875329    0.000000
    4          6             0        0.678654   -0.981268    0.000000
    5          1             0       -1.447076   -1.719193    0.000000
    6          6             0       -0.742438   -0.899314    0.000000
    7          7             0       -1.180842    0.356580    0.000000
    8          1             0       -0.050976    2.121429    0.000000
    9          7             0       -0.012575    1.098745    0.000000
 ---------------------------------------------------------------------
                    Distance matrix (angstroms):
                    1          2          3          4          5
     1  H    0.000000
     2  C    1.081022   0.000000
     3  H    2.732683   2.182815   0.000000
     4  C    2.227064   1.353873   1.075971   0.000000
     5  H    4.314165   3.260834   2.728840   2.250169   0.000000
     6  C    3.280285   2.209464   2.243195   1.423454   1.081071
     7  N    3.307085   2.293898   3.320218   2.290756   2.092776
     8  H    2.566759   2.160203   4.211695   3.187332   4.086498
     9  N    2.149840   1.378965   3.241740   2.191860   3.162051
                    6          7          8          9
     6  C    0.000000
     7  N    1.330213   0.000000
     8  H    3.098872   2.095540   0.000000
     9  N    2.127190   1.384073   1.023404   0.000000
 Stoichiometry    C3H4N2
 Framework group  CS[SG(C3H4N2)]
 Deg. of freedom    15
 Full point group                 CS      NOp   2
 Largest Abelian subgroup         CS      NOp   2
 Largest concise Abelian subgroup C1      NOp   1
                         Standard orientation:                         
 ---------------------------------------------------------------------
 Center     Atomic     Atomic              Coordinates (Angstroms)
 Number     Number      Type              X           Y           Z
 ---------------------------------------------------------------------
    1          1             0        2.115172    0.715164    0.000000
    2          6             0        1.119399    0.294397    0.000000
    3          1             0        1.269189   -1.883272    0.000000
    4          6             0        0.676771   -0.985076    0.000000
    5          1             0       -1.454031   -1.708225    0.000000
    6          6             0       -0.743718   -0.893258    0.000000
    7          7             0       -1.173392    0.365649    0.000000
    8          1             0       -0.031300    2.122611    0.000000
    9          7             0        0.000000    1.099686    0.000000
 ---------------------------------------------------------------------
 Rotational constants (GHZ):      9.6246703      9.2252166      4.7103555

 **********************************************************************

            Population analysis using the SCF density.

 **********************************************************************

 Orbital symmetries:
       Occupied  (A') (A') (A') (A') (A') (A') (A') (A') (A') (A')
                 (A') (A') (A") (A') (A') (A') (A") (A")
       Virtual   (A") (A") (A') (A') (A') (A') (A') (A') (A') (A')
                 (A')
 The electronic state is 1-A'.
 Alpha  occ. eigenvalues --  -15.43276 -15.35873 -11.07712 -11.04298 -11.01210
 Alpha  occ. eigenvalues --   -1.29605  -1.03373  -0.98885  -0.76261  -0.73218
 Alpha  occ. eigenvalues --   -0.68426  -0.54631  -0.54492  -0.52371  -0.50614
 Alpha  occ. eigenvalues --   -0.37598  -0.30597  -0.28420
 Alpha virt. eigenvalues --    0.28597   0.38513   0.53629   0.59570   0.66720
 Alpha virt. eigenvalues --    0.68446   0.71932   0.77573   0.90942   0.95054
 Alpha virt. eigenvalues --    1.11421
          Condensed to atoms (all electrons):
              1          2          3          4          5          6
     1  H    0.558957   0.393476  -0.001349  -0.018255  -0.000023   0.001750
     2  C    0.393476   4.754600  -0.020681   0.555628   0.001477  -0.059946
     3  H   -0.001349  -0.020681   0.571496   0.396813  -0.001145  -0.018006
     4  C   -0.018255   0.555628   0.396813   4.826069  -0.021202   0.471041
     5  H   -0.000023   0.001477  -0.001145  -0.021202   0.572196   0.394050
     6  C    0.001750  -0.059946  -0.018006   0.471041   0.394050   4.812222
     7  N    0.001052  -0.046226   0.000914  -0.038406  -0.022749   0.465843
     8  H   -0.001287  -0.027868  -0.000043   0.002135  -0.000069   0.003225
     9  N   -0.018869   0.414261   0.001314  -0.060940   0.002136  -0.072231
              7          8          9
     1  H    0.001052  -0.001287  -0.018869
     2  C   -0.046226  -0.027868   0.414261
     3  H    0.000914  -0.000043   0.001314
     4  C   -0.038406   0.002135  -0.060940
     5  H   -0.022749  -0.000069   0.002136
     6  C    0.465843   0.003225  -0.072231
     7  N    6.491449  -0.024165   0.324484
     8  H   -0.024165   0.466349   0.350636
     9  N    0.324484   0.350636   6.293108
 Mulliken atomic charges:
              1
     1  H    0.084547
     2  C    0.035278
     3  H    0.070686
     4  C   -0.112883
     5  H    0.075329
     6  C    0.002052
     7  N   -0.152196
     8  H    0.231088
     9  N   -0.233899
 Sum of Mulliken charges=   0.00000
 Atomic charges with hydrogens summed into heavy atoms:
              1
     1  H    0.000000
     2  C    0.119824
     3  H    0.000000
     4  C   -0.042197
     5  H    0.000000
     6  C    0.077381
     7  N   -0.152196
     8  H    0.000000
     9  N   -0.002811
 Sum of Mulliken charges=   0.00000
 Electronic spatial extent (au):  <R**2>=   285.0164
 Charge=     0.0000 electrons
 Dipole moment (field-independent basis, Debye):
    X=     1.9741    Y=     0.8476    Z=     0.0000  Tot=     2.1484
 Quadrupole moment (field-independent basis, Debye-Ang):
   XX=   -28.3320   YY=   -21.9798   ZZ=   -28.3512
   XY=     2.2047   XZ=     0.0000   YZ=     0.0000
 Traceless Quadrupole moment (field-independent basis, Debye-Ang):
   XX=    -2.1110   YY=     4.2412   ZZ=    -2.1302
   XY=     2.2047   XZ=     0.0000   YZ=     0.0000
 Octapole moment (field-independent basis, Debye-Ang**2):
  XXX=     6.5801  YYY=    11.8906  ZZZ=     0.0000  XYY=    -0.0567
  XXY=    -1.1955  XXZ=     0.0000  XZZ=    -1.1773  YZZ=     1.6337
  YYZ=     0.0000  XYZ=     0.0000
 Hexadecapole moment (field-independent basis, Debye-Ang**3):
 XXXX=  -163.5162 YYYY=  -129.7729 ZZZZ=   -21.2130 XXXY=     6.9175
 XXXZ=     0.0000 YYYX=    -1.8731 YYYZ=     0.0000 ZZZX=     0.0000
 ZZZY=     0.0000 XXYY=   -49.4480 XXZZ=   -32.0598 YYZZ=   -31.9146
 XXYZ=     0.0000 YYXZ=     0.0000 ZZXY=    -0.5430
 N-N= 1.619813011469D+02 E-N=-8.426792461259D+02  KE= 2.197793729340D+02
 Symmetry A'   KE= 2.107512556869D+02
 Symmetry A"   KE= 9.028117247076D+00
 1|1|UNPC-UNK|FOpt|RHF|STO-3G|C3H4N2|PCUSER|23-Jul-2004|0||#HF/STO-3G O
 PT FREQ||1hpyraz 1H-Pyrazole casno=288131 method=1 basis=20||0,1|H,2.1
 101561399,0.7298312308,0.|C,1.1173281467,0.3021617479,0.|H,1.282233404
 5,-1.8744150601,0.|C,0.6835938254,-0.9803541562,0.|H,-1.4421359843,-1.
 7182784512,0.|C,-0.7374985676,-0.8983994686,0.|N,-1.1759021326,0.35749
 38677,0.|H,-0.046035968,2.1223428534,0.|N,-0.0076347273,1.0996590877,0
 .||Version=x86-Win32-G03RevB.05|State=1-A'|HF=-221.9772595|RMSD=4.273e
 -009|RMSF=6.925e-005|Dipole=0.7743343,0.3388423,0.|PG=CS [SG(C3H4N2)]|
 |@


 Boundary, n.  In political geography, an imaginary
 line between two nations, separating the imaginary
 rights of one from the imaginary rights of another.
                               -- Ambrose Bierce
 Job cpu time:  0 days  0 hours  1 minutes 13.0 seconds.
 File lengths (MBytes):  RWF=     11 Int=      0 D2E=      0 Chk=      4 Scr=      1
 Normal termination of Gaussian 03 at Fri Jul 23 17:02:23 2004.
 Link1:  Proceeding to internal job step number  2.
 -------------------------------------------------------------
 #N Geom=AllCheck Guess=Read SCRF=Check GenChk RHF/STO-3G Freq
 -------------------------------------------------------------
 1/10=4,29=7,30=1,38=1,40=1,46=1/1,3;
 2/40=1/2;
 3/6=3,11=1,16=1,25=1,30=1,70=2,71=2/1,2,3;
 4/5=1,7=1/1;
 5/5=2,38=6/2;
 8/6=4,10=90,11=11,27=786432000/1;
 10/13=10/2;
 11/6=2,8=1,9=11,15=111,16=1/1,2,10;
 10/6=1/2;
 6/7=2,8=2,9=2,10=2,18=1,28=1/1;
 7/8=1,10=1,25=1/1,2,3,16;
 1/10=4,30=1,46=1/3;
 99//99;
 --------------------------------------------------
 1hpyraz 1H-Pyrazole casno=288131 method=1 basis=20
 --------------------------------------------------
 Redundant internal coordinates taken from checkpoint file:
 gxx.chk
 Charge =  0 Multiplicity = 1
 H,0,2.1101561399,0.7298312308,0.
 C,0,1.1173281467,0.3021617479,0.
 H,0,1.2822334045,-1.8744150601,0.
 C,0,0.6835938254,-0.9803541562,0.
 H,0,-1.4421359843,-1.7182784512,0.
 C,0,-0.7374985676,-0.8983994686,0.
 N,0,-1.1759021326,0.3574938677,0.
 H,0,-0.046035968,2.1223428534,0.
 N,0,-0.0076347273,1.0996590877,0.
 Recover connectivity data from disk.

 GradGradGradGradGradGradGradGradGradGradGradGradGradGradGradGradGradGrad
 Berny optimization.
 Initialization pass.
                           ----------------------------
                           !    Initial Parameters    !
                           ! (Angstroms and Degrees)  !
 --------------------------                            --------------------------
 ! Name  Definition              Value          Derivative Info.                !
 --------------------------------------------------------------------------------
 ! R1    R(1,2)                  1.081          calculate D2E/DX2 analytically  !
 ! R2    R(2,4)                  1.3539         calculate D2E/DX2 analytically  !
 ! R3    R(2,9)                  1.379          calculate D2E/DX2 analytically  !
 ! R4    R(3,4)                  1.076          calculate D2E/DX2 analytically  !
 ! R5    R(4,6)                  1.4235         calculate D2E/DX2 analytically  !
 ! R6    R(5,6)                  1.0811         calculate D2E/DX2 analytically  !
 ! R7    R(6,7)                  1.3302         calculate D2E/DX2 analytically  !
 ! R8    R(7,9)                  1.3841         calculate D2E/DX2 analytically  !
 ! R9    R(8,9)                  1.0234         calculate D2E/DX2 analytically  !
 ! A1    A(1,2,4)              131.9894         calculate D2E/DX2 analytically  !
 ! A2    A(1,2,9)              121.3624         calculate D2E/DX2 analytically  !
 ! A3    A(4,2,9)              106.6482         calculate D2E/DX2 analytically  !
 ! A4    A(2,4,3)              127.5097         calculate D2E/DX2 analytically  !
 ! A5    A(2,4,6)              105.3844         calculate D2E/DX2 analytically  !
 ! A6    A(3,4,6)              127.1058         calculate D2E/DX2 analytically  !
 ! A7    A(4,6,5)              127.3765         calculate D2E/DX2 analytically  !
 ! A8    A(4,6,7)              112.5435         calculate D2E/DX2 analytically  !
 ! A9    A(5,6,7)              120.08           calculate D2E/DX2 analytically  !
 ! A10   A(6,7,9)              103.1836         calculate D2E/DX2 analytically  !
 ! A11   A(2,9,7)              112.2402         calculate D2E/DX2 analytically  !
[...]
 Frc consts  --     9.1896                 9.4814                10.8388
 IR Inten    --    31.3737                17.4206               104.5154
 Raman Activ --    11.4513                57.0417                73.0510
 Depolar (P) --     0.6166                 0.1207                 0.2933
 Depolar (U) --     0.7628                 0.2154                 0.4535
 Atom AN      X      Y      Z        X      Y      Z        X      Y      Z
   1   1     0.66   0.28   0.00    -0.41  -0.18   0.00     0.03   0.01   0.00
   2   6    -0.06  -0.03   0.00     0.04   0.02   0.00    -0.01   0.00   0.00
   3   1    -0.12   0.17   0.00    -0.47   0.72   0.00     0.00  -0.01   0.00
   4   6     0.02  -0.01   0.00     0.04  -0.07   0.00     0.00   0.00   0.00
   5   1     0.43   0.50   0.00     0.14   0.16   0.00    -0.01  -0.01   0.00
   6   6    -0.04  -0.05   0.00    -0.02  -0.01   0.00     0.00   0.00   0.00
   7   7     0.00   0.00   0.00     0.00   0.00   0.00     0.00   0.00   0.00
   8   1     0.00  -0.01   0.00     0.00   0.03   0.00    -0.03   1.00   0.00
   9   7     0.00   0.00   0.00     0.00   0.00   0.00     0.00  -0.08   0.00

 -------------------
 - Thermochemistry -
 -------------------
 Temperature   298.150 Kelvin.  Pressure   1.00000 Atm.
 Atom  1 has atomic number  1 and mass   1.00783
 Atom  2 has atomic number  6 and mass  12.00000
 Atom  3 has atomic number  1 and mass   1.00783
 Atom  4 has atomic number  6 and mass  12.00000
 Atom  5 has atomic number  1 and mass   1.00783
 Atom  6 has atomic number  6 and mass  12.00000
 Atom  7 has atomic number  7 and mass  14.00307
 Atom  8 has atomic number  1 and mass   1.00783
 Atom  9 has atomic number  7 and mass  14.00307
 Molecular mass:    68.03745 amu.
 Principal axes and moments of inertia in atomic units:
                           1         2         3
     EIGENVALUES --   187.51200 195.63131 383.14331
           X            0.97321   0.22992   0.00000
           Y           -0.22992   0.97321   0.00000
           Z            0.00000   0.00000   1.00000
 This molecule is an asymmetric top.
 Rotational symmetry number  1.
 Rotational temperatures (Kelvin)      0.46191     0.44274     0.22606
 Rotational constants (GHZ):           9.62467     9.22522     4.71036
 Zero-point vibrational energy     213688.6 (Joules/Mol)
                                   51.07281 (Kcal/Mol)
 Warning -- explicit consideration of   1 degrees of freedom as
           vibrations may cause significant error
 Vibrational temperatures:    645.23  1015.50  1060.59  1316.50  1480.99
          (Kelvin)           1487.27  1491.50  1561.79  1718.30  1731.90
                             1813.77  1917.97  2072.71  2332.85  2360.47
                             2483.62  2705.25  5398.88  5414.02  5466.83
                             5925.69
 
 Zero-point correction=                           0.081390 (Hartree/Particle)
 Thermal correction to Energy=                    0.084942
 Thermal correction to Enthalpy=                  0.085887
 Thermal correction to Gibbs Free Energy=         0.055141
 Sum of electronic and zero-point Energies=           -221.895870
 Sum of electronic and thermal Energies=              -221.892317
 Sum of electronic and thermal Enthalpies=            -221.891373
 Sum of electronic and thermal Free Energies=         -221.922118
 
                     E (Thermal)             CV                S
                      KCal/Mol        Cal/Mol-Kelvin    Cal/Mol-Kelvin
 Total                   53.302             11.653             64.708
 Electronic               0.000              0.000              0.000
 Translational            0.889              2.981             38.570
 Rotational               0.889              2.981             24.156
 Vibrational             51.525              5.692              1.982
 Vibration  1             0.807              1.364              0.800
                       Q            Log10(Q)             Ln(Q)
 Total Bot       0.433253D-25        -25.363258        -58.401060
 Total V=0       0.118394D+13         12.073331         27.799871
 Vib (Bot)       0.462811D-37        -37.334596        -85.966084
 Vib (Bot)  1    0.382873D+00         -0.416945         -0.960052
 Vib (V=0)       0.126471D+01          0.101993          0.234847
 Vib (V=0)  1    0.112976D+01          0.052984          0.122001
 Electronic      0.100000D+01          0.000000          0.000000
 Translational   0.220586D+08          7.343577         16.909211
 Rotational      0.424386D+05          4.627761         10.655813
 ***** Axes restored to original set *****
 -------------------------------------------------------------------
 Center     Atomic                   Forces (Hartrees/Bohr)
 Number     Number              X              Y              Z
 -------------------------------------------------------------------
    1          1          -0.000011066    0.000010208    0.000000000
    2          6           0.000180389   -0.000007882    0.000000000
    3          1          -0.000033673    0.000035262    0.000000000
    4          6          -0.000013836    0.000178711    0.000000000
    5          1           0.000010115    0.000008748    0.000000000
    6          6          -0.000144779   -0.000062092    0.000000000
    7          7          -0.000077638   -0.000097705    0.000000000
    8          1           0.000018750    0.000050903    0.000000000
    9          7           0.000071737   -0.000116154    0.000000000
 -------------------------------------------------------------------
 Cartesian Forces:  Max     0.000180389 RMS     0.000069251

 GradGradGradGradGradGradGradGradGradGradGradGradGradGradGradGradGradGrad
 Berny optimization.
 Internal  Forces:  Max     0.000136169 RMS     0.000051852
 Search for a local minimum.
 Step number   1 out of a maximum of   2
 All quantities printed in internal units (Hartrees-Bohrs-Radians)
 Second derivative matrix not updated -- analytic derivatives used.
     Eigenvalues ---    0.00608   0.01800   0.02351   0.03756   0.06656
     Eigenvalues ---    0.07536   0.12250   0.13485   0.13795   0.14970
     Eigenvalues ---    0.28994   0.33023   0.46340   0.48955   0.49631
     Eigenvalues ---    0.50096   0.51536   0.53275   0.60206   0.68016
     Eigenvalues ---    0.758051000.000001000.000001000.000001000.00000
     Eigenvalues --- 1000.000001000.000001000.000001000.000001000.00000
     Eigenvalues --- 1000.000001000.000001000.000001000.000001000.00000
     Eigenvalues --- 1000.000001000.000001000.00000
 Angle between quadratic step and forces=  23.37 degrees.
 Linear search not attempted -- first point.
 Iteration  1 RMS(Cart)=  0.00014479 RMS(Int)=  0.00000001
 Iteration  2 RMS(Cart)=  0.00000001 RMS(Int)=  0.00000000
 Variable       Old X    -DE/DX   Delta X   Delta X   Delta X     New X
                                 (Linear)    (Quad)   (Total)
    R1        2.04284  -0.00001   0.00000  -0.00003  -0.00003   2.04281
    R2        2.55845  -0.00006   0.00000  -0.00011  -0.00011   2.55834
    R3        2.60587  -0.00002   0.00000   0.00005   0.00005   2.60591
    R4        2.03329  -0.00005   0.00000  -0.00008  -0.00008   2.03321
    R5        2.68994   0.00007   0.00000   0.00012   0.00012   2.69006
    R6        2.04293  -0.00001   0.00000  -0.00003  -0.00003   2.04290
    R7        2.51374  -0.00008   0.00000  -0.00007  -0.00007   2.51367
    R8        2.61552   0.00013   0.00000   0.00018   0.00018   2.61570
    R9        1.93395   0.00005   0.00000   0.00009   0.00009   1.93404
    A1        2.30365   0.00007   0.00000   0.00029   0.00029   2.30394
    A2        2.11817   0.00004   0.00000   0.00003   0.00003   2.11820
    A3        1.86136  -0.00012   0.00000  -0.00032  -0.00032   1.86104
    A4        2.22546  -0.00006   0.00000  -0.00006  -0.00006   2.22540
    A5        1.83931   0.00014   0.00000   0.00035   0.00035   1.83966
    A6        2.21842  -0.00008   0.00000  -0.00029  -0.00029   2.21812
    A7        2.22314   0.00003   0.00000   0.00004   0.00004   2.22318
    A8        1.96426  -0.00007   0.00000  -0.00020  -0.00020   1.96406
    A9        2.09579   0.00004   0.00000   0.00016   0.00016   2.09595
   A10        1.80089  -0.00002   0.00000  -0.00002  -0.00002   1.80087
   A11        1.95896   0.00007   0.00000   0.00018   0.00018   1.95915
   A12        2.22501  -0.00006   0.00000  -0.00019  -0.00019   2.22482
   A13        2.09921  -0.00002   0.00000   0.00001   0.00001   2.09922
    D1        0.00000   0.00000   0.00000   0.00000   0.00000   0.00000
    D2        3.14159   0.00000   0.00000   0.00000   0.00000   3.14159
    D3        3.14159   0.00000   0.00000   0.00000   0.00000   3.14159
    D4        0.00000   0.00000   0.00000   0.00000   0.00000   0.00000
    D5        3.14159   0.00000   0.00000   0.00000   0.00000   3.14159
    D6        0.00000   0.00000   0.00000   0.00000   0.00000   0.00000
    D7        0.00000   0.00000   0.00000   0.00000   0.00000   0.00000
    D8        3.14159   0.00000   0.00000   0.00000   0.00000   3.14159
    D9        3.14159   0.00000   0.00000   0.00000   0.00000   3.14159
   D10        0.00000   0.00000   0.00000   0.00000   0.00000   0.00000
   D11        0.00000   0.00000   0.00000   0.00000   0.00000   0.00000
   D12        3.14159   0.00000   0.00000   0.00000   0.00000   3.14159
   D13        0.00000   0.00000   0.00000   0.00000   0.00000   0.00000
   D14        3.14159   0.00000   0.00000   0.00000   0.00000   3.14159
   D15        0.00000   0.00000   0.00000   0.00000   0.00000   0.00000
   D16        3.14159   0.00000   0.00000   0.00000   0.00000   3.14159
         Item               Value     Threshold  Converged?
 Maximum Force            0.000136     0.000450     YES
 RMS     Force            0.000052     0.000300     YES
 Maximum Displacement     0.000354     0.001800     YES
 RMS     Displacement     0.000145     0.001200     YES
 Predicted change in Energy=-1.156927D-07
 Optimization completed.
    -- Stationary point found.
                           ----------------------------
                           !   Optimized Parameters   !
                           ! (Angstroms and Degrees)  !
 --------------------------                            --------------------------
 ! Name  Definition              Value          Derivative Info.                !
 --------------------------------------------------------------------------------
 ! R1    R(1,2)                  1.081          -DE/DX =    0.0                 !
 ! R2    R(2,4)                  1.3539         -DE/DX =   -0.0001              !
 ! R3    R(2,9)                  1.379          -DE/DX =    0.0                 !
 ! R4    R(3,4)                  1.076          -DE/DX =    0.0                 !
 ! R5    R(4,6)                  1.4235         -DE/DX =    0.0001              !
 ! R6    R(5,6)                  1.0811         -DE/DX =    0.0                 !
 ! R7    R(6,7)                  1.3302         -DE/DX =   -0.0001              !
 ! R8    R(7,9)                  1.3841         -DE/DX =    0.0001              !
 ! R9    R(8,9)                  1.0234         -DE/DX =    0.0001              !
 ! A1    A(1,2,4)              131.9894         -DE/DX =    0.0001              !
 ! A2    A(1,2,9)              121.3624         -DE/DX =    0.0                 !
 ! A3    A(4,2,9)              106.6482         -DE/DX =   -0.0001              !
 ! A4    A(2,4,3)              127.5097         -DE/DX =   -0.0001              !
 ! A5    A(2,4,6)              105.3844         -DE/DX =    0.0001              !
 ! A6    A(3,4,6)              127.1058         -DE/DX =   -0.0001              !
 ! A7    A(4,6,5)              127.3765         -DE/DX =    0.0                 !
 ! A8    A(4,6,7)              112.5435         -DE/DX =   -0.0001              !
 ! A9    A(5,6,7)              120.08           -DE/DX =    0.0                 !
 ! A10   A(6,7,9)              103.1836         -DE/DX =    0.0                 !
 ! A11   A(2,9,7)              112.2402         -DE/DX =    0.0001              !
 ! A12   A(2,9,8)              127.4836         -DE/DX =   -0.0001              !
 ! A13   A(7,9,8)              120.2762         -DE/DX =    0.0                 !
 ! D1    D(1,2,4,3)              0.0            -DE/DX =    0.0                 !
 ! D2    D(1,2,4,6)            180.0            -DE/DX =    0.0                 !
 ! D3    D(9,2,4,3)            180.0            -DE/DX =    0.0                 !
 ! D4    D(9,2,4,6)              0.0            -DE/DX =    0.0                 !
 ! D5    D(1,2,9,7)            180.0            -DE/DX =    0.0                 !
 ! D6    D(1,2,9,8)              0.0            -DE/DX =    0.0                 !
 ! D7    D(4,2,9,7)              0.0            -DE/DX =    0.0                 !
 ! D8    D(4,2,9,8)            180.0            -DE/DX =    0.0                 !
 ! D9    D(2,4,6,5)            180.0            -DE/DX =    0.0                 !
 ! D10   D(2,4,6,7)              0.0            -DE/DX =    0.0                 !
 ! D11   D(3,4,6,5)              0.0            -DE/DX =    0.0                 !
 ! D12   D(3,4,6,7)            180.0            -DE/DX =    0.0                 !
 ! D13   D(4,6,7,9)              0.0            -DE/DX =    0.0                 !
 ! D14   D(5,6,7,9)            180.0            -DE/DX =    0.0                 !
 ! D15   D(6,7,9,2)              0.0            -DE/DX =    0.0                 !
 ! D16   D(6,7,9,8)            180.0            -DE/DX =    0.0                 !
 --------------------------------------------------------------------------------
 GradGradGradGradGradGradGradGradGradGradGradGradGradGradGradGradGradGrad

 1|1|UNPC-UNK|Freq|RHF|STO-3G|C3H4N2|PCUSER|23-Jul-2004|0||#N GEOM=ALLC
 HECK GUESS=READ SCRF=CHECK GENCHK RHF/STO-3G FREQ||1hpyraz 1H-Pyrazole
  casno=288131 method=1 basis=20||0,1|H,2.1101561399,0.7298312308,0.|C,
 1.1173281467,0.3021617479,0.|H,1.2822334045,-1.8744150601,0.|C,0.68359
 38254,-0.9803541562,0.|H,-1.4421359843,-1.7182784512,0.|C,-0.737498567
 6,-0.8983994686,0.|N,-1.1759021326,0.3574938677,0.|H,-0.046035968,2.12
 23428534,0.|N,-0.0076347273,1.0996590877,0.||Version=x86-Win32-G03RevB
 .05|State=1-A'|HF=-221.9772595|RMSD=4.559e-010|RMSF=6.925e-005|Dipole=
 0.7743343,0.3388423,0.|DipoleDeriv=0.1523796,0.0510744,0.,0.0197578,0.
 0744293,0.,0.,0.,0.1024526,-0.0724962,-0.2955323,0.,0.076382,0.4345488
 ,0.,0.,0.,0.0899612,0.0600817,-0.0245112,0.,-0.0076941,0.1262688,0.,0.
 ,0.,0.0846638,-0.221162,-0.2732087,0.,-0.1936068,-0.305989,0.,0.,0.,-0
 .1398705,0.0469578,0.0324511,0.,0.0203144,0.1121999,0.,0.,0.,0.0584761
 ,0.2823849,0.2172562,0.,0.1161633,-0.1913119,0.,0.,0.,0.0098396,-0.287
 2515,0.3805925,0.,0.0761423,0.1129667,0.,0.,0.,-0.1558624,0.1577334,-0
 .0257962,0.,-0.0078155,0.2914071,0.,0.,0.,0.3115054,-0.1186276,-0.0623
 258,0.,-0.0996435,-0.6545198,0.,0.,0.,-0.3611658|Polar=26.3433386,2.07
 72419,32.7052747,0.,0.,4.8382468|PolarDeriv=6.5933752,2.0110209,0.2768
 664,0.,0.,0.1890998,1.1187031,2.2400673,1.7533528,0.,0.,-0.0157506,0.,
 0.,0.,1.1082737,0.3294041,0.,1.9286804,0.3936605,2.5448416,0.,0.,0.531
 6872,6.2905475,-0.2767033,-1.5382676,0.,0.,-0.0155172,0.,0.,0.,2.85217
 56,1.9426673,0.,2.6038201,-2.5482819,1.6089588,0.,0.,0.1592062,-0.8378
 065,2.0664771,-5.5282514,0.,0.,-0.0830161,0.,0.,0.,0.9927709,-0.977387
 8,0.,-7.6009096,0.3353889,3.8697402,0.,0.,0.3195944,-5.3285032,-0.0225
 722,-0.0523078,0.,0.,-0.3142212,0.,0.,0.,-0.479625,-2.7501885,0.,-3.77
 92146,-2.8079534,-1.5401616,0.,0.,-0.0593443,-1.2078895,-2.6697837,-4.
 7325272,0.,0.,-0.0842401,0.,0.,0.,-1.2315015,-1.0388396,0.,8.5792706,-
 1.2299901,-3.8627358,0.,0.,-0.1930868,-5.4598711,1.0806215,-0.0670105,
 0.,0.,-0.448209,0.,0.,0.,-0.2218934,-2.1450899,0.,-9.3013634,1.941918,
 -3.0870029,0.,0.,-0.7371155,7.1627987,-2.9461965,-0.1020968,0.,0.,0.48
 08541,0.,0.,0.,-2.5208626,1.384686,0.,-0.2783568,2.1537027,-0.1519228,
 0.,0.,0.0395403,0.3729896,-0.5942894,9.0318296,0.,0.,0.0728039,0.,0.,0
 .,-0.0448786,1.5691113,0.,1.254698,-0.2494657,0.3414161,0.,0.,-0.24958
 14,-2.1109686,1.1223792,1.2352789,0.,0.,0.4072961,0.,0.,0.,-0.4544591,
 1.6856371,0.|HyperPolar=-5.3567375,-7.086716,7.8381608,21.9288939,0.,0
 .,0.,3.8486899,0.35702,0.|PG=CS [SG(C3H4N2)]|NImag=0||0.42896839,0.155
 58023,0.13149408,0.,0.,0.03106243,-0.41877345,-0.15760135,0.,1.1014356
 7,-0.14927517,-0.14734475,0.,0.19360593,0.94303729,0.,0.,-0.04289140,0
 .,0.,0.16275852,0.00084778,0.00109446,0.,0.01411711,-0.01791256,0.,0.1
 9797073,-0.00106366,0.00099516,0.,0.02798966,-0.01228990,0.,-0.2019823
 9,0.36647836,0.,0.,-0.00484309,0.,0.,0.00069843,0.,0.,0.03239229,0.004
 88595,-0.02903642,0.,-0.20988851,-0.07030826,0.,-0.20535001,0.19157645
 ,0.,0.80856200,0.00879487,0.00724517,0.,-0.15970978,-0.52942378,0.,0.1
 9489234,-0.36368552,0.,-0.17211400,1.15111766,0.,0.,0.00478475,0.,0.,-
 0.08716083,0.,0.,-0.04196025,0.,0.,0.16507392,0.00060303,-0.00162427,0
 .,-0.00761886,0.00489391,0.,0.00145585,0.00064663,0.,-0.00409079,-0.02
 817173,0.,0.24813652,-0.00011911,0.00091478,0.,0.00362984,-0.00140632,
 0.,-0.00071900,0.00058233,0.,0.01155946,0.01136631,0.,0.20979771,0.315
 50723,0.,0.,0.00064220,0.,0.,0.00594565,0.,0.,-0.00232926,0.,0.,0.0012
 7571,0.,0.,0.03430653,-0.00013891,-0.00063942,0.,-0.03020270,-0.155095
 74,0.,-0.00270307,-0.00916600,0.,-0.35735738,0.06339577,0.,-0.25832111
 ,-0.19716067,0.,0.88957013,-0.00010380,-0.00831943,0.,-0.02402454,0.04
 387484,0.,0.03183589,0.00876778,0.,-0.04318301,-0.16853993,0.,-0.20402
 940,-0.30378915,0.,0.16593935,1.09288022,0.,0.,0.00952026,0.,0.,0.0135
 4035,0.,0.,-0.00165059,0.,0.,-0.08562691,0.,0.,-0.04362292,0.,0.,0.178
 36677,0.00467685,0.00434972,0.,-0.10379644,0.02834982,0.,-0.00794262,-
 0.00213898,0.,-0.03776017,0.00914522,0.,0.01472868,-0.03108053,0.,-0.1
 9063997,0.11716228,0.,0.64586998,0.00636477,-0.00305452,0.,-0.02044191
 ,-0.05722168,0.,-0.00117342,0.00239376,0.,0.13840444,0.00039623,0.,0.0
 1153241,-0.01807930,0.,0.13956204,-0.51493741,0.,-0.05313832,0.7795988
 5,0.,0.,0.00581499,0.,0.,0.01287900,0.,0.,0.00661473,0.,0.,0.02788079,
 0.,0.,-0.00988689,0.,0.,-0.08029073,0.,0.,0.10954934,0.00127831,-0.000
 60652,0.,0.01609639,0.02828730,0.,0.00149395,0.00116126,0.,-0.00754516
 ,0.00385248,0.,0.00185752,-0.00177181,0.,-0.01197710,-0.00471436,0.,0.
 02190187,-0.03289120,0.,0.07769118,0.00035185,0.00098050,0.,-0.0110999
 8,-0.00879868,0.,-0.00002739,-0.00041849,0.,0.00929899,0.00561787,0.,-
 0.00001311,-0.00055426,0.,-0.00974330,0.00628133,0.,0.00514608,-0.0139
 6535,0.,-0.01970866,0.60066528,0.,0.,-0.00198244,0.,0.,-0.01164587,0.,
 0.,0.00279067,0.,0.,0.00383984,0.,0.,0.00281161,0.,0.,0.00509405,0.,0.
 ,-0.01647057,0.,0.,0.01184744,-0.02234795,0.02848357,0.,-0.36136922,0.
 13745478,0.,0.00011028,-0.00702297,0.,0.00854408,0.07991482,0.,0.00324
 915,0.00586410,0.,-0.03822990,-0.03888241,0.,-0.34703818,-0.18821880,0
 .,-0.10079696,0.02579552,0.,0.85787870,-0.02052998,0.01708902,0.,0.147
 65213,-0.23042703,0.,-0.00600792,-0.00282348,0.,-0.03619765,-0.1140940
 0,0.,0.00696785,-0.00454161,0.,0.00290796,-0.15621826,0.,-0.07779528,-
 0.17513057,0.,0.02639150,-0.58980820,0.,-0.04338861,1.25595412,0.,0.,-
 0.00210769,0.,0.,-0.05412384,0.,0.,0.00828707,0.,0.,0.01189298,0.,0.,0
 .01085738,0.,0.,0.00466973,0.,0.,-0.05609066,0.,0.,0.00371527,0.,0.,0.
 07289976||0.00001107,-0.00001021,0.,-0.00018039,0.00000788,0.,0.000033
 67,-0.00003526,0.,0.00001384,-0.00017871,0.,-0.00001012,-0.00000875,0.
 ,0.00014478,0.00006209,0.,0.00007764,0.00009770,0.,-0.00001875,-0.0000
 5090,0.,-0.00007174,0.00011615,0.|||@


 Boundary, n.  In political geography, an imaginary
 line between two nations, separating the imaginary
 rights of one from the imaginary rights of another.
                               -- Ambrose Bierce
 Job cpu time:  0 days  0 hours  0 minutes 26.0 seconds.
 File lengths (MBytes):  RWF=     11 Int=      0 D2E=      0 Chk=      4 Scr=      1
 Normal termination of Gaussian 03 at Fri Jul 23 17:02:49 2004.
