 Entering Gaussian System, Link 0=g98
 Initial command:
 /usr/local/apps/g98a6/g98/l1.exe /wrk/rdj3/Gau-30082.inp -scrdir=/wrk/rdj3/
 Entering Link 1 = /usr/local/apps/g98a6/g98/l1.exe PID=      5320.
  
 Copyright (c) 1988,1990,1992,1993,1995,1998 Gaussian, Inc.
                  All Rights Reserved.
  
 This is part of the Gaussian(R) 98 program.  It is based on
 the Gaussian 94(TM) system (copyright 1995 Gaussian, Inc.),
 the Gaussian 92(TM) system (copyright 1992 Gaussian, Inc.),
 the Gaussian 90(TM) system (copyright 1990 Gaussian, Inc.),
 the Gaussian 88(TM) system (copyright 1988 Gaussian, Inc.),
 the Gaussian 86(TM) system (copyright 1986 Carnegie Mellon
 University), and the Gaussian 82(TM) system (copyright 1983
 Carnegie Mellon University). Gaussian is a federally registered
 trademark of Gaussian, Inc.
  
 This software contains proprietary and confidential information,
 including trade secrets, belonging to Gaussian, Inc.
  
 This software is provided under written license and may be
 used, copied, transmitted, or stored only in accord with that
 written license.
  
 The following legend is applicable only to US Government
 contracts under DFARS:
  
                    RESTRICTED RIGHTS LEGEND
  
 Use, duplication or disclosure by the US Government is subject
 to restrictions as set forth in subparagraph (c)(1)(ii) of the
 Rights in Technical Data and Computer Software clause at DFARS
 252.227-7013.
  
 Gaussian, Inc.
 Carnegie Office Park, Building 6, Pittsburgh, PA 15106 USA
  
 The following legend is applicable only to US Government
 contracts under FAR:
  
                    RESTRICTED RIGHTS LEGEND
  
 Use, reproduction and disclosure by the US Government is subject
 to restrictions as set forth in subparagraph (c) of the
 Commercial Computer Software - Restricted Rights clause at FAR
 52.227-19.
  
 Gaussian, Inc.
 Carnegie Office Park, Building 6, Pittsburgh, PA 15106 USA
  
  
 ---------------------------------------------------------------
 Warning -- This program may not be used in any manner that
 competes with the business of Gaussian, Inc. or will provide
 assistance to any competitor of Gaussian, Inc.  The licensee
 of this program is prohibited from giving any competitor of
 Gaussian, Inc. access to this program.  By using this program,
 the user acknowledges that Gaussian, Inc. is engaged in the
 business of creating and licensing software in the field of
 computational chemistry and represents and warrants to the
 licensee that it is not a competitor of Gaussian, Inc. and that
 it will not use this program in any manner prohibited above.
 ---------------------------------------------------------------
  

 Cite this work as:
 Gaussian 98, Revision A.6,
 M. J. Frisch, G. W. Trucks, H. B. Schlegel, G. E. Scuseria, 
 M. A. Robb, J. R. Cheeseman, V. G. Zakrzewski, J. A. Montgomery, Jr., 
 R. E. Stratmann, J. C. Burant, S. Dapprich, J. M. Millam, 
 A. D. Daniels, K. N. Kudin, M. C. Strain, O. Farkas, J. Tomasi, 
 V. Barone, M. Cossi, R. Cammi, B. Mennucci, C. Pomelli, C. Adamo, 
 S. Clifford, J. Ochterski, G. A. Petersson, P. Y. Ayala, Q. Cui, 
 K. Morokuma, D. K. Malick, A. D. Rabuck, K. Raghavachari, 
 J. B. Foresman, J. Cioslowski, J. V. Ortiz, B. B. Stefanov, G. Liu, 
 A. Liashenko, P. Piskorz, I. Komaromi, R. Gomperts, R. L. Martin, 
 D. J. Fox, T. Keith, M. A. Al-Laham, C. Y. Peng, A. Nanayakkara, 
 C. Gonzalez, M. Challacombe, P. M. W. Gill, B. Johnson, W. Chen, 
 M. W. Wong, J. L. Andres, C. Gonzalez, M. Head-Gordon, 
 E. S. Replogle, and J. A. Pople, 
 Gaussian, Inc., Pittsburgh PA, 1998.

 **********************************************
 Gaussian 98:  IBM-RS6000-G98RevA.6 19-Oct-1998
                   3-Apr-2000 
 **********************************************
 %mem=24000000
 ---------------------
 #HF/6-31+G** opt freq
 ---------------------
 1/18=20,38=1/1,3;
 2/9=110,17=6,18=5/2;
 3/5=1,6=6,7=111,11=9,25=1,30=1/1,2,3;
 4//1;
 5/5=2,38=4/2;
 6/7=2,8=2,9=2,10=2,28=1/1;
 7//1,2,3,16;
 1/18=20/3(1);
 99//99;
 2/9=110/2;
 3/5=1,6=6,7=111,11=9,25=1,30=1/1,2,3;
 4/5=5,16=2/1;
 5/5=2,38=4/2;
 7//1,2,3,16;
 1/18=20/3(-5);
 2/9=110/2;
 6/7=2,8=2,9=2,10=2,19=2,28=1/1;
 99/9=1/99;
 -------------------------------
 1H pyrazole C3H4N2 casno=288131
 -------------------------------
 Symbolic Z-matrix:
 Charge =  0 Multiplicity = 1
 H                    -1.9125    0.       -0.75938 
 C                    -1.08438   0.       -0.21875 
 H                     0.43438   0.       -1.63125 
 C                     0.15      0.       -0.68438 
 H                     1.9125    0.        0.37188 
 C                     0.92188   0.        0.375 
 N                     0.18125   0.        1.41875 
 H                    -1.74063   0.        1.63125 
 N                    -1.00313   0.        1.05313 

 GradGradGradGradGradGradGradGradGradGradGradGradGradGradGradGradGradGrad
 Berny optimization.
 Initialization pass.
                         ----------------------------
                         !    Initial Parameters    !
                         ! (Angstroms and Degrees)  !
 ------------------------                            -------------------------
 ! Name  Definition              Value          Derivative Info.             !
 -----------------------------------------------------------------------------
 ! R1    R(1,2)                  0.989          estimate D2E/DX2             !
 ! R2    R(2,4)                  1.3193         estimate D2E/DX2             !
 ! R3    R(2,9)                  1.2745         estimate D2E/DX2             !
 ! R4    R(3,4)                  0.9887         estimate D2E/DX2             !
 ! R5    R(4,6)                  1.3108         estimate D2E/DX2             !
 ! R6    R(5,6)                  0.9906         estimate D2E/DX2             !
 ! R7    R(6,7)                  1.2798         estimate D2E/DX2             !
 ! R8    R(7,9)                  1.2395         estimate D2E/DX2             !
 ! R9    R(8,9)                  0.9371         estimate D2E/DX2             !
 ! A1    A(1,2,4)              126.195          estimate D2E/DX2             !
 ! A2    A(1,2,9)              126.7929         estimate D2E/DX2             !
 ! A3    A(4,2,9)              107.012          estimate D2E/DX2             !
 ! A4    A(2,4,3)              127.3838         estimate D2E/DX2             !
 ! A5    A(2,4,6)              105.4104         estimate D2E/DX2             !
 ! A6    A(3,4,6)              127.2058         estimate D2E/DX2             !
 ! A7    A(4,6,5)              125.8968         estimate D2E/DX2             !
 ! A8    A(4,6,7)              108.5636         estimate D2E/DX2             !
 ! A9    A(5,6,7)              125.5395         estimate D2E/DX2             !
 ! A10   A(6,7,9)              108.203          estimate D2E/DX2             !
 ! A11   A(2,9,7)              110.811          estimate D2E/DX2             !
 ! A12   A(2,9,8)              124.4376         estimate D2E/DX2             !
 ! A13   A(7,9,8)              124.7513         estimate D2E/DX2             !
 ! D1    D(1,2,4,3)              0.             estimate D2E/DX2             !
 ! D2    D(1,2,4,6)            180.             estimate D2E/DX2             !
 ! D3    D(9,2,4,3)            180.             estimate D2E/DX2             !
 ! D4    D(9,2,4,6)              0.             estimate D2E/DX2             !
 ! D5    D(1,2,9,7)            180.             estimate D2E/DX2             !
 ! D6    D(1,2,9,8)              0.             estimate D2E/DX2             !
 ! D7    D(4,2,9,7)              0.             estimate D2E/DX2             !
 ! D8    D(4,2,9,8)            180.             estimate D2E/DX2             !
 ! D9    D(2,4,6,5)            180.             estimate D2E/DX2             !
 ! D10   D(2,4,6,7)              0.             estimate D2E/DX2             !
 ! D11   D(3,4,6,5)              0.             estimate D2E/DX2             !
 ! D12   D(3,4,6,7)            180.             estimate D2E/DX2             !
 ! D13   D(4,6,7,9)              0.             estimate D2E/DX2             !
 ! D14   D(5,6,7,9)            180.             estimate D2E/DX2             !
 ! D15   D(6,7,9,2)              0.             estimate D2E/DX2             !
 ! D16   D(6,7,9,8)            180.             estimate D2E/DX2             !
 -----------------------------------------------------------------------------
 Trust Radius=3.00D-01 FncErr=1.00D-07 GrdErr=1.00D-07
 Number of steps in this run=  48 maximum allowed number of steps= 100.
 GradGradGradGradGradGradGradGradGradGradGradGradGradGradGradGradGradGrad

                          Input orientation:                          
 ---------------------------------------------------------------------
 Center     Atomic     Atomic              Coordinates (Angstroms)
 Number     Number      Type              X           Y           Z
 ---------------------------------------------------------------------
    1          1             0       -1.912500    0.000000   -0.759375
    2          6             0       -1.084375    0.000000   -0.218750
    3          1             0        0.434375    0.000000   -1.631250
    4          6             0        0.150000    0.000000   -0.684375
    5          1             0        1.912500    0.000000    0.371875
    6          6             0        0.921875    0.000000    0.375000
    7          7             0        0.181250    0.000000    1.418750
    8          1             0       -1.740625    0.000000    1.631250
    9          7             0       -1.003125    0.000000    1.053125
 ---------------------------------------------------------------------
                    Distance matrix (angstroms):
                    1          2          3          4          5
     1  H    0.000000
     2  C    0.988972   0.000000
     3  H    2.503595   2.074068   0.000000
     4  C    2.063863   1.319276   0.988656   0.000000
     5  H    3.988778   3.054521   2.489450   2.054768   0.000000
     6  C    3.052947   2.092266   2.064630   1.310750   0.990630
     7  N    3.021261   2.069592   3.060486   2.103357   2.023159
     8  H    2.396796   1.962948   3.921037   2.989412   3.864110
     9  N    2.027836   1.274468   3.045041   2.085331   2.994156
                    6          7          8          9
     6  C    0.000000
     7  N    1.279820   0.000000
     8  H    2.943989   1.933587   0.000000
     9  N    2.040950   1.239526   0.937088   0.000000
 Stoichiometry    C3H4N2
 Framework group  CS[SG(C3H4N2)]
 Deg. of freedom   15
 Full point group                 CS      NOp   2
 Largest Abelian subgroup         CS      NOp   2
 Largest concise Abelian subgroup C1      NOp   1
                         Standard orientation:                         
 ---------------------------------------------------------------------
 Center     Atomic     Atomic              Coordinates (Angstroms)
 Number     Number      Type              X           Y           Z
 ---------------------------------------------------------------------
    1          1             0        1.974407    0.585689    0.000000
    2          6             0        1.028833    0.295936    0.000000
    3          1             0        1.140941   -1.775099    0.000000
    4          6             0        0.595873   -0.950271    0.000000
    5          1             0       -1.344123   -1.627388    0.000000
    6          6             0       -0.712074   -0.864589    0.000000
    7          7             0       -1.039336    0.372682    0.000000
    8          1             0        0.028336    1.984773    0.000000
    9          7             0        0.000000    1.048113    0.000000
 ---------------------------------------------------------------------
 Rotational constants (GHZ):     11.1878032     10.4520048      5.4036973
 Isotopes: H-1,C-12,H-1,C-12,H-1,C-12,N-14,H-1,N-14
 Standard basis: 6-31+G(d,p) (6D, 7F)
 There are    86 symmetry adapted basis functions of A'  symmetry.
 There are    29 symmetry adapted basis functions of A"  symmetry.
 Crude estimate of integral set expansion from redundant integrals=1.000.
 Integral buffers will be    262144 words long.
 Raffenetti 1 integral format.
 Two-electron integral symmetry is turned on.
   115 basis functions      188 primitive gaussians
    18 alpha electrons       18 beta electrons
       nuclear repulsion energy       173.7391879471 Hartrees.
 One-electron integrals computed using PRISM.
 NBasis=   115 RedAO= T  NBF=    86    29
 NBsUse=   115 1.00D-04 NBFU=    86    29
 Projected INDO Guess.
 Initial guess orbital symmetries:
       Occupied  (A') (A') (A') (A') (A') (A') (A') (A') (A') (A')
                 (A') (A") (A') (A') (A') (A") (A') (A")
       Virtual   (A") (A') (A') (A") (A') (A') (A') (A') (A') (A')
                 (A') (A') (A') (A') (A') (A') (A') (A') (A') (A')
                 (A') (A') (A') (A') (A') (A') (A') (A') (A') (A')
                 (A') (A') (A') (A') (A') (A') (A') (A') (A') (A')
                 (A') (A') (A') (A') (A') (A') (A') (A') (A') (A')
                 (A') (A') (A') (A') (A') (A') (A') (A') (A') (A')
                 (A') (A') (A') (A') (A') (A') (A') (A') (A') (A')
                 (A') (A') (A') (A") (A") (A") (A") (A") (A") (A")
                 (A") (A") (A") (A") (A") (A") (A") (A") (A") (A")
                 (A") (A") (A") (A") (A") (A") (A")
 Requested convergence on RMS density matrix=1.00D-08 within  64 cycles.
 Requested convergence on MAX density matrix=1.00D-06.
 Keep R1 integrals in memory in canonical form, NReq=    23069849.
 SCF Done:  E(RHF) =  -224.757188899     A.U. after   14 cycles
             Convg  =    0.5520D-08             -V/T =  1.9942
             S**2   =   0.0000

 **********************************************************************

            Population analysis using the SCF density.

 **********************************************************************

 Orbital Symmetries:
       Occupied  (A') (A') (A') (A') (A') (A') (A') (A') (A') (A')
                 (A') (A') (A") (A') (A') (A') (A") (A")
       Virtual   (A') (A') (A') (A") (A') (A') (A") (A") (A') (A')
                 (A') (A") (A') (A') (A") (A') (A") (A') (A") (A')
                 (A') (A') (A') (A') (A') (A') (A') (A') (A') (A')
                 (A') (A") (A") (A') (A') (A") (A') (A') (A') (A')
                 (A") (A') (A') (A') (A") (A') (A') (A') (A') (A')
                 (A") (A') (A') (A") (A") (A') (A") (A') (A") (A')
                 (A') (A') (A') (A') (A") (A') (A") (A') (A") (A")
                 (A') (A') (A") (A') (A") (A') (A') (A') (A') (A")
                 (A') (A") (A") (A') (A') (A') (A') (A') (A') (A')
                 (A') (A') (A') (A') (A') (A') (A')
  The electronic state is 1-A'.
 Alpha  occ. eigenvalues --  -15.64684 -15.57153 -11.24171 -11.21837 -11.18610
 Alpha  occ. eigenvalues --   -1.46240  -1.13587  -1.08970  -0.87245  -0.84007
 Alpha  occ. eigenvalues --   -0.77903  -0.65912  -0.65584  -0.61533  -0.57308
 Alpha  occ. eigenvalues --   -0.44439  -0.37921  -0.34797
 Alpha virt. eigenvalues --    0.06130   0.08272   0.09278   0.11466   0.11522
 Alpha virt. eigenvalues --    0.12324   0.13365   0.15388   0.16287   0.17979
 Alpha virt. eigenvalues --    0.19768   0.20850   0.21686   0.23947   0.24575
 Alpha virt. eigenvalues --    0.26217   0.29312   0.30109   0.31931   0.32385
 Alpha virt. eigenvalues --    0.34813   0.39062   0.40833   0.45506   0.46611
 Alpha virt. eigenvalues --    0.46875   0.47863   0.53171   0.63314   0.72866
 Alpha virt. eigenvalues --    0.76183   0.89474   0.92971   0.94766   0.96882
 Alpha virt. eigenvalues --    0.98585   1.02295   1.06368   1.12308   1.14053
 Alpha virt. eigenvalues --    1.16260   1.16615   1.19451   1.22120   1.24370
 Alpha virt. eigenvalues --    1.25019   1.26809   1.30807   1.36375   1.44704
 Alpha virt. eigenvalues --    1.49075   1.53879   1.55822   1.62089   1.64731
 Alpha virt. eigenvalues --    1.64989   1.74802   1.80589   1.82763   1.85630
 Alpha virt. eigenvalues --    2.11687   2.28998   2.29386   2.37284   2.37819
 Alpha virt. eigenvalues --    2.41529   2.50881   2.58214   2.59751   2.62411
 Alpha virt. eigenvalues --    2.68078   2.73785   2.78485   2.86119   2.86128
 Alpha virt. eigenvalues --    2.87477   2.91898   2.97789   3.03228   3.07595
 Alpha virt. eigenvalues --    3.11179   3.19204   3.29735   3.36018   3.49273
 Alpha virt. eigenvalues --    3.50700   3.67846   3.87688   3.88065   4.01082
 Alpha virt. eigenvalues --    4.26651   4.45503   4.53980   4.77537   4.82843
 Alpha virt. eigenvalues --    5.02370   5.43145
          Condensed to atoms (all electrons):
              1          2          3          4          5          6
  1  H    0.479118   0.373616   0.000169   0.010066  -0.000168   0.012793
  2  C    0.373616   4.954814   0.019642   0.600923   0.016126  -0.099822
  3  H    0.000169   0.019642   0.489905   0.285317   0.000349   0.039286
  4  C    0.010066   0.600923   0.285317   5.299616  -0.037413   0.276383
  5  H   -0.000168   0.016126   0.000349  -0.037413   0.507306   0.412701
  6  C    0.012793  -0.099822   0.039286   0.276383   0.412701   4.986226
  7  N   -0.000884  -0.181405   0.001581   0.012519  -0.052713   0.491898
  8  H    0.000399  -0.013540  -0.000054  -0.009960   0.000098   0.005723
  9  N   -0.041079   0.429076   0.007510  -0.283816   0.005621  -0.065126
              7          8          9
  1  H   -0.000884   0.000399  -0.041079
  2  C   -0.181405  -0.013540   0.429076
  3  H    0.001581  -0.000054   0.007510
  4  C    0.012519  -0.009960  -0.283816
  5  H   -0.052713   0.000098   0.005621
  6  C    0.491898   0.005723  -0.065126
  7  N    6.667950  -0.022915   0.376801
  8  H   -0.022915   0.357166   0.350360
  9  N    0.376801   0.350360   6.417774
 Total atomic charges:
              1
  1  H    0.165970
  2  C   -0.099430
  3  H    0.156295
  4  C   -0.153635
  5  H    0.148092
  6  C   -0.060061
  7  N   -0.292833
  8  H    0.332723
  9  N   -0.197121
 Sum of Mulliken charges=   0.00000
 Atomic charges with hydrogens summed into heavy atoms:
              1
  1  H    0.000000
  2  C    0.066540
  3  H    0.000000
  4  C    0.002660
  5  H    0.000000
  6  C    0.088031
  7  N   -0.292833
  8  H    0.000000
  9  N    0.135602
 Sum of Mulliken charges=   0.00000
 Electronic spatial extent (au):  <R**2>=   259.9584
 Charge=     0.0000 electrons
 Dipole moment (Debye):
    X=     2.3285    Y=     0.8886    Z=     0.0000  Tot=     2.4923
 Quadrupole moment (Debye-Ang):
   XX=   -30.4468   YY=   -22.1079   ZZ=   -31.6494
   XY=     2.8754   XZ=     0.0000   YZ=     0.0000
 Octapole moment (Debye-Ang**2):
  XXX=     9.9451  YYY=    11.1961  ZZZ=     0.0000  XYY=     0.5386
  XXY=    -2.6080  XXZ=     0.0000  XZZ=    -0.7038  YZZ=     2.1574
  YYZ=     0.0000  XYZ=     0.0000
 Hexadecapole moment (Debye-Ang**3):
 XXXX=  -156.9593 YYYY=  -121.8937 ZZZZ=   -35.7015 XXXY=     8.5388
 XXXZ=     0.0000 YYYX=     0.9599 YYYZ=     0.0000 ZZZX=     0.0000
 ZZZY=     0.0000 XXYY=   -48.4246 XXZZ=   -35.4638 YYZZ=   -34.6816
 XXYZ=     0.0000 YYXZ=     0.0000 ZZXY=     0.1542
 N-N= 1.737391879471D+02 E-N=-8.736119108586D+02  KE= 2.260572158238D+02
 Symmetry A'   KE= 2.181787855292D+02
 Symmetry A"   KE= 7.878430294613D+00
 ***** Axes restored to original set *****
 -------------------------------------------------------------------
 Center     Atomic                   Forces (Hartrees/Bohr)
 Number     Number              X              Y              Z
 -------------------------------------------------------------------
    1          1          -0.073694164    0.000000000   -0.035061125
    2          6          -0.008791883    0.000000000   -0.045140918
    3          1           0.020541968    0.000000000   -0.078435918
    4          6          -0.020002957    0.000000000   -0.044996407
    5          1           0.078332444    0.000000000    0.012701155
    6          6          -0.002195544    0.000000000    0.037565508
    7          7           0.088710254    0.000000000    0.115237523
    8          1          -0.046353377    0.000000000    0.052360675
    9          7          -0.036546742    0.000000000   -0.014230493
 -------------------------------------------------------------------
 Cartesian Forces:  Max     0.115237523 RMS     0.044332496

 GradGradGradGradGradGradGradGradGradGradGradGradGradGradGradGradGradGrad
 Berny optimization.
 Internal  Forces:  Max     0.126484250 RMS     0.043361111
 Search for a local minimum.
 Step number   1 out of a maximum of  48
 All quantities printed in internal units (Hartrees-Bohrs-Radians)
 Second derivative matrix not updated -- first step.
     Eigenvalues ---    0.03204   0.03245   0.03263   0.03273   0.03342
     Eigenvalues ---    0.03375   0.16000   0.16000   0.16000   0.16000
     Eigenvalues ---    0.22000   0.22938   0.49374   0.49681   0.49740
     Eigenvalues ---    0.56490   0.56686   0.60708   0.68179   0.73042
     Eigenvalues ---    0.827791000.000001000.000001000.000001000.00000
     Eigenvalues --- 1000.000001000.000001000.000001000.000001000.00000
     Eigenvalues --- 1000.000001000.000001000.000001000.000001000.00000
     Eigenvalues --- 1000.000001000.000001000.00000
 RFO step:  Lambda=-1.01655621D-01.
 Linear search not attempted -- first point.
 Maximum step size (   0.300) exceeded in Quadratic search.
    -- Step size scaled by   0.756
 Iteration  1 RMS(Cart)=  0.06329473 RMS(Int)=  0.00087239
 Iteration  2 RMS(Cart)=  0.00112206 RMS(Int)=  0.00005227
 Iteration  3 RMS(Cart)=  0.00000098 RMS(Int)=  0.00005226
 Variable       Old X    -DE/DX   Delta X   Delta X   Delta X     New X
                                 (Linear)    (Quad)   (Total)
    R1        1.86889   0.08087   0.00000   0.10219   0.10219   1.97108
    R2        2.49307   0.06869   0.00000   0.07113   0.07121   2.56428
    R3        2.40839   0.09668   0.00000   0.08749   0.08747   2.49586
    R4        1.86829   0.08103   0.00000   0.10229   0.10229   1.97058
    R5        2.47696   0.12648   0.00000   0.12637   0.12644   2.60340
    R6        1.87202   0.07829   0.00000   0.09944   0.09944   1.97146
    R7        2.41851   0.05218   0.00000   0.04692   0.04688   2.46539
    R8        2.34237   0.11059   0.00000   0.08722   0.08712   2.42949
    R9        1.77084   0.06878   0.00000   0.07339   0.07339   1.84423
    A1        2.20252   0.01525   0.00000   0.04095   0.04092   2.24344
    A2        2.21295  -0.00517   0.00000  -0.01806  -0.01810   2.19486
    A3        1.86771  -0.01008   0.00000  -0.02289  -0.02282   1.84489
    A4        2.22327  -0.00093   0.00000  -0.00027  -0.00034   2.22293
    A5        1.83976  -0.00353   0.00000  -0.01506  -0.01491   1.82485
    A6        2.22016   0.00446   0.00000   0.01532   0.01525   2.23541
    A7        2.19731   0.00304   0.00000   0.01675   0.01673   2.21405
    A8        1.89479   0.01815   0.00000   0.03655   0.03659   1.93138
    A9        2.19108  -0.02120   0.00000  -0.05330  -0.05332   2.13776
   A10        1.88850  -0.02293   0.00000  -0.04733  -0.04749   1.84101
   A11        1.93402   0.01839   0.00000   0.04872   0.04863   1.98265
   A12        2.17185   0.00197   0.00000   0.00791   0.00796   2.17980
   A13        2.17732  -0.02036   0.00000  -0.05663  -0.05659   2.12074
    D1        0.00000   0.00000   0.00000   0.00000   0.00000   0.00000
    D2        3.14159   0.00000   0.00000   0.00000   0.00000   3.14159
    D3        3.14159   0.00000   0.00000   0.00000   0.00000   3.14159
    D4        0.00000   0.00000   0.00000   0.00000   0.00000   0.00000
    D5        3.14159   0.00000   0.00000   0.00000   0.00000   3.14159
    D6        0.00000   0.00000   0.00000   0.00000   0.00000   0.00000
    D7        0.00000   0.00000   0.00000   0.00000   0.00000   0.00000
    D8        3.14159   0.00000   0.00000   0.00000   0.00000   3.14159
    D9        3.14159   0.00000   0.00000   0.00000   0.00000   3.14159
   D10        0.00000   0.00000   0.00000   0.00000   0.00000   0.00000
   D11        0.00000   0.00000   0.00000   0.00000   0.00000   0.00000
   D12        3.14159   0.00000   0.00000   0.00000   0.00000   3.14159
   D13        0.00000   0.00000   0.00000   0.00000   0.00000   0.00000
   D14        3.14159   0.00000   0.00000   0.00000   0.00000   3.14159
   D15        0.00000   0.00000   0.00000   0.00000   0.00000   0.00000
   D16        3.14159   0.00000   0.00000   0.00000   0.00000   3.14159
         Item               Value     Threshold  Converged?
 Maximum Force            0.126484     0.000450     NO 
 RMS     Force            0.043361     0.000300     NO 
 Maximum Displacement     0.187576     0.001800     NO 
 RMS     Displacement     0.063287     0.001200     NO 
 Predicted change in Energy=-2.448932D-02
 GradGradGradGradGradGradGradGradGradGradGradGradGradGradGradGradGradGrad

                          Input orientation:                          
 ---------------------------------------------------------------------
 Center     Atomic     Atomic              Coordinates (Angstroms)
 Number     Number      Type              X           Y           Z
 ---------------------------------------------------------------------
    1          1             0       -1.813584    0.000000   -1.171970
    2          6             0       -0.919116    0.000000   -0.635427
    3          1             0        0.654344    0.000000   -2.108669
    4          6             0        0.351883    0.000000   -1.110714
    5          1             0        2.185984    0.000000    0.049674
    6          6             0        1.143248    0.000000    0.016978
    7          7             0        0.408424    0.000000    1.094979
    8          1             0       -1.559587    0.000000    1.303984
    9          7             0       -0.808627    0.000000    0.680696
 ---------------------------------------------------------------------
                    Distance matrix (angstroms):
                    1          2          3          4          5
     1  H    0.000000
     2  C    1.043049   0.000000
     3  H    2.639711   2.155509   0.000000
     4  C    2.166333   1.356958   1.042784   0.000000
     5  H    4.181981   3.179782   2.646577   2.170352   0.000000
     6  C    3.186919   2.163094   2.181147   1.377660   1.043249
     7  N    3.174331   2.180978   3.213073   2.206417   2.062131
     8  H    2.488948   2.042429   4.067886   3.079689   3.950013
     9  N    2.107679   1.320752   3.149737   2.134463   3.060374
                    6          7          8          9
     6  C    0.000000
     7  N    1.304628   0.000000
     8  H    2.993610   1.979078   0.000000
     9  N    2.061634   1.285629   0.975925   0.000000
 Stoichiometry    C3H4N2
 Framework group  CS[SG(C3H4N2)]
 Deg. of freedom   15
 Full point group                 CS      NOp   2
 Largest Abelian subgroup         CS      NOp   2
 Largest concise Abelian subgroup C1      NOp   1
                         Standard orientation:                         
 ---------------------------------------------------------------------
 Center     Atomic     Atomic              Coordinates (Angstroms)
 Number     Number      Type              X           Y           Z
 ---------------------------------------------------------------------
    1          1             0        2.066473    0.642577    0.000000
    2          6             0        1.081547    0.299252    0.000000
    3          1             0        1.205282   -1.852703    0.000000
    4          6             0        0.632561   -0.981275    0.000000
    5          1             0       -1.433265   -1.646701    0.000000
    6          6             0       -0.740336   -0.866817    0.000000
    7          7             0       -1.097627    0.387932    0.000000
    8          1             0        0.002264    2.033225    0.000000
    9          7             0        0.000000    1.057303    0.000000
 ---------------------------------------------------------------------
 Rotational constants (GHZ):     10.1508713     10.0153504      5.0413277
 Isotopes: H-1,C-12,H-1,C-12,H-1,C-12,N-14,H-1,N-14
 Standard basis: 6-31+G(d,p) (6D, 7F)
 There are    86 symmetry adapted basis functions of A'  symmetry.
 There are    29 symmetry adapted basis functions of A"  symmetry.
 Crude estimate of integral set expansion from redundant integrals=1.000.
 Integral buffers will be    262144 words long.
 Raffenetti 1 integral format.
 Two-electron integral symmetry is turned on.
   115 basis functions      188 primitive gaussians
    18 alpha electrons       18 beta electrons
       nuclear repulsion energy       167.7249665645 Hartrees.
 One-electron integrals computed using PRISM.
 NBasis=   115 RedAO= T  NBF=    86    29
 NBsUse=   115 1.00D-04 NBFU=    86    29
 Initial guess read from the read-write file:
 Initial guess orbital symmetries:
       Occupied  (A') (A') (A') (A') (A') (A') (A') (A') (A') (A')
                 (A') (A') (A") (A') (A') (A') (A") (A")
       Virtual   (A') (A') (A') (A") (A') (A') (A") (A") (A') (A')
                 (A') (A") (A') (A') (A") (A') (A") (A') (A") (A')
                 (A') (A') (A') (A') (A') (A') (A') (A') (A') (A')
                 (A') (A") (A") (A') (A') (A") (A') (A') (A') (A')
                 (A") (A') (A') (A') (A") (A') (A') (A') (A') (A')
                 (A") (A') (A') (A") (A") (A') (A") (A') (A") (A')
                 (A') (A') (A') (A') (A") (A') (A") (A') (A") (A")
                 (A') (A') (A") (A') (A") (A') (A') (A') (A') (A")
                 (A') (A") (A") (A') (A') (A') (A') (A') (A') (A')
                 (A') (A') (A') (A') (A') (A') (A')
 Requested convergence on RMS density matrix=1.00D-08 within  64 cycles.
 Requested convergence on MAX density matrix=1.00D-06.
 Keep R1 integrals in memory in canonical form, NReq=    23069849.
 SCF Done:  E(RHF) =  -224.805015583     A.U. after   13 cycles
             Convg  =    0.7126D-08             -V/T =  1.9994
             S**2   =   0.0000
 ***** Axes restored to original set *****
 -------------------------------------------------------------------
 Center     Atomic                   Forces (Hartrees/Bohr)
 Number     Number              X              Y              Z
 -------------------------------------------------------------------
    1          1          -0.023411713    0.000000000   -0.005048690
    2          6           0.012153202    0.000000000   -0.015001577
    3          1           0.006499068    0.000000000   -0.022134491
    4          6          -0.008250617    0.000000000   -0.010390573
    5          1           0.022931197    0.000000000    0.006301803
    6          6          -0.002461114    0.000000000    0.011007712
    7          7           0.038507293    0.000000000    0.025142131
    8          1          -0.010272369    0.000000000    0.016648695
    9          7          -0.035694947    0.000000000   -0.006525010
 -------------------------------------------------------------------
 Cartesian Forces:  Max     0.038507293 RMS     0.015106632

 GradGradGradGradGradGradGradGradGradGradGradGradGradGradGradGradGradGrad
 Berny optimization.
 Internal  Forces:  Max     0.042036465 RMS     0.012708638
 Search for a local minimum.
 Step number   2 out of a maximum of  48
 All quantities printed in internal units (Hartrees-Bohrs-Radians)
 Update second derivatives using information from points  1  2
 Trust test= 1.95D+00 RLast= 3.00D-01 DXMaxT set to 4.24D-01
     Eigenvalues ---    0.03204   0.03248   0.03259   0.03273   0.03343
     Eigenvalues ---    0.03374   0.15869   0.16000   0.16000   0.16050
     Eigenvalues ---    0.22000   0.24054   0.49444   0.49711   0.51300
     Eigenvalues ---    0.57102   0.58333   0.61605   0.68240   0.75981
     Eigenvalues ---    0.806551000.000001000.000001000.000001000.00000
     Eigenvalues --- 1000.000001000.000001000.000001000.000001000.00000
     Eigenvalues --- 1000.000001000.000001000.000001000.000001000.00000
     Eigenvalues --- 1000.000001000.000001000.00000
 RFO step:  Lambda=-2.89484854D-03.
 Quartic linear search produced a step of  0.47621.
 Iteration  1 RMS(Cart)=  0.04012170 RMS(Int)=  0.00089389
 Iteration  2 RMS(Cart)=  0.00099226 RMS(Int)=  0.00003571
 Iteration  3 RMS(Cart)=  0.00000107 RMS(Int)=  0.00003570
 Iteration  4 RMS(Cart)=  0.00000000 RMS(Int)=  0.00003570
 Variable       Old X    -DE/DX   Delta X   Delta X   Delta X     New X
                                 (Linear)    (Quad)   (Total)
    R1        1.97108   0.02267   0.04866   0.00488   0.05354   2.02462
    R2        2.56428   0.01825   0.03391  -0.00174   0.03223   2.59651
    R3        2.49586   0.02401   0.04165  -0.00352   0.03817   2.53403
    R4        1.97058   0.02307   0.04871   0.00591   0.05462   2.02519
    R5        2.60340   0.03407   0.06021  -0.00206   0.05815   2.66155
    R6        1.97146   0.02312   0.04735   0.00828   0.05563   2.02709
    R7        2.46539   0.00931   0.02232  -0.00989   0.01237   2.47776
    R8        2.42949   0.04204   0.04149   0.02074   0.06220   2.49168
    R9        1.84423   0.01854   0.03495   0.00040   0.03535   1.87958
    A1        2.24344   0.00668   0.01949   0.03670   0.05614   2.29957
    A2        2.19486  -0.00853  -0.00862  -0.06391  -0.07257   2.12228
    A3        1.84489   0.00185  -0.01087   0.02721   0.01644   1.86133
    A4        2.22293  -0.00016  -0.00016   0.00588   0.00569   2.22862
    A5        1.82485  -0.00007  -0.00710  -0.00553  -0.01257   1.81228
    A6        2.23541   0.00023   0.00726  -0.00035   0.00688   2.24229
    A7        2.21405   0.00371   0.00797   0.03219   0.04018   2.25423
    A8        1.93138   0.00359   0.01742  -0.00880   0.00858   1.93996
    A9        2.13776  -0.00729  -0.02539  -0.02339  -0.04875   2.08900
   A10        1.84101  -0.00192  -0.02262   0.02725   0.00452   1.84553
   A11        1.98265  -0.00345   0.02316  -0.04014  -0.01696   1.96568
   A12        2.17980   0.00749   0.00379   0.05197   0.05576   2.23556
   A13        2.12074  -0.00404  -0.02695  -0.01184  -0.03879   2.08194
    D1        0.00000   0.00000   0.00000   0.00000   0.00000   0.00000
    D2        3.14159   0.00000   0.00000   0.00000   0.00000   3.14159
    D3        3.14159   0.00000   0.00000   0.00000   0.00000   3.14159
    D4        0.00000   0.00000   0.00000   0.00000   0.00000   0.00000
    D5        3.14159   0.00000   0.00000   0.00000   0.00000   3.14159
    D6        0.00000   0.00000   0.00000   0.00000   0.00000   0.00000
    D7        0.00000   0.00000   0.00000   0.00000   0.00000   0.00000
    D8        3.14159   0.00000   0.00000   0.00000   0.00000   3.14159
    D9        3.14159   0.00000   0.00000   0.00000   0.00000   3.14159
   D10        0.00000   0.00000   0.00000   0.00000   0.00000   0.00000
   D11        0.00000   0.00000   0.00000   0.00000   0.00000   0.00000
   D12        3.14159   0.00000   0.00000   0.00000   0.00000   3.14159
   D13        0.00000   0.00000   0.00000   0.00000   0.00000   0.00000
   D14        3.14159   0.00000   0.00000   0.00000   0.00000   3.14159
   D15        0.00000   0.00000   0.00000   0.00000   0.00000   0.00000
   D16        3.14159   0.00000   0.00000   0.00000   0.00000   3.14159
         Item               Value     Threshold  Converged?
 Maximum Force            0.042036     0.000450     NO 
 RMS     Force            0.012709     0.000300     NO 
 Maximum Displacement     0.113896     0.001800     NO 
 RMS     Displacement     0.040101     0.001200     NO 
 Predicted change in Energy=-7.720350D-03
 GradGradGradGradGradGradGradGradGradGradGradGradGradGradGradGradGradGrad

                          Input orientation:                          
 ---------------------------------------------------------------------
 Center     Atomic     Atomic              Coordinates (Angstroms)
 Number     Number      Type              X           Y           Z
 ---------------------------------------------------------------------
    1          1             0       -1.877239    0.000000   -1.159247
    2          6             0       -0.927830    0.000000   -0.662774
    3          1             0        0.672282    0.000000   -2.171627
    4          6             0        0.358012    0.000000   -1.147056
    5          1             0        2.224334    0.000000    0.101621
    6          6             0        1.155227    0.000000    0.014031
    7          7             0        0.414936    0.000000    1.096224
    8          1             0       -1.572720    0.000000    1.341491
    9          7             0       -0.834489    0.000000    0.674925
 ---------------------------------------------------------------------
                    Distance matrix (angstroms):
                    1          2          3          4          5
     1  H    0.000000
     2  C    1.071384   0.000000
     3  H    2.743168   2.199317   0.000000
     4  C    2.235284   1.374015   1.071686   0.000000
     5  H    4.291001   3.243522   2.752549   2.245519   0.000000
     6  C    3.251528   2.190250   2.238379   1.408431   1.072689
     7  N    3.215777   2.212938   3.277969   2.244003   2.064741
     8  H    2.519211   2.105460   4.169177   3.149697   3.994358
     9  N    2.109862   1.340952   3.220749   2.177539   3.112086
                    6          7          8          9
     6  C    0.000000
     7  N    1.311172   0.000000
     8  H    3.033784   2.002731   0.000000
     9  N    2.096605   1.318543   0.994633   0.000000
 Stoichiometry    C3H4N2
 Framework group  CS[SG(C3H4N2)]
 Deg. of freedom   15
 Full point group                 CS      NOp   2
 Largest Abelian subgroup         CS      NOp   2
 Largest concise Abelian subgroup C1      NOp   1
                         Standard orientation:                         
 ---------------------------------------------------------------------
 Center     Atomic     Atomic              Coordinates (Angstroms)
 Number     Number      Type              X           Y           Z
 ---------------------------------------------------------------------
    1          1             0        2.080133    0.725442    0.000000
    2          6             0        1.094983    0.304321    0.000000
    3          1             0        1.251088   -1.889449    0.000000
    4          6             0        0.656484   -0.997845    0.000000
    5          1             0       -1.491296   -1.653125    0.000000
    6          6             0       -0.747059   -0.880615    0.000000
    7          7             0       -1.116749    0.377360    0.000000
    8          1             0       -0.049128    2.071797    0.000000
    9          7             0        0.000000    1.078378    0.000000
 ---------------------------------------------------------------------
 Rotational constants (GHZ):      9.8091815      9.6855182      4.8734788
 Isotopes: H-1,C-12,H-1,C-12,H-1,C-12,N-14,H-1,N-14
 Standard basis: 6-31+G(d,p) (6D, 7F)
 There are    86 symmetry adapted basis functions of A'  symmetry.
 There are    29 symmetry adapted basis functions of A"  symmetry.
 Crude estimate of integral set expansion from redundant integrals=1.000.
 Integral buffers will be    262144 words long.
 Raffenetti 1 integral format.
 Two-electron integral symmetry is turned on.
   115 basis functions      188 primitive gaussians
    18 alpha electrons       18 beta electrons
       nuclear repulsion energy       164.8587323969 Hartrees.
 One-electron integrals computed using PRISM.
 NBasis=   115 RedAO= T  NBF=    86    29
 NBsUse=   115 1.00D-04 NBFU=    86    29
 Initial guess read from the read-write file:
 Initial guess orbital symmetries:
       Occupied  (A') (A') (A') (A') (A') (A') (A') (A') (A') (A')
                 (A') (A") (A') (A') (A') (A') (A") (A")
       Virtual   (A') (A') (A') (A') (A") (A') (A") (A") (A') (A')
                 (A') (A") (A') (A") (A') (A') (A") (A') (A") (A')
                 (A') (A') (A') (A') (A') (A') (A') (A') (A') (A')
                 (A') (A") (A') (A") (A') (A") (A') (A') (A') (A')
                 (A') (A") (A') (A') (A') (A") (A') (A') (A') (A')
                 (A') (A") (A') (A") (A') (A") (A") (A') (A") (A')
                 (A') (A') (A') (A') (A") (A') (A") (A') (A") (A')
                 (A") (A') (A") (A") (A') (A') (A') (A') (A') (A")
                 (A') (A") (A") (A') (A') (A') (A') (A') (A') (A')
                 (A') (A') (A') (A') (A') (A') (A')
 Requested convergence on RMS density matrix=1.00D-08 within  64 cycles.
 Requested convergence on MAX density matrix=1.00D-06.
 Keep R1 integrals in memory in canonical form, NReq=    23069849.
 SCF Done:  E(RHF) =  -224.811126179     A.U. after   13 cycles
             Convg  =    0.5548D-08             -V/T =  2.0016
             S**2   =   0.0000
 ***** Axes restored to original set *****
 -------------------------------------------------------------------
 Center     Atomic                   Forces (Hartrees/Bohr)
 Number     Number              X              Y              Z
 -------------------------------------------------------------------
    1          1           0.001164761    0.000000000   -0.000200092
    2          6           0.002666113    0.000000000   -0.004013898
    3          1          -0.000775362    0.000000000    0.001676115
    4          6          -0.007837959    0.000000000   -0.000892605
    5          1          -0.001516959    0.000000000   -0.000902359
    6          6          -0.003437616    0.000000000    0.008907812
    7          7           0.013313905    0.000000000    0.001557764
    8          1           0.001508582    0.000000000   -0.002149202
    9          7          -0.005085466    0.000000000   -0.003983535
 -------------------------------------------------------------------
 Cartesian Forces:  Max     0.013313905 RMS     0.003910342

 GradGradGradGradGradGradGradGradGradGradGradGradGradGradGradGradGradGrad
 Berny optimization.
 Internal  Forces:  Max     0.008087087 RMS     0.002663295
 Search for a local minimum.
 Step number   3 out of a maximum of  48
 All quantities printed in internal units (Hartrees-Bohrs-Radians)
 Update second derivatives using information from points  1  2  3
 Trust test= 7.91D-01 RLast= 1.95D-01 DXMaxT set to 5.85D-01
     Eigenvalues ---    0.03203   0.03248   0.03250   0.03273   0.03342
     Eigenvalues ---    0.03373   0.15315   0.16000   0.16007   0.16032
     Eigenvalues ---    0.22070   0.24772   0.46851   0.49506   0.49730
     Eigenvalues ---    0.56792   0.58837   0.60505   0.65169   0.74072
     Eigenvalues ---    0.813621000.000001000.000001000.000001000.00000
     Eigenvalues --- 1000.000001000.000001000.000001000.000001000.00000
     Eigenvalues --- 1000.000001000.000001000.000001000.000001000.00000
     Eigenvalues --- 1000.000001000.000001000.00000
 RFO step:  Lambda=-5.07207705D-04.
 Quartic linear search produced a step of -0.02369.
 Iteration  1 RMS(Cart)=  0.00658245 RMS(Int)=  0.00002622
 Iteration  2 RMS(Cart)=  0.00002867 RMS(Int)=  0.00001002
 Iteration  3 RMS(Cart)=  0.00000000 RMS(Int)=  0.00001002
 Variable       Old X    -DE/DX   Delta X   Delta X   Delta X     New X
                                 (Linear)    (Quad)   (Total)
    R1        2.02462  -0.00094  -0.00127   0.00099  -0.00028   2.02434
    R2        2.59651  -0.00807  -0.00076  -0.01164  -0.01242   2.58410
    R3        2.53403  -0.00023  -0.00090   0.00220   0.00128   2.53531
    R4        2.02519  -0.00183  -0.00129  -0.00070  -0.00199   2.02320
    R5        2.66155   0.00418  -0.00138   0.00865   0.00729   2.66884
    R6        2.02709  -0.00159  -0.00132  -0.00018  -0.00150   2.02559
    R7        2.47776  -0.00720  -0.00029  -0.00895  -0.00922   2.46853
    R8        2.49168   0.00809  -0.00147   0.01327   0.01180   2.50348
    R9        1.87958  -0.00256  -0.00084  -0.00224  -0.00308   1.87651
    A1        2.29957   0.00019  -0.00133   0.00301   0.00169   2.30127
    A2        2.12228   0.00164   0.00172   0.00507   0.00680   2.12909
    A3        1.86133  -0.00183  -0.00039  -0.00808  -0.00850   1.85283
    A4        2.22862  -0.00117  -0.00013  -0.00298  -0.00311   2.22550
    A5        1.81228   0.00184   0.00030   0.00291   0.00321   1.81549
    A6        2.24229  -0.00067  -0.00016   0.00007  -0.00010   2.24219
    A7        2.25423  -0.00202  -0.00095  -0.00698  -0.00795   2.24628
    A8        1.93996   0.00248  -0.00020   0.00884   0.00867   1.94862
    A9        2.08900  -0.00045   0.00115  -0.00186  -0.00072   2.08828
   A10        1.84553  -0.00498  -0.00011  -0.01637  -0.01646   1.82907
   A11        1.96568   0.00250   0.00040   0.01270   0.01308   1.97876
   A12        2.23556  -0.00180  -0.00132  -0.00728  -0.00859   2.22697
   A13        2.08194  -0.00070   0.00092  -0.00542  -0.00449   2.07746
    D1        0.00000   0.00000   0.00000   0.00000   0.00000   0.00000
    D2        3.14159   0.00000   0.00000   0.00000   0.00000   3.14159
    D3        3.14159   0.00000   0.00000   0.00000   0.00000   3.14159
    D4        0.00000   0.00000   0.00000   0.00000   0.00000   0.00000
    D5        3.14159   0.00000   0.00000   0.00000   0.00000   3.14159
    D6        0.00000   0.00000   0.00000   0.00000   0.00000   0.00000
    D7        0.00000   0.00000   0.00000   0.00000   0.00000   0.00000
    D8        3.14159   0.00000   0.00000   0.00000   0.00000   3.14159
    D9        3.14159   0.00000   0.00000   0.00000   0.00000   3.14159
   D10        0.00000   0.00000   0.00000   0.00000   0.00000   0.00000
   D11        0.00000   0.00000   0.00000   0.00000   0.00000   0.00000
   D12        3.14159   0.00000   0.00000   0.00000   0.00000   3.14159
   D13        0.00000   0.00000   0.00000   0.00000   0.00000   0.00000
   D14        3.14159   0.00000   0.00000   0.00000   0.00000   3.14159
   D15        0.00000   0.00000   0.00000   0.00000   0.00000   0.00000
   D16        3.14159   0.00000   0.00000   0.00000   0.00000   3.14159
         Item               Value     Threshold  Converged?
 Maximum Force            0.008087     0.000450     NO 
 RMS     Force            0.002663     0.000300     NO 
 Maximum Displacement     0.016026     0.001800     NO 
 RMS     Displacement     0.006589     0.001200     NO 
 Predicted change in Energy=-2.569378D-04
 GradGradGradGradGradGradGradGradGradGradGradGradGradGradGradGradGradGrad

                          Input orientation:                          
 ---------------------------------------------------------------------
 Center     Atomic     Atomic              Coordinates (Angstroms)
 Number     Number      Type              X           Y           Z
 ---------------------------------------------------------------------
    1          1             0       -1.877823    0.000000   -1.157197
    2          6             0       -0.929402    0.000000   -0.659156
    3          1             0        0.666205    0.000000   -2.160211
    4          6             0        0.351931    0.000000   -1.136745
    5          1             0        2.220051    0.000000    0.106947
    6          6             0        1.151087    0.000000    0.027690
    7          7             0        0.422696    0.000000    1.112052
    8          1             0       -1.568574    0.000000    1.341608
    9          7             0       -0.829218    0.000000    0.678727
 ---------------------------------------------------------------------
                    Distance matrix (angstroms):
                    1          2          3          4          5
     1  H    0.000000
     2  C    1.071236   0.000000
     3  H    2.734614   2.190691   0.000000
     4  C    2.229848   1.367445   1.070631   0.000000
     5  H    4.288430   3.241291   2.748534   2.244246   0.000000
     6  C    3.252423   2.190935   2.240986   1.412288   1.071897
     7  N    3.231390   2.228306   3.281311   2.249910   2.059301
     8  H    2.517869   2.100380   4.154151   3.135374   3.984728
     9  N    2.114283   1.341629   3.208716   2.165884   3.102413
                    6          7          8          9
     6  C    0.000000
     7  N    1.306291   0.000000
     8  H    3.020420   2.004457   0.000000
     9  N    2.084576   1.324786   0.993005   0.000000
 Stoichiometry    C3H4N2
 Framework group  CS[SG(C3H4N2)]
 Deg. of freedom   15
 Full point group                 CS      NOp   2
 Largest Abelian subgroup         CS      NOp   2
 Largest concise Abelian subgroup C1      NOp   1
                         Standard orientation:                         
 ---------------------------------------------------------------------
 Center     Atomic     Atomic              Coordinates (Angstroms)
 Number     Number      Type              X           Y           Z
 ---------------------------------------------------------------------
    1          1             0        2.085482    0.723551    0.000000
    2          6             0        1.100090    0.303373    0.000000
    3          1             0        1.254809   -1.881847    0.000000
    4          6             0        0.660328   -0.991430    0.000000
    5          1             0       -1.484184   -1.653026    0.000000
    6          6             0       -0.747132   -0.874747    0.000000
    7          7             0       -1.127063    0.375073    0.000000
    8          1             0       -0.046382    2.063260    0.000000
    9          7             0        0.000000    1.071339    0.000000
 ---------------------------------------------------------------------
 Rotational constants (GHZ):      9.8833457      9.6247918      4.8761777
 Isotopes: H-1,C-12,H-1,C-12,H-1,C-12,N-14,H-1,N-14
 Standard basis: 6-31+G(d,p) (6D, 7F)
 There are    86 symmetry adapted basis functions of A'  symmetry.
 There are    29 symmetry adapted basis functions of A"  symmetry.
 Crude estimate of integral set expansion from redundant integrals=1.000.
 Integral buffers will be    262144 words long.
 Raffenetti 1 integral format.
 Two-electron integral symmetry is turned on.
   115 basis functions      188 primitive gaussians
    18 alpha electrons       18 beta electrons
       nuclear repulsion energy       164.9046474258 Hartrees.
 One-electron integrals computed using PRISM.
 NBasis=   115 RedAO= T  NBF=    86    29
 NBsUse=   115 1.00D-04 NBFU=    86    29
 Initial guess read from the read-write file:
 Initial guess orbital symmetries:
       Occupied  (A') (A') (A') (A') (A') (A') (A') (A') (A') (A')
                 (A') (A') (A") (A') (A') (A') (A") (A")
       Virtual   (A') (A') (A') (A') (A") (A') (A") (A") (A') (A')
                 (A') (A") (A') (A") (A') (A') (A") (A') (A") (A')
                 (A') (A') (A') (A') (A') (A') (A') (A') (A') (A')
                 (A') (A") (A') (A") (A') (A") (A') (A') (A') (A')
                 (A') (A") (A') (A') (A') (A") (A') (A') (A') (A')
                 (A') (A') (A") (A") (A') (A") (A") (A') (A") (A')
                 (A') (A') (A') (A") (A') (A') (A") (A') (A") (A')
                 (A") (A') (A") (A') (A") (A') (A') (A') (A') (A")
                 (A') (A") (A") (A') (A') (A') (A') (A') (A') (A')
                 (A') (A') (A') (A') (A') (A') (A')
 Requested convergence on RMS density matrix=1.00D-08 within  64 cycles.
 Requested convergence on MAX density matrix=1.00D-06.
 Keep R1 integrals in memory in canonical form, NReq=    23069849.
 SCF Done:  E(RHF) =  -224.811339524     A.U. after   12 cycles
             Convg  =    0.6674D-08             -V/T =  2.0015
             S**2   =   0.0000
 ***** Axes restored to original set *****
 -------------------------------------------------------------------
 Center     Atomic                   Forces (Hartrees/Bohr)
 Number     Number              X              Y              Z
 -------------------------------------------------------------------
    1          1           0.000882992    0.000000000    0.000504015
    2          6           0.003235408    0.000000000    0.001065236
    3          1           0.000181336    0.000000000    0.001033524
    4          6          -0.001545053    0.000000000   -0.002293351
    5          1          -0.000591730    0.000000000   -0.000968372
    6          6           0.002335621    0.000000000    0.003277334
    7          7           0.003521294    0.000000000   -0.004337399
    8          1           0.000315116    0.000000000   -0.000790177
    9          7          -0.008334985    0.000000000    0.002509192
 -------------------------------------------------------------------
 Cartesian Forces:  Max     0.008334985 RMS     0.002329935

 GradGradGradGradGradGradGradGradGradGradGradGradGradGradGradGradGradGrad
 Berny optimization.
 Internal  Forces:  Max     0.003739320 RMS     0.001240208
 Search for a local minimum.
 Step number   4 out of a maximum of  48
 All quantities printed in internal units (Hartrees-Bohrs-Radians)
 Update second derivatives using information from points  1  2  3  4
 Trust test= 8.30D-01 RLast= 3.56D-02 DXMaxT set to 5.85D-01
     Eigenvalues ---    0.03203   0.03248   0.03251   0.03273   0.03342
     Eigenvalues ---    0.03373   0.15242   0.15814   0.16004   0.16032
     Eigenvalues ---    0.21964   0.37654   0.47175   0.49723   0.49792
     Eigenvalues ---    0.50919   0.57817   0.59866   0.60983   0.74906
     Eigenvalues ---    0.775731000.000001000.000001000.000001000.00000
     Eigenvalues --- 1000.000001000.000001000.000001000.000001000.00000
     Eigenvalues --- 1000.000001000.000001000.000001000.000001000.00000
     Eigenvalues --- 1000.000001000.000001000.00000
 RFO step:  Lambda=-1.22917696D-04.
 Quartic linear search produced a step of -0.14555.
 Iteration  1 RMS(Cart)=  0.00313766 RMS(Int)=  0.00000860
 Iteration  2 RMS(Cart)=  0.00000802 RMS(Int)=  0.00000454
 Iteration  3 RMS(Cart)=  0.00000000 RMS(Int)=  0.00000454
 Variable       Old X    -DE/DX   Delta X   Delta X   Delta X     New X
                                 (Linear)    (Quad)   (Total)
    R1        2.02434  -0.00102   0.00004  -0.00101  -0.00097   2.02337
    R2        2.58410  -0.00017   0.00181  -0.00471  -0.00291   2.58119
    R3        2.53531  -0.00056  -0.00019   0.00072   0.00054   2.53585
    R4        2.02320  -0.00093   0.00029  -0.00154  -0.00125   2.02195
    R5        2.66884   0.00040  -0.00106   0.00404   0.00297   2.67181
    R6        2.02559  -0.00066   0.00022  -0.00095  -0.00073   2.02486
    R7        2.46853  -0.00134   0.00134  -0.00457  -0.00323   2.46530
    R8        2.50348   0.00365  -0.00172   0.00873   0.00702   2.51050
    R9        1.87651  -0.00076   0.00045  -0.00166  -0.00121   1.87529
    A1        2.30127  -0.00110  -0.00025  -0.00328  -0.00353   2.29774
    A2        2.12909  -0.00117  -0.00099  -0.00135  -0.00234   2.12674
    A3        1.85283   0.00227   0.00124   0.00462   0.00587   1.85870
    A4        2.22550   0.00042   0.00045   0.00177   0.00222   2.22773
    A5        1.81549   0.00013  -0.00047   0.00008  -0.00040   1.81510
    A6        2.24219  -0.00055   0.00001  -0.00185  -0.00183   2.24036
    A7        2.24628  -0.00033   0.00116  -0.00554  -0.00438   2.24190
    A8        1.94862  -0.00121  -0.00126  -0.00119  -0.00246   1.94616
    A9        2.08828   0.00154   0.00010   0.00673   0.00684   2.09512
   A10        1.82907   0.00256   0.00240   0.00318   0.00558   1.83464
   A11        1.97876  -0.00374  -0.00190  -0.00670  -0.00859   1.97017
   A12        2.22697   0.00152   0.00125   0.00079   0.00204   2.22901
   A13        2.07746   0.00222   0.00065   0.00590   0.00655   2.08401
    D1        0.00000   0.00000   0.00000   0.00000   0.00000   0.00000
    D2        3.14159   0.00000   0.00000   0.00000   0.00000   3.14159
    D3        3.14159   0.00000   0.00000   0.00000   0.00000   3.14159
    D4        0.00000   0.00000   0.00000   0.00000   0.00000   0.00000
    D5        3.14159   0.00000   0.00000   0.00000   0.00000   3.14159
    D6        0.00000   0.00000   0.00000   0.00000   0.00000   0.00000
    D7        0.00000   0.00000   0.00000   0.00000   0.00000   0.00000
    D8        3.14159   0.00000   0.00000   0.00000   0.00000   3.14159
    D9        3.14159   0.00000   0.00000   0.00000   0.00000   3.14159
   D10        0.00000   0.00000   0.00000   0.00000   0.00000   0.00000
   D11        0.00000   0.00000   0.00000   0.00000   0.00000   0.00000
   D12        3.14159   0.00000   0.00000   0.00000   0.00000   3.14159
   D13        0.00000   0.00000   0.00000   0.00000   0.00000   0.00000
   D14        3.14159   0.00000   0.00000   0.00000   0.00000   3.14159
   D15        0.00000   0.00000   0.00000   0.00000   0.00000   0.00000
   D16        3.14159   0.00000   0.00000   0.00000   0.00000   3.14159
         Item               Value     Threshold  Converged?
 Maximum Force            0.003739     0.000450     NO 
 RMS     Force            0.001240     0.000300     NO 
 Maximum Displacement     0.009986     0.001800     NO 
 RMS     Displacement     0.003137     0.001200     NO 
 Predicted change in Energy=-6.782658D-05
 GradGradGradGradGradGradGradGradGradGradGradGradGradGradGradGradGradGrad

                          Input orientation:                          
 ---------------------------------------------------------------------
 Center     Atomic     Atomic              Coordinates (Angstroms)
 Number     Number      Type              X           Y           Z
 ---------------------------------------------------------------------
    1          1             0       -1.875572    0.000000   -1.158876
    2          6             0       -0.928652    0.000000   -0.659086
    3          1             0        0.665448    0.000000   -2.160550
    4          6             0        0.350558    0.000000   -1.137968
    5          1             0        2.220801    0.000000    0.100380
    6          6             0        1.151809    0.000000    0.026935
    7          7             0        0.422829    0.000000    1.108841
    8          1             0       -1.574855    0.000000    1.340192
    9          7             0       -0.834389    0.000000    0.679515
 ---------------------------------------------------------------------
                    Distance matrix (angstroms):
                    1          2          3          4          5
     1  H    0.000000
     2  C    1.070724   0.000000
     3  H    2.731325   2.189874   0.000000
     4  C    2.226228   1.365908   1.069968   0.000000
     5  H    4.285558   3.239729   2.744254   2.243059   0.000000
     6  C    3.251336   2.190649   2.240902   1.413861   1.071512
     7  N    3.228806   2.225324   3.278381   2.247970   2.061480
     8  H    2.517096   2.101116   4.156219   3.138230   3.993012
     9  N    2.112758   1.341916   3.211773   2.169641   3.109596
                    6          7          8          9
     6  C    0.000000
     7  N    1.304581   0.000000
     8  H    3.026440   2.011036   0.000000
     9  N    2.090656   1.328502   0.992363   0.000000
 Stoichiometry    C3H4N2
 Framework group  CS[SG(C3H4N2)]
 Deg. of freedom   15
 Full point group                 CS      NOp   2
 Largest Abelian subgroup         CS      NOp   2
 Largest concise Abelian subgroup C1      NOp   1
                         Standard orientation:                         
 ---------------------------------------------------------------------
 Center     Atomic     Atomic              Coordinates (Angstroms)
 Number     Number      Type              X           Y           Z
 ---------------------------------------------------------------------
    1          1             0        2.083082    0.722816    0.000000
    2          6             0        1.097730    0.303852    0.000000
    3          1             0        1.256057   -1.880291    0.000000
    4          6             0        0.661698   -0.990590    0.000000
    5          1             0       -1.479300   -1.659502    0.000000
    6          6             0       -0.747572   -0.876743    0.000000
    7          7             0       -1.126563    0.371575    0.000000
    8          1             0       -0.045032    2.067027    0.000000
    9          7             0        0.000000    1.075687    0.000000
 ---------------------------------------------------------------------
 Rotational constants (GHZ):      9.8506882      9.6413073      4.8724366
 Isotopes: H-1,C-12,H-1,C-12,H-1,C-12,N-14,H-1,N-14
 Standard basis: 6-31+G(d,p) (6D, 7F)
 There are    86 symmetry adapted basis functions of A'  symmetry.
 There are    29 symmetry adapted basis functions of A"  symmetry.
 Crude estimate of integral set expansion from redundant integrals=1.000.
 Integral buffers will be    262144 words long.
 Raffenetti 1 integral format.
 Two-electron integral symmetry is turned on.
   115 basis functions      188 primitive gaussians
    18 alpha electrons       18 beta electrons
       nuclear repulsion energy       164.8429680789 Hartrees.
 One-electron integrals computed using PRISM.
 NBasis=   115 RedAO= T  NBF=    86    29
 NBsUse=   115 1.00D-04 NBFU=    86    29
 Initial guess read from the read-write file:
 Initial guess orbital symmetries:
       Occupied  (A') (A') (A') (A') (A') (A') (A') (A') (A') (A')
                 (A') (A') (A") (A') (A') (A') (A") (A")
       Virtual   (A') (A') (A') (A') (A") (A') (A") (A") (A') (A')
                 (A') (A") (A') (A") (A') (A') (A") (A') (A") (A')
                 (A') (A') (A') (A') (A') (A') (A') (A') (A') (A')
                 (A') (A") (A') (A") (A') (A") (A') (A') (A') (A')
                 (A') (A") (A') (A') (A') (A") (A') (A') (A') (A')
                 (A') (A') (A") (A") (A') (A") (A") (A') (A") (A')
                 (A') (A') (A') (A') (A") (A') (A") (A') (A") (A')
                 (A") (A') (A") (A') (A") (A') (A') (A') (A') (A")
                 (A") (A') (A") (A') (A') (A') (A') (A') (A') (A')
                 (A') (A') (A') (A') (A') (A') (A')
 Requested convergence on RMS density matrix=1.00D-08 within  64 cycles.
 Requested convergence on MAX density matrix=1.00D-06.
 Keep R1 integrals in memory in canonical form, NReq=    23069849.
 SCF Done:  E(RHF) =  -224.811419016     A.U. after   10 cycles
             Convg  =    0.6380D-08             -V/T =  2.0015
             S**2   =   0.0000
 ***** Axes restored to original set *****
 -------------------------------------------------------------------
 Center     Atomic                   Forces (Hartrees/Bohr)
 Number     Number              X              Y              Z
 -------------------------------------------------------------------
    1          1           0.000428057    0.000000000    0.000175102
    2          6           0.000800359    0.000000000    0.000542779
    3          1           0.000033402    0.000000000    0.000455309
    4          6          -0.000381575    0.000000000   -0.001139153
    5          1          -0.000413180    0.000000000   -0.000110040
    6          6          -0.000187773    0.000000000    0.001080003
    7          7           0.001167967    0.000000000   -0.000847794
    8          1           0.000415127    0.000000000   -0.000047591
    9          7          -0.001862384    0.000000000   -0.000108615
 -------------------------------------------------------------------
 Cartesian Forces:  Max     0.001862384 RMS     0.000606234

 GradGradGradGradGradGradGradGradGradGradGradGradGradGradGradGradGradGrad
 Berny optimization.
 Internal  Forces:  Max     0.000860209 RMS     0.000298218
 Search for a local minimum.
 Step number   5 out of a maximum of  48
 All quantities printed in internal units (Hartrees-Bohrs-Radians)
 Update second derivatives using information from points  1  2  3  4  5

 Trust test= 1.17D+00 RLast= 1.91D-02 DXMaxT set to 5.85D-01
     Eigenvalues ---    0.03203   0.03248   0.03251   0.03273   0.03342
     Eigenvalues ---    0.03373   0.14949   0.15573   0.16020   0.16353
     Eigenvalues ---    0.20589   0.35024   0.47693   0.48525   0.49736
     Eigenvalues ---    0.49817   0.57686   0.59422   0.60798   0.74156
     Eigenvalues ---    0.770441000.000001000.000001000.000001000.00000
     Eigenvalues --- 1000.000001000.000001000.000001000.000001000.00000
     Eigenvalues --- 1000.000001000.000001000.000001000.000001000.00000
     Eigenvalues --- 1000.000001000.000001000.00000
 RFO step:  Lambda=-7.03605421D-06.
 Quartic linear search produced a step of  0.20974.
 Iteration  1 RMS(Cart)=  0.00101026 RMS(Int)=  0.00000118
 Iteration  2 RMS(Cart)=  0.00000100 RMS(Int)=  0.00000094
 Variable       Old X    -DE/DX   Delta X   Delta X   Delta X     New X
                                 (Linear)    (Quad)   (Total)
    R1        2.02337  -0.00046  -0.00020  -0.00072  -0.00092   2.02246
    R2        2.58119  -0.00029  -0.00061  -0.00073  -0.00133   2.57986
    R3        2.53585  -0.00034   0.00011  -0.00027  -0.00016   2.53570
    R4        2.02195  -0.00043  -0.00026  -0.00069  -0.00095   2.02099
    R5        2.67181   0.00013   0.00062   0.00051   0.00113   2.67294
    R6        2.02486  -0.00042  -0.00015  -0.00075  -0.00091   2.02396
    R7        2.46530  -0.00086  -0.00068  -0.00139  -0.00207   2.46323
    R8        2.51050   0.00062   0.00147   0.00069   0.00217   2.51267
    R9        1.87529  -0.00034  -0.00025  -0.00049  -0.00075   1.87455
    A1        2.29774  -0.00031  -0.00074  -0.00109  -0.00183   2.29591
    A2        2.12674  -0.00022  -0.00049  -0.00030  -0.00079   2.12595
    A3        1.85870   0.00052   0.00123   0.00139   0.00262   1.86132
    A4        2.22773   0.00033   0.00047   0.00177   0.00223   2.22996
    A5        1.81510  -0.00032  -0.00008  -0.00187  -0.00196   1.81314
    A6        2.24036  -0.00001  -0.00038   0.00011  -0.00027   2.24009
    A7        2.24190  -0.00017  -0.00092  -0.00081  -0.00172   2.24018
    A8        1.94616   0.00018  -0.00052   0.00192   0.00140   1.94756
    A9        2.09512  -0.00001   0.00143  -0.00111   0.00032   2.09544
   A10        1.83464   0.00021   0.00117  -0.00098   0.00019   1.83483
   A11        1.97017  -0.00059  -0.00180  -0.00045  -0.00225   1.96792
   A12        2.22901   0.00052   0.00043   0.00231   0.00273   2.23174
   A13        2.08401   0.00007   0.00137  -0.00185  -0.00048   2.08353
    D1        0.00000   0.00000   0.00000   0.00000   0.00000   0.00000
    D2        3.14159   0.00000   0.00000   0.00000   0.00000   3.14159
    D3        3.14159   0.00000   0.00000   0.00000   0.00000   3.14159
    D4        0.00000   0.00000   0.00000   0.00000   0.00000   0.00000
    D5        3.14159   0.00000   0.00000   0.00000   0.00000   3.14159
    D6        0.00000   0.00000   0.00000   0.00000   0.00000   0.00000
    D7        0.00000   0.00000   0.00000   0.00000   0.00000   0.00000
    D8        3.14159   0.00000   0.00000   0.00000   0.00000   3.14159
    D9        3.14159   0.00000   0.00000   0.00000   0.00000   3.14159
   D10        0.00000   0.00000   0.00000   0.00000   0.00000   0.00000
   D11        0.00000   0.00000   0.00000   0.00000   0.00000   0.00000
   D12        3.14159   0.00000   0.00000   0.00000   0.00000   3.14159
   D13        0.00000   0.00000   0.00000   0.00000   0.00000   0.00000
   D14        3.14159   0.00000   0.00000   0.00000   0.00000   3.14159
   D15        0.00000   0.00000   0.00000   0.00000   0.00000   0.00000
   D16        3.14159   0.00000   0.00000   0.00000   0.00000   3.14159
         Item               Value     Threshold  Converged?
 Maximum Force            0.000860     0.000450     NO 
 RMS     Force            0.000298     0.000300     YES
 Maximum Displacement     0.003160     0.001800     NO 
 RMS     Displacement     0.001010     0.001200     YES
 Predicted change in Energy=-5.986799D-06
 GradGradGradGradGradGradGradGradGradGradGradGradGradGradGradGradGradGrad

                          Input orientation:                          
 ---------------------------------------------------------------------
 Center     Atomic     Atomic              Coordinates (Angstroms)
 Number     Number      Type              X           Y           Z
 ---------------------------------------------------------------------
    1          1             0       -1.873822    0.000000   -1.159484
    2          6             0       -0.927671    0.000000   -0.659278
    3          1             0        0.666172    0.000000   -2.161143
    4          6             0        0.350325    0.000000   -1.139383
    5          1             0        2.219558    0.000000    0.099089
    6          6             0        1.150977    0.000000    0.026658
    7          7             0        0.423251    0.000000    1.108090
    8          1             0       -1.574724    0.000000    1.340723
    9          7             0       -0.835386    0.000000    0.679377
 ---------------------------------------------------------------------
                    Distance matrix (angstroms):
                    1          2          3          4          5
     1  H    0.000000
     2  C    1.070238   0.000000
     3  H    2.730365   2.189961   0.000000
     4  C    2.224238   1.365201   1.069463   0.000000
     5  H    4.282495   3.237309   2.742564   2.242285   0.000000
     6  C    3.249053   2.188900   2.240873   1.414460   1.071033
     7  N    3.227761   2.224541   3.278246   2.248656   2.060291
     8  H    2.518034   2.102066   4.157485   3.139545   3.992271
     9  N    2.111814   1.341832   3.212978   2.171129   3.109568
                    6          7          8          9
     6  C    0.000000
     7  N    1.303487   0.000000
     8  H    3.025923   2.011472   0.000000
     9  N    2.090856   1.329648   0.991967   0.000000
 Stoichiometry    C3H4N2
 Framework group  CS[SG(C3H4N2)]
 Deg. of freedom   15
 Full point group                 CS      NOp   2
 Largest Abelian subgroup         CS      NOp   2
 Largest concise Abelian subgroup C1      NOp   1
                         Standard orientation:                         
 ---------------------------------------------------------------------
 Center     Atomic     Atomic              Coordinates (Angstroms)
 Number     Number      Type              X           Y           Z
 ---------------------------------------------------------------------
    1          1             0        2.081798    0.721854    0.000000
    2          6             0        1.096711    0.303510    0.000000
    3          1             0        1.256041   -1.880648    0.000000
    4          6             0        0.662708   -0.990869    0.000000
    5          1             0       -1.477587   -1.659437    0.000000
    6          6             0       -0.747095   -0.876180    0.000000
    7          7             0       -1.126813    0.370774    0.000000
    8          1             0       -0.046505    2.067523    0.000000
    9          7             0        0.000000    1.076646    0.000000
 ---------------------------------------------------------------------
 Rotational constants (GHZ):      9.8521323      9.6412379      4.8727722
 Isotopes: H-1,C-12,H-1,C-12,H-1,C-12,N-14,H-1,N-14
 Standard basis: 6-31+G(d,p) (6D, 7F)
 There are    86 symmetry adapted basis functions of A'  symmetry.
 There are    29 symmetry adapted basis functions of A"  symmetry.
 Crude estimate of integral set expansion from redundant integrals=1.000.
 Integral buffers will be    262144 words long.
 Raffenetti 1 integral format.
 Two-electron integral symmetry is turned on.
   115 basis functions      188 primitive gaussians
    18 alpha electrons       18 beta electrons
       nuclear repulsion energy       164.8517819947 Hartrees.
 One-electron integrals computed using PRISM.
 NBasis=   115 RedAO= T  NBF=    86    29
 NBsUse=   115 1.00D-04 NBFU=    86    29
 Initial guess read from the read-write file:
 Initial guess orbital symmetries:
       Occupied  (A') (A') (A') (A') (A') (A') (A') (A') (A') (A')
                 (A') (A') (A") (A') (A') (A') (A") (A")
       Virtual   (A') (A') (A') (A') (A") (A') (A") (A") (A') (A')
                 (A') (A") (A') (A") (A') (A') (A") (A') (A") (A')
                 (A') (A') (A') (A') (A') (A') (A') (A') (A') (A')
                 (A') (A") (A') (A") (A') (A") (A') (A') (A') (A')
                 (A') (A") (A') (A') (A') (A") (A') (A') (A') (A')
                 (A') (A') (A") (A") (A') (A") (A") (A') (A") (A')
                 (A') (A') (A') (A') (A") (A') (A") (A') (A') (A")
                 (A") (A') (A") (A') (A") (A') (A') (A') (A') (A")
                 (A") (A') (A") (A') (A') (A') (A') (A') (A') (A')
                 (A') (A') (A') (A') (A') (A') (A')
 Requested convergence on RMS density matrix=1.00D-08 within  64 cycles.
 Requested convergence on MAX density matrix=1.00D-06.
 Keep R1 integrals in memory in canonical form, NReq=    23069849.
 SCF Done:  E(RHF) =  -224.811424399     A.U. after   10 cycles
             Convg  =    0.3843D-08             -V/T =  2.0015
             S**2   =   0.0000
 ***** Axes restored to original set *****
 -------------------------------------------------------------------
 Center     Atomic                   Forces (Hartrees/Bohr)
 Number     Number              X              Y              Z
 -------------------------------------------------------------------
    1          1           0.000011416    0.000000000    0.000000176
    2          6          -0.000326071    0.000000000    0.000198952
    3          1          -0.000004200    0.000000000    0.000086076
    4          6           0.000014517    0.000000000    0.000130536
    5          1           0.000002781    0.000000000    0.000027206
    6          6           0.000294192    0.000000000    0.000052420
    7          7           0.000042868    0.000000000   -0.000159912
    8          1           0.000016012    0.000000000    0.000020421
    9          7          -0.000051515    0.000000000   -0.000355875
 -------------------------------------------------------------------
 Cartesian Forces:  Max     0.000355875 RMS     0.000124446

 GradGradGradGradGradGradGradGradGradGradGradGradGradGradGradGradGradGrad
 Berny optimization.
 Internal  Forces:  Max     0.000292824 RMS     0.000093340
 Search for a local minimum.
 Step number   6 out of a maximum of  48
 All quantities printed in internal units (Hartrees-Bohrs-Radians)
 Update second derivatives using information from points  1  2  3  4  5
                                                        6
 Trust test= 8.99D-01 RLast= 7.27D-03 DXMaxT set to 5.85D-01
     Eigenvalues ---    0.03203   0.03248   0.03251   0.03273   0.03342
     Eigenvalues ---    0.03373   0.14795   0.15530   0.16011   0.16242
     Eigenvalues ---    0.26143   0.31341   0.46978   0.47289   0.49756
     Eigenvalues ---    0.49851   0.58228   0.59150   0.61041   0.72217
     Eigenvalues ---    0.769381000.000001000.000001000.000001000.00000
     Eigenvalues --- 1000.000001000.000001000.000001000.000001000.00000
     Eigenvalues --- 1000.000001000.000001000.000001000.000001000.00000
     Eigenvalues --- 1000.000001000.000001000.00000
 RFO step:  Lambda=-7.61058080D-07.
 Quartic linear search produced a step of -0.09010.
 Iteration  1 RMS(Cart)=  0.00031326 RMS(Int)=  0.00000007
 Iteration  2 RMS(Cart)=  0.00000006 RMS(Int)=  0.00000003
 Variable       Old X    -DE/DX   Delta X   Delta X   Delta X     New X
                                 (Linear)    (Quad)   (Total)
    R1        2.02246  -0.00001   0.00008  -0.00014  -0.00006   2.02240
    R2        2.57986   0.00017   0.00012   0.00010   0.00022   2.58007
    R3        2.53570  -0.00029   0.00001  -0.00040  -0.00039   2.53531
    R4        2.02099  -0.00008   0.00009  -0.00028  -0.00020   2.02080
    R5        2.67294   0.00003  -0.00010   0.00020   0.00009   2.67304
    R6        2.02396   0.00000   0.00008  -0.00012  -0.00003   2.02392
    R7        2.46323  -0.00012   0.00019  -0.00040  -0.00022   2.46302
    R8        2.51267   0.00013  -0.00020   0.00038   0.00018   2.51285
    R9        1.87455   0.00000   0.00007  -0.00009  -0.00003   1.87452
    A1        2.29591   0.00007   0.00016   0.00003   0.00019   2.29610
    A2        2.12595   0.00008   0.00007   0.00026   0.00033   2.12628
    A3        1.86132  -0.00014  -0.00024  -0.00028  -0.00052   1.86080
    A4        2.22996  -0.00007  -0.00020   0.00003  -0.00017   2.22978
    A5        1.81314   0.00017   0.00018   0.00052   0.00070   1.81384
    A6        2.24009  -0.00011   0.00002  -0.00055  -0.00053   2.23956
    A7        2.24018   0.00014   0.00016   0.00036   0.00052   2.24069
    A8        1.94756  -0.00022  -0.00013  -0.00064  -0.00077   1.94680
    A9        2.09544   0.00008  -0.00003   0.00028   0.00025   2.09569
   A10        1.83483   0.00013  -0.00002   0.00047   0.00045   1.83528
   A11        1.96792   0.00006   0.00020  -0.00007   0.00014   1.96805
   A12        2.23174  -0.00001  -0.00025   0.00041   0.00016   2.23190
   A13        2.08353  -0.00005   0.00004  -0.00034  -0.00030   2.08323
    D1        0.00000   0.00000   0.00000   0.00000   0.00000   0.00000
    D2        3.14159   0.00000   0.00000   0.00000   0.00000   3.14159
    D3        3.14159   0.00000   0.00000   0.00000   0.00000   3.14159
    D4        0.00000   0.00000   0.00000   0.00000   0.00000   0.00000
    D5        3.14159   0.00000   0.00000   0.00000   0.00000   3.14159
    D6        0.00000   0.00000   0.00000   0.00000   0.00000   0.00000
    D7        0.00000   0.00000   0.00000   0.00000   0.00000   0.00000
    D8        3.14159   0.00000   0.00000   0.00000   0.00000   3.14159
    D9        3.14159   0.00000   0.00000   0.00000   0.00000   3.14159
   D10        0.00000   0.00000   0.00000   0.00000   0.00000   0.00000
   D11        0.00000   0.00000   0.00000   0.00000   0.00000   0.00000
   D12        3.14159   0.00000   0.00000   0.00000   0.00000   3.14159
   D13        0.00000   0.00000   0.00000   0.00000   0.00000   0.00000
   D14        3.14159   0.00000   0.00000   0.00000   0.00000   3.14159
   D15        0.00000   0.00000   0.00000   0.00000   0.00000   0.00000
   D16        3.14159   0.00000   0.00000   0.00000   0.00000   3.14159
         Item               Value     Threshold  Converged?
 Maximum Force            0.000293     0.000450     YES
 RMS     Force            0.000093     0.000300     YES
 Maximum Displacement     0.000798     0.001800     YES
 RMS     Displacement     0.000313     0.001200     YES
 Predicted change in Energy=-4.338316D-07
 Optimization completed.
    -- Stationary point found.
                         ----------------------------
                         !   Optimized Parameters   !
                         ! (Angstroms and Degrees)  !
 ------------------------                            -------------------------
 ! Name  Definition              Value          Derivative Info.             !
 -----------------------------------------------------------------------------
 ! R1    R(1,2)                  1.0702         -DE/DX =    0.               !
 ! R2    R(2,4)                  1.3652         -DE/DX =    0.0002           !
 ! R3    R(2,9)                  1.3418         -DE/DX =   -0.0003           !
 ! R4    R(3,4)                  1.0695         -DE/DX =   -0.0001           !
 ! R5    R(4,6)                  1.4145         -DE/DX =    0.               !
 ! R6    R(5,6)                  1.071          -DE/DX =    0.               !
 ! R7    R(6,7)                  1.3035         -DE/DX =   -0.0001           !
 ! R8    R(7,9)                  1.3296         -DE/DX =    0.0001           !
 ! R9    R(8,9)                  0.992          -DE/DX =    0.               !
 ! A1    A(1,2,4)              131.5461         -DE/DX =    0.0001           !
 ! A2    A(1,2,9)              121.8079         -DE/DX =    0.0001           !
 ! A3    A(4,2,9)              106.6461         -DE/DX =   -0.0001           !
 ! A4    A(2,4,3)              127.7672         -DE/DX =   -0.0001           !
 ! A5    A(2,4,6)              103.8854         -DE/DX =    0.0002           !
[...]
                    19                     20                     21
                    A'                     A'                     A'
 Frequencies --  3429.5018              3448.3424              3935.9381
 Red. masses --     1.0962                 1.1084                 1.0829
 Frc consts  --     7.5962                 7.7656                 9.8844
 IR Inten    --     3.9208                 0.4150               123.6385
 Raman Activ --    24.3320               120.5587                78.4582
 Depolar     --     0.6899                 0.1511                 0.2216
 Atom AN      X      Y      Z        X      Y      Z        X      Y      Z
   1   1     0.70   0.29   0.00    -0.55  -0.24   0.00     0.01   0.00   0.00
   2   6    -0.06  -0.03   0.00     0.05   0.03   0.00     0.00   0.00   0.00
   3   1    -0.26   0.38   0.00    -0.42   0.63   0.00     0.00   0.00   0.00
   4   6     0.03  -0.03   0.00     0.04  -0.06   0.00     0.00   0.00   0.00
   5   1     0.31   0.33   0.00     0.16   0.17   0.00     0.00   0.00   0.00
   6   6    -0.03  -0.03   0.00    -0.02  -0.02   0.00     0.00   0.00   0.00
   7   7     0.00   0.00   0.00     0.00   0.00   0.00     0.00   0.00   0.00
   8   1    -0.01  -0.01   0.00     0.00   0.01   0.00    -0.05   1.00   0.00
   9   7     0.00   0.00   0.00     0.00   0.00   0.00     0.00  -0.08   0.00

 -------------------
 - Thermochemistry -
 -------------------
 Temperature   298.150 Kelvin.  Pressure   1.00000 Atm.
 Atom  1 has atomic number  1 and mass   1.00783
 Atom  2 has atomic number  6 and mass  12.00000
 Atom  3 has atomic number  1 and mass   1.00783
 Atom  4 has atomic number  6 and mass  12.00000
 Atom  5 has atomic number  1 and mass   1.00783
 Atom  6 has atomic number  6 and mass  12.00000
 Atom  7 has atomic number  7 and mass  14.00307
 Atom  8 has atomic number  1 and mass   1.00783
 Atom  9 has atomic number  7 and mass  14.00307
 Molecular mass:    68.03745 amu.
 Principal axes and moments of inertia in atomic units:
                           1         2         3
     EIGENVALUES --   183.18280 187.18978 370.37257
           X            0.94271   0.33361   0.00000
           Y           -0.33361   0.94271   0.00000
           Z            0.00000   0.00000   1.00000
 THIS MOLECULE IS AN ASYMMETRIC TOP.
 ROTATIONAL SYMMETRY NUMBER  1.
 ROTATIONAL TEMPERATURES (KELVIN)      0.47283     0.46270     0.23385
 ROTATIONAL CONSTANTS (GHZ)            9.85213     9.64124     4.87277
 Zero-point vibrational energy     201775.6 (Joules/Mol)
                                   48.22552 (Kcal/Mol)
 WARNING-- EXPLICIT CONSIDERATION OF   1 DEGREES OF FREEDOM AS
           VIBRATIONS MAY CAUSE SIGNIFICANT ERROR
 VIBRATIONAL TEMPERATURES:    833.42   986.37  1067.35  1223.34  1416.35
          (KELVIN)           1433.59  1461.04  1471.45  1622.84  1640.76
                             1765.07  1840.20  2018.04  2215.35  2222.30
                             2345.37  2497.22  4917.19  4934.26  4961.37
                             5662.90
 
 Zero-point correction=                           0.076852 (Hartree/Particle)
 Thermal correction to Energy=                    0.080373
 Thermal correction to Enthalpy=                  0.081317
 Thermal correction to Gibbs Free Energy=         0.050691
 Sum of electronic and zero-point Energies=           -224.734572
 Sum of electronic and thermal Energies=              -224.731051
 Sum of electronic and thermal Enthalpies=            -224.730107
 Sum of electronic and thermal Free Energies=         -224.760733
 
                     E (Thermal)             CV                S
                      KCAL/MOL        CAL/MOL-KELVIN    CAL/MOL-KELVIN
 TOTAL                   50.435             11.871             64.458
 ELECTRONIC               0.000              0.000              0.000
 TRANSLATIONAL            0.889              2.981             38.570
 ROTATIONAL               0.889              2.981             24.056
 VIBRATIONAL             48.657              5.910              1.832
 VIBRATION  1             0.936              1.076              0.487
                       Q            LOG10(Q)             LN(Q)
 TOTAL BOT       0.482815D-23        -23.316220        -53.687580
 TOTAL V=0       0.107926D+13         12.033128         27.707300
 VIB (BOT)       0.542558D-35        -35.265554        -81.201939
 VIB (BOT)  1    0.263263D+00         -0.579610         -1.334602
 VIB (V=0)       0.121281D+01          0.083793          0.192941
 VIB (V=0)  1    0.106507D+01          0.027379          0.063043
 ELECTRONIC      0.100000D+01          0.000000          0.000000
 TRANSLATIONAL   0.220588D+08          7.343582         16.909224
 ROTATIONAL      0.403415D+05          4.605752         10.605136
 ***** Axes restored to original set *****
 -------------------------------------------------------------------
 Center     Atomic                   Forces (Hartrees/Bohr)
 Number     Number              X              Y              Z
 -------------------------------------------------------------------
    1          1           0.000011404    0.000000000    0.000000170
    2          6          -0.000326083    0.000000000    0.000198952
    3          1          -0.000004203    0.000000000    0.000086078
    4          6           0.000014556    0.000000000    0.000130541
    5          1           0.000002772    0.000000000    0.000027205
    6          6           0.000294172    0.000000000    0.000052423
    7          7           0.000042890    0.000000000   -0.000159921
    8          1           0.000016004    0.000000000    0.000020422
    9          7          -0.000051511    0.000000000   -0.000355871
 -------------------------------------------------------------------
 Cartesian Forces:  Max     0.000355871 RMS     0.000124445

 GradGradGradGradGradGradGradGradGradGradGradGradGradGradGradGradGradGrad
 Berny optimization.
 Internal  Forces:  Max     0.000292817 RMS     0.000093340
 Search for a local minimum.
 Step number   1 out of a maximum of  48
 All quantities printed in internal units (Hartrees-Bohrs-Radians)
 Second derivative matrix not updated -- analytic derivatives used.
     Eigenvalues ---    0.00879   0.01455   0.02092   0.03381   0.06595
     Eigenvalues ---    0.07156   0.10971   0.12227   0.12914   0.13846
     Eigenvalues ---    0.25865   0.29248   0.39362   0.41011   0.41428
     Eigenvalues ---    0.41671   0.47015   0.47954   0.54989   0.57459
     Eigenvalues ---    0.675061000.000001000.000001000.000001000.00000
     Eigenvalues --- 1000.000001000.000001000.000001000.000001000.00000
     Eigenvalues --- 1000.000001000.000001000.000001000.000001000.00000
     Eigenvalues --- 1000.000001000.000001000.00000
 Angle between quadratic step and forces=  25.56 degrees.
 Linear search not attempted -- first point.
 Iteration  1 RMS(Cart)=  0.00025747 RMS(Int)=  0.00000004
 Iteration  2 RMS(Cart)=  0.00000005 RMS(Int)=  0.00000000
 Variable       Old X    -DE/DX   Delta X   Delta X   Delta X     New X
                                 (Linear)    (Quad)   (Total)
    R1        2.02246  -0.00001   0.00000  -0.00005  -0.00005   2.02240
    R2        2.57986   0.00017   0.00000   0.00033   0.00033   2.58018
    R3        2.53570  -0.00029   0.00000  -0.00052  -0.00052   2.53517
    R4        2.02099  -0.00008   0.00000  -0.00017  -0.00017   2.02082
    R5        2.67294   0.00003   0.00000   0.00000   0.00000   2.67294
    R6        2.02396   0.00000   0.00000  -0.00002  -0.00002   2.02394
    R7        2.46323  -0.00012   0.00000  -0.00006  -0.00006   2.46318
    R8        2.51267   0.00013   0.00000   0.00010   0.00010   2.51277
    R9        1.87455   0.00000   0.00000   0.00001   0.00001   1.87456
    A1        2.29591   0.00007   0.00000   0.00006   0.00006   2.29597
    A2        2.12595   0.00008   0.00000   0.00037   0.00037   2.12632
    A3        1.86132  -0.00014   0.00000  -0.00042  -0.00042   1.86090
    A4        2.22996  -0.00007   0.00000  -0.00013  -0.00013   2.22982
    A5        1.81314   0.00017   0.00000   0.00050   0.00050   1.81365
    A6        2.24009  -0.00011   0.00000  -0.00037  -0.00037   2.23971
    A7        2.24018   0.00014   0.00000   0.00051   0.00051   2.24069
    A8        1.94756  -0.00022   0.00000  -0.00058  -0.00058   1.94698
    A9        2.09544   0.00008   0.00000   0.00007   0.00007   2.09551
   A10        1.83483   0.00013   0.00000   0.00027   0.00027   1.83510
   A11        1.96792   0.00006   0.00000   0.00023   0.00023   1.96814
   A12        2.23174  -0.00001   0.00000   0.00019   0.00019   2.23193
   A13        2.08353  -0.00005   0.00000  -0.00041  -0.00041   2.08311
    D1        0.00000   0.00000   0.00000   0.00000   0.00000   0.00000
    D2        3.14159   0.00000   0.00000   0.00000   0.00000   3.14159
    D3        3.14159   0.00000   0.00000   0.00000   0.00000   3.14159
    D4        0.00000   0.00000   0.00000   0.00000   0.00000   0.00000
    D5        3.14159   0.00000   0.00000   0.00000   0.00000   3.14159
    D6        0.00000   0.00000   0.00000   0.00000   0.00000   0.00000
    D7        0.00000   0.00000   0.00000   0.00000   0.00000   0.00000
    D8        3.14159   0.00000   0.00000   0.00000   0.00000   3.14159
    D9        3.14159   0.00000   0.00000   0.00000   0.00000   3.14159
   D10        0.00000   0.00000   0.00000   0.00000   0.00000   0.00000
   D11        0.00000   0.00000   0.00000   0.00000   0.00000   0.00000
   D12        3.14159   0.00000   0.00000   0.00000   0.00000   3.14159
   D13        0.00000   0.00000   0.00000   0.00000   0.00000   0.00000
   D14        3.14159   0.00000   0.00000   0.00000   0.00000   3.14159
   D15        0.00000   0.00000   0.00000   0.00000   0.00000   0.00000
   D16        3.14159   0.00000   0.00000   0.00000   0.00000   3.14159
         Item               Value     Threshold  Converged?
 Maximum Force            0.000293     0.000450     YES
 RMS     Force            0.000093     0.000300     YES
 Maximum Displacement     0.000633     0.001800     YES
 RMS     Displacement     0.000257     0.001200     YES
 Predicted change in Energy=-3.753403D-07
 Optimization completed.
    -- Stationary point found.
                         ----------------------------
                         !   Optimized Parameters   !
                         ! (Angstroms and Degrees)  !
 ------------------------                            -------------------------
 ! Name  Definition              Value          Derivative Info.             !
 -----------------------------------------------------------------------------
 ! R1    R(1,2)                  1.0702         -DE/DX =    0.               !
 ! R2    R(2,4)                  1.3652         -DE/DX =    0.0002           !
 ! R3    R(2,9)                  1.3418         -DE/DX =   -0.0003           !
 ! R4    R(3,4)                  1.0695         -DE/DX =   -0.0001           !
 ! R5    R(4,6)                  1.4145         -DE/DX =    0.               !
 ! R6    R(5,6)                  1.071          -DE/DX =    0.               !
 ! R7    R(6,7)                  1.3035         -DE/DX =   -0.0001           !
 ! R8    R(7,9)                  1.3296         -DE/DX =    0.0001           !
 ! R9    R(8,9)                  0.992          -DE/DX =    0.               !
 ! A1    A(1,2,4)              131.5461         -DE/DX =    0.0001           !
 ! A2    A(1,2,9)              121.8079         -DE/DX =    0.0001           !
 ! A3    A(4,2,9)              106.6461         -DE/DX =   -0.0001           !
 ! A4    A(2,4,3)              127.7672         -DE/DX =   -0.0001           !
 ! A5    A(2,4,6)              103.8854         -DE/DX =    0.0002           !
 ! A6    A(3,4,6)              128.3475         -DE/DX =   -0.0001           !
 ! A7    A(4,6,5)              128.3528         -DE/DX =    0.0001           !
 ! A8    A(4,6,7)              111.5872         -DE/DX =   -0.0002           !
 ! A9    A(5,6,7)              120.06           -DE/DX =    0.0001           !
 ! A10   A(6,7,9)              105.128          -DE/DX =    0.0001           !
 ! A11   A(2,9,7)              112.7534         -DE/DX =    0.0001           !
 ! A12   A(2,9,8)              127.8694         -DE/DX =    0.               !
 ! A13   A(7,9,8)              119.3773         -DE/DX =   -0.0001           !
 ! D1    D(1,2,4,3)              0.             -DE/DX =    0.               !
 ! D2    D(1,2,4,6)            180.             -DE/DX =    0.               !
 ! D3    D(9,2,4,3)            180.             -DE/DX =    0.               !
 ! D4    D(9,2,4,6)              0.             -DE/DX =    0.               !
 ! D5    D(1,2,9,7)            180.             -DE/DX =    0.               !
 ! D6    D(1,2,9,8)              0.             -DE/DX =    0.               !
 ! D7    D(4,2,9,7)              0.             -DE/DX =    0.               !
 ! D8    D(4,2,9,8)            180.             -DE/DX =    0.               !
 ! D9    D(2,4,6,5)            180.             -DE/DX =    0.               !
 ! D10   D(2,4,6,7)              0.             -DE/DX =    0.               !
 ! D11   D(3,4,6,5)              0.             -DE/DX =    0.               !
 ! D12   D(3,4,6,7)            180.             -DE/DX =    0.               !
 ! D13   D(4,6,7,9)              0.             -DE/DX =    0.               !
 ! D14   D(5,6,7,9)            180.             -DE/DX =    0.               !
 ! D15   D(6,7,9,2)              0.             -DE/DX =    0.               !
 ! D16   D(6,7,9,8)            180.             -DE/DX =    0.               !
 -----------------------------------------------------------------------------
 GradGradGradGradGradGradGradGradGradGradGradGradGradGradGradGradGradGrad

 1\1\GINC-QUANTUM\Freq\RHF\6-31+G(d,p)\C3H4N2\RDJ3\03-Apr-2000\0\\#N GE
 OM=ALLCHECK GUESS=TCHECK RHF/6-31+G(D,P) FREQ\\1H pyrazole C3H4N2 casn
 o=288131\\0,1\H,-1.8736563988,0.,-1.1594682236\C,-0.9275048049,0.,-0.6
 592625692\H,0.6663377556,0.,-2.1611271444\C,0.3504911156,0.,-1.1393676
 891\H,2.2197236183,0.,0.0991046982\C,1.1511425866,0.,0.0266740175\N,0.
 4234170626,0.,1.1081059364\H,-1.5745576779,0.,1.3407389228\N,-0.835220
 017,0.,0.6793925194\\Version=IBM-RS6000-G98RevA.6\State=1-A'\HF=-224.8
 114244\RMSD=1.602e-09\RMSF=1.244e-04\Dipole=-0.8257046,0.,-0.5272878\D
 ipoleDeriv=-0.0056035,0.,-0.0454794,0.,0.2072242,0.,-0.0377318,0.,0.07
 91327,0.2850318,0.,-0.1940585,0.,-0.0760638,0.,-0.4170045,0.,0.3317441
 ,0.0925667,0.,0.0271094,0.,0.2189223,0.,0.0346495,0.,-0.034627,-0.4146
 579,0.,0.0026158,0.,-0.3076791,0.,-0.0598666,0.,-0.0446728,-0.0566202,
 0.,-0.0099663,0.,0.1630284,0.,-0.0340053,0.,0.0765184,0.301133,0.,0.13
 3648,0.,-0.0558522,0.,0.2914998,0.,0.305734,0.0376909,0.,-0.2685153,0.
 ,-0.2560241,0.,-0.1284921,0.,-0.6806813,0.2427617,0.,-0.0717274,0.,0.3
 483373,0.,-0.0539463,0.,0.251411,-0.4823025,0.,0.4263736,0.,-0.241893,
 0.,0.4048973,0.,-0.2845591\Polar=50.5387729,0.,29.9659548,-0.8248925,0
 .,48.1843111\PolarDeriv=-7.5209936,0.,-0.1213197,-3.0177217,0.,-1.9036
 565,0.,0.1516564,0.,0.,0.0300131,0.,-2.918181,0.,-0.2753708,-2.4289587
 ,0.,-2.2755018,-3.4465053,0.,-6.4831672,-3.4115025,0.,-5.2686847,0.,-4
 .6762131,0.,0.,-1.5772666,0.,-1.3949588,0.,0.3969924,3.0454821,0.,1.92
 42946,1.4020469,0.,-0.009794,-1.6819729,0.,1.935544,0.,-0.3648546,0.,0
 .,0.134344,0.,-1.3364401,0.,-0.1040031,2.1683414,0.,-8.6170583,3.09463
 39,0.,3.5652254,6.2880273,0.,5.4499038,0.,2.5206234,0.,0.,-3.5220957,0
 .,-2.6826723,0.,-4.6462535,2.9150613,0.,0.7156933,10.1241344,0.,0.2441
 286,0.5024704,0.,0.689796,0.,0.4910797,0.,0.,0.2366912,0.,0.4086758,0.
 ,-0.0866904,1.2957472,0.,-0.0272164,0.7695394,0.,4.8196901,-1.644002,0
 .,3.1215645,0.,3.4195734,0.,0.,-0.5821939,0.,0.442373,0.,0.4764048,-7.
 5108509,0.,-7.6718686,0.9318321,0.,-2.3855648,-1.7870131,0.,-2.2187024
 ,0.,-0.2963481,0.,0.,3.0668629,0.,1.9836836,0.,2.2652683,5.2665396,0.,
 13.694115,-4.9839634,0.,-0.5564202,2.9768451,0.,-2.7962764,0.,-0.34083
 4,0.,0.,0.0042455,0.,2.9261338,0.,0.4728521,-2.7942416,0.,4.025839,-0.
 3707244,0.,0.9272218,1.7748694,0.,0.9905117,0.,-0.9046832,0.,0.,2.2093
 995,0.,2.5713858,0.,1.5008002,-1.9571204,0.,-1.7682967\HyperPolar=-15.
 07058,0.,13.2239928,0.,2.5708462,0.,-58.8983897,18.3574775,0.,-20.3601
 778\PG=CS [SG(C3H4N2)]\NImag=0\\0.33560064,0.,0.02797059,0.14655883,0.
 ,0.13924065,-0.33135006,0.,-0.12357947,0.98313622,0.,-0.03917171,0.,0.
 ,0.15815835,-0.13468122,0.,-0.13895151,0.11242859,0.,0.73834721,0.0003
 4530,0.,-0.00106966,0.00366341,0.,0.03007032,0.08788958,0.,-0.00369947
 ,0.,0.,-0.00056166,0.,0.,0.02626275,0.00068531,0.,-0.00023870,-0.00272
 353,0.,0.00030730,-0.10159704,0.,0.38276154,-0.00786222,0.,0.00978607,
 -0.39861885,0.,0.07070777,-0.09871155,0.,0.09320909,0.70309601,0.,0.00
 470859,0.,0.,-0.08064625,0.,0.,-0.03292118,0.,0.,0.14169357,-0.0174316
 8,0.,0.01589234,0.11481527,0.,-0.17492898,0.09082721,0.,-0.36941629,-0
 .14732278,0.,0.92897136,-0.00022709,0.,0.00030156,-0.00094741,0.,-0.00
 140955,-0.00023895,0.,-0.00067554,-0.00463942,0.,0.00388982,0.40959627
 ,0.,0.00064558,0.,0.,0.00499227,0.,0.,-0.00196296,0.,0.,0.00288076,0.,
 0.,0.03132054,-0.00120421,0.,0.00123185,-0.00387088,0.,-0.00694909,0.0
 0111189,0.,0.00004725,-0.02433789,0.,0.00933952,0.02268667,0.,0.066065
 99,-0.00541309,0.,0.00523082,-0.05944919,0.,-0.00108754,0.01666521,0.,
 0.01358245,-0.20428755,0.,-0.10471947,-0.38753732,0.,-0.03684825,1.012
 67664,0.,0.00650495,0.,0.,0.01292007,0.,0.,-0.00235396,0.,0.,-0.080679
 47,0.,0.,-0.04216690,0.,0.,0.17562990,0.00150553,0.,-0.00166454,-0.083
 30283,0.,0.05919114,-0.01683047,0.,-0.00936869,-0.05739840,0.,-0.24962
 110,-0.02614998,0.,-0.07456869,-0.04962179,0.,0.70987341,0.00088683,0.
 ,0.00176549,-0.06953634,0.,-0.04968424,-0.00252314,0.,-0.00159704,0.04
 399309,0.,0.05119622,-0.01541044,0.,0.03369508,-0.23079161,0.,0.169704
 37,0.59776469,0.,0.00711941,0.,0.,0.01875543,0.,0.,0.00653324,0.,0.,0.
 02634807,0.,0.,-0.00765689,0.,0.,-0.08694169,0.,0.,0.12247338,0.002399
 52,0.,-0.00663872,-0.01992906,0.,-0.08578659,-0.00739398,0.,-0.0048643
 2,-0.04401643,0.,-0.08834160,-0.00167327,0.,0.00910087,0.14946998,0.,-
 0.39018269,-0.07082971,0.,0.69568860,-0.00029342,0.,0.00055040,0.01285
 138,0.,-0.00360747,0.00087144,0.,-0.00009691,0.00353699,0.,-0.00376823
 ,-0.00053202,0.,0.00157579,-0.00820637,0.,-0.00739855,-0.02100051,0.,0
 .03036775,0.34086208,0.,-0.00208631,0.,0.,-0.00816414,0.,0.,0.00249105
 ,0.,0.,0.00384083,0.,0.,0.00219805,0.,0.,0.00491028,0.,0.,-0.01351144,
 0.,0.,0.01445277,-0.00092181,0.,0.00016565,0.02930276,0.,-0.00484656,0
 .00134315,0.,0.00016278,-0.00294773,0.,-0.00799767,-0.00061624,0.,0.00
 107338,-0.00731328,0.,0.00158036,-0.01156416,0.,0.01989423,-0.23404844
 ,0.,0.28823370,0.00831310,0.,-0.03954404,-0.13974915,0.,-0.02273665,-0
 .00796130,0.,-0.00078679,-0.03650651,0.,0.01251364,-0.00006362,0.,0.00
 719180,-0.13365672,0.,0.06949214,-0.30338256,0.,-0.03839481,-0.3280895
 7,0.,0.22676575,0.94109633,0.,-0.00199163,0.,0.,-0.06628235,0.,0.,0.00
 621220,0.,0.,0.01477510,0.,0.,0.00974955,0.,0.,0.01217683,0.,0.,-0.073
 11951,0.,0.,-0.00413109,0.,0.,0.10261090,0.00308972,0.,-0.00903702,-0.
 02314083,0.,-0.38638292,0.00353859,0.,0.00060913,0.10232030,0.,-0.0638
 9758,0.00364653,0.,-0.00534107,0.03130709,0.,-0.04523921,-0.12268601,0
 .,-0.14886978,0.21642565,0.,-0.29826586,-0.21450104,0.,0.95642432\\-0.
 00001140,0.,-0.00000017,0.00032608,0.,-0.00019895,0.00000420,0.,-0.000
 08608,-0.00001456,0.,-0.00013054,-0.00000277,0.,-0.00002721,-0.0002941
 7,0.,-0.00005242,-0.00004289,0.,0.00015992,-0.00001600,0.,-0.00002042,
 0.00005151,0.,0.00035587\\\@


 EDUCATION IS NOT TRAINING BUT RATHER THE PROCESS THAT EQUIPS YOU TO
 ENTERTAIN YOURSELF, A FRIEND, OR AN IDEA.  -- WALLACE STERLING
 Job cpu time:  0 days  0 hours 11 minutes 34.5 seconds.
 File lengths (MBytes):  RWF=   21 Int=    0 D2E=    0 Chk=    3 Scr=    1
 Normal termination of Gaussian 98.
