 Entering Gaussian System, Link 0=g98
 Initial command:
 /usr/local/apps/g98a6/g98/l1.exe /wrk/rdj3/Gau-27174.inp -scrdir=/wrk/rdj3/
 Entering Link 1 = /usr/local/apps/g98a6/g98/l1.exe PID=     38386.
  
 Copyright (c) 1988,1990,1992,1993,1995,1998 Gaussian, Inc.
                  All Rights Reserved.
  
 This is part of the Gaussian(R) 98 program.  It is based on
 the Gaussian 94(TM) system (copyright 1995 Gaussian, Inc.),
 the Gaussian 92(TM) system (copyright 1992 Gaussian, Inc.),
 the Gaussian 90(TM) system (copyright 1990 Gaussian, Inc.),
 the Gaussian 88(TM) system (copyright 1988 Gaussian, Inc.),
 the Gaussian 86(TM) system (copyright 1986 Carnegie Mellon
 University), and the Gaussian 82(TM) system (copyright 1983
 Carnegie Mellon University). Gaussian is a federally registered
 trademark of Gaussian, Inc.
  
 This software contains proprietary and confidential information,
 including trade secrets, belonging to Gaussian, Inc.
  
 This software is provided under written license and may be
 used, copied, transmitted, or stored only in accord with that
 written license.
  
 The following legend is applicable only to US Government
 contracts under DFARS:
  
                    RESTRICTED RIGHTS LEGEND
  
 Use, duplication or disclosure by the US Government is subject
 to restrictions as set forth in subparagraph (c)(1)(ii) of the
 Rights in Technical Data and Computer Software clause at DFARS
 252.227-7013.
  
 Gaussian, Inc.
 Carnegie Office Park, Building 6, Pittsburgh, PA 15106 USA
  
 The following legend is applicable only to US Government
 contracts under FAR:
  
                    RESTRICTED RIGHTS LEGEND
  
 Use, reproduction and disclosure by the US Government is subject
 to restrictions as set forth in subparagraph (c) of the
 Commercial Computer Software - Restricted Rights clause at FAR
 52.227-19.
  
 Gaussian, Inc.
 Carnegie Office Park, Building 6, Pittsburgh, PA 15106 USA
  
  
 ---------------------------------------------------------------
 Warning -- This program may not be used in any manner that
 competes with the business of Gaussian, Inc. or will provide
 assistance to any competitor of Gaussian, Inc.  The licensee
 of this program is prohibited from giving any competitor of
 Gaussian, Inc. access to this program.  By using this program,
 the user acknowledges that Gaussian, Inc. is engaged in the
 business of creating and licensing software in the field of
 computational chemistry and represents and warrants to the
 licensee that it is not a competitor of Gaussian, Inc. and that
 it will not use this program in any manner prohibited above.
 ---------------------------------------------------------------
  

 Cite this work as:
 Gaussian 98, Revision A.6,
 M. J. Frisch, G. W. Trucks, H. B. Schlegel, G. E. Scuseria, 
 M. A. Robb, J. R. Cheeseman, V. G. Zakrzewski, J. A. Montgomery, Jr., 
 R. E. Stratmann, J. C. Burant, S. Dapprich, J. M. Millam, 
 A. D. Daniels, K. N. Kudin, M. C. Strain, O. Farkas, J. Tomasi, 
 V. Barone, M. Cossi, R. Cammi, B. Mennucci, C. Pomelli, C. Adamo, 
 S. Clifford, J. Ochterski, G. A. Petersson, P. Y. Ayala, Q. Cui, 
 K. Morokuma, D. K. Malick, A. D. Rabuck, K. Raghavachari, 
 J. B. Foresman, J. Cioslowski, J. V. Ortiz, B. B. Stefanov, G. Liu, 
 A. Liashenko, P. Piskorz, I. Komaromi, R. Gomperts, R. L. Martin, 
 D. J. Fox, T. Keith, M. A. Al-Laham, C. Y. Peng, A. Nanayakkara, 
 C. Gonzalez, M. Challacombe, P. M. W. Gill, B. Johnson, W. Chen, 
 M. W. Wong, J. L. Andres, C. Gonzalez, M. Head-Gordon, 
 E. S. Replogle, and J. A. Pople, 
 Gaussian, Inc., Pittsburgh PA, 1998.

 **********************************************
 Gaussian 98:  IBM-RS6000-G98RevA.6 19-Oct-1998
                  20-Mar-2000 
 **********************************************
 %mem=24000000
 --------------------
 #HF/cc-pVDZ opt freq
 --------------------
 1/18=20,38=1/1,3;
 2/9=110,17=6,18=5/2;
 3/5=16,11=9,25=1,30=1/1,2,3;
 4//1;
 5/5=2,38=4/2;
 6/7=2,8=2,9=2,10=2,28=1/1;
 7//1,2,3,16;
 1/18=20/3(1);
 99//99;
 2/9=110/2;
 3/5=16,11=9,25=1,30=1/1,2,3;
 4/5=5,16=2/1;
 5/5=2,38=4/2;
 7//1,2,3,16;
 1/18=20/3(-5);
 2/9=110/2;
 6/7=2,8=2,9=2,10=2,19=2,28=1/1;
 99/9=1/99;
 -------------------------------
 1H pyrazole C3H4N2 casno=288131
 -------------------------------
 Symbolic Z-matrix:
 Charge =  0 Multiplicity = 1
 H                    -1.9125    0.       -0.75938 
 C                    -1.08438   0.       -0.21875 
 H                     0.43438   0.       -1.63125 
 C                     0.15      0.       -0.68438 
 H                     1.9125    0.        0.37188 
 C                     0.92188   0.        0.375 
 N                     0.18125   0.        1.41875 
 H                    -1.74063   0.        1.63125 
 N                    -1.00313   0.        1.05313 

 GradGradGradGradGradGradGradGradGradGradGradGradGradGradGradGradGradGrad
 Berny optimization.
 Initialization pass.
                         ----------------------------
                         !    Initial Parameters    !
                         ! (Angstroms and Degrees)  !
 ------------------------                            -------------------------
 ! Name  Definition              Value          Derivative Info.             !
 -----------------------------------------------------------------------------
 ! R1    R(1,2)                  0.989          estimate D2E/DX2             !
 ! R2    R(2,4)                  1.3193         estimate D2E/DX2             !
 ! R3    R(2,9)                  1.2745         estimate D2E/DX2             !
 ! R4    R(3,4)                  0.9887         estimate D2E/DX2             !
 ! R5    R(4,6)                  1.3108         estimate D2E/DX2             !
 ! R6    R(5,6)                  0.9906         estimate D2E/DX2             !
 ! R7    R(6,7)                  1.2798         estimate D2E/DX2             !
 ! R8    R(7,9)                  1.2395         estimate D2E/DX2             !
 ! R9    R(8,9)                  0.9371         estimate D2E/DX2             !
 ! A1    A(1,2,4)              126.195          estimate D2E/DX2             !
 ! A2    A(1,2,9)              126.7929         estimate D2E/DX2             !
 ! A3    A(4,2,9)              107.012          estimate D2E/DX2             !
 ! A4    A(2,4,3)              127.3838         estimate D2E/DX2             !
 ! A5    A(2,4,6)              105.4104         estimate D2E/DX2             !
 ! A6    A(3,4,6)              127.2058         estimate D2E/DX2             !
 ! A7    A(4,6,5)              125.8968         estimate D2E/DX2             !
 ! A8    A(4,6,7)              108.5636         estimate D2E/DX2             !
 ! A9    A(5,6,7)              125.5395         estimate D2E/DX2             !
 ! A10   A(6,7,9)              108.203          estimate D2E/DX2             !
 ! A11   A(2,9,7)              110.811          estimate D2E/DX2             !
 ! A12   A(2,9,8)              124.4376         estimate D2E/DX2             !
 ! A13   A(7,9,8)              124.7513         estimate D2E/DX2             !
 ! D1    D(1,2,4,3)              0.             estimate D2E/DX2             !
 ! D2    D(1,2,4,6)            180.             estimate D2E/DX2             !
 ! D3    D(9,2,4,3)            180.             estimate D2E/DX2             !
 ! D4    D(9,2,4,6)              0.             estimate D2E/DX2             !
 ! D5    D(1,2,9,7)            180.             estimate D2E/DX2             !
 ! D6    D(1,2,9,8)              0.             estimate D2E/DX2             !
 ! D7    D(4,2,9,7)              0.             estimate D2E/DX2             !
 ! D8    D(4,2,9,8)            180.             estimate D2E/DX2             !
 ! D9    D(2,4,6,5)            180.             estimate D2E/DX2             !
 ! D10   D(2,4,6,7)              0.             estimate D2E/DX2             !
 ! D11   D(3,4,6,5)              0.             estimate D2E/DX2             !
 ! D12   D(3,4,6,7)            180.             estimate D2E/DX2             !
 ! D13   D(4,6,7,9)              0.             estimate D2E/DX2             !
 ! D14   D(5,6,7,9)            180.             estimate D2E/DX2             !
 ! D15   D(6,7,9,2)              0.             estimate D2E/DX2             !
 ! D16   D(6,7,9,8)            180.             estimate D2E/DX2             !
 -----------------------------------------------------------------------------
 Trust Radius=3.00D-01 FncErr=1.00D-07 GrdErr=1.00D-07
 Number of steps in this run=  48 maximum allowed number of steps= 100.
 GradGradGradGradGradGradGradGradGradGradGradGradGradGradGradGradGradGrad

                          Input orientation:                          
 ---------------------------------------------------------------------
 Center     Atomic     Atomic              Coordinates (Angstroms)
 Number     Number      Type              X           Y           Z
 ---------------------------------------------------------------------
    1          1             0       -1.912500    0.000000   -0.759375
    2          6             0       -1.084375    0.000000   -0.218750
    3          1             0        0.434375    0.000000   -1.631250
    4          6             0        0.150000    0.000000   -0.684375
    5          1             0        1.912500    0.000000    0.371875
    6          6             0        0.921875    0.000000    0.375000
    7          7             0        0.181250    0.000000    1.418750
    8          1             0       -1.740625    0.000000    1.631250
    9          7             0       -1.003125    0.000000    1.053125
 ---------------------------------------------------------------------
                    Distance matrix (angstroms):
                    1          2          3          4          5
     1  H    0.000000
     2  C    0.988972   0.000000
     3  H    2.503595   2.074068   0.000000
     4  C    2.063863   1.319276   0.988656   0.000000
     5  H    3.988778   3.054521   2.489450   2.054768   0.000000
     6  C    3.052947   2.092266   2.064630   1.310750   0.990630
     7  N    3.021261   2.069592   3.060486   2.103357   2.023159
     8  H    2.396796   1.962948   3.921037   2.989412   3.864110
     9  N    2.027836   1.274468   3.045041   2.085331   2.994156
                    6          7          8          9
     6  C    0.000000
     7  N    1.279820   0.000000
     8  H    2.943989   1.933587   0.000000
     9  N    2.040950   1.239526   0.937088   0.000000
 Stoichiometry    C3H4N2
 Framework group  CS[SG(C3H4N2)]
 Deg. of freedom   15
 Full point group                 CS      NOp   2
 Largest Abelian subgroup         CS      NOp   2
 Largest concise Abelian subgroup C1      NOp   1
                         Standard orientation:                         
 ---------------------------------------------------------------------
 Center     Atomic     Atomic              Coordinates (Angstroms)
 Number     Number      Type              X           Y           Z
 ---------------------------------------------------------------------
    1          1             0        1.974407    0.585689    0.000000
    2          6             0        1.028833    0.295936    0.000000
    3          1             0        1.140941   -1.775099    0.000000
    4          6             0        0.595873   -0.950271    0.000000
    5          1             0       -1.344123   -1.627388    0.000000
    6          6             0       -0.712074   -0.864589    0.000000
    7          7             0       -1.039336    0.372682    0.000000
    8          1             0        0.028336    1.984773    0.000000
    9          7             0        0.000000    1.048113    0.000000
 ---------------------------------------------------------------------
 Rotational constants (GHZ):     11.1878032     10.4520048      5.4036973
 Isotopes: H-1,C-12,H-1,C-12,H-1,C-12,N-14,H-1,N-14
 Standard basis: CC-pVDZ (5D, 7F)
 There are    66 symmetry adapted basis functions of A'  symmetry.
 There are    24 symmetry adapted basis functions of A"  symmetry.
 Crude estimate of integral set expansion from redundant integrals=1.000.
 Integral buffers will be    262144 words long.
 Raffenetti 1 integral format.
 Two-electron integral symmetry is turned on.
    90 basis functions      203 primitive gaussians
    18 alpha electrons       18 beta electrons
       nuclear repulsion energy       173.7391879471 Hartrees.
 One-electron integrals computed using PRISM.
 NBasis=    90 RedAO= T  NBF=    66    24
 NBsUse=    90 1.00D-04 NBFU=    66    24
 Projected INDO Guess.
 Initial guess orbital symmetries:
       Occupied  (A') (A') (A') (A') (A') (A') (A') (A') (A') (A')
                 (A') (A") (A') (A') (A') (A") (A') (A")
       Virtual   (A") (A') (A') (A") (A') (A') (A') (A') (A') (A')
                 (A') (A') (A') (A') (A') (A') (A') (A') (A') (A')
                 (A') (A') (A') (A') (A') (A') (A') (A') (A') (A')
                 (A') (A') (A') (A') (A') (A') (A') (A') (A') (A')
                 (A') (A') (A') (A') (A') (A') (A') (A') (A') (A')
                 (A') (A') (A') (A") (A") (A") (A") (A") (A") (A")
                 (A") (A") (A") (A") (A") (A") (A") (A") (A") (A")
                 (A") (A")
 Requested convergence on RMS density matrix=1.00D-08 within  64 cycles.
 Requested convergence on MAX density matrix=1.00D-06.
 Keep R1 integrals in memory in canonical form, NReq=    10871361.
 SCF Done:  E(RHF) =  -224.757283144     A.U. after   14 cycles
             Convg  =    0.3388D-08             -V/T =  1.9927
             S**2   =   0.0000

 **********************************************************************

            Population analysis using the SCF density.

 **********************************************************************

 Orbital Symmetries:
       Occupied  (A') (A') (A') (A') (A') (A') (A') (A') (A') (A')
                 (A') (A') (A") (A') (A') (A') (A") (A")
       Virtual   (A') (A") (A') (A') (A") (A') (A') (A') (A') (A')
                 (A') (A") (A') (A") (A') (A') (A') (A") (A') (A')
                 (A') (A') (A") (A') (A') (A') (A') (A") (A") (A')
                 (A') (A") (A') (A") (A') (A") (A') (A") (A') (A')
                 (A') (A") (A') (A') (A') (A") (A') (A") (A') (A")
                 (A") (A') (A') (A") (A') (A') (A') (A') (A") (A')
                 (A') (A") (A') (A") (A') (A') (A') (A') (A') (A')
                 (A') (A')
  The electronic state is 1-A'.
 Alpha  occ. eigenvalues --  -15.63564 -15.55726 -11.23688 -11.21397 -11.18105
 Alpha  occ. eigenvalues --   -1.45478  -1.12905  -1.08311  -0.86577  -0.83306
 Alpha  occ. eigenvalues --   -0.77229  -0.65191  -0.64999  -0.60815  -0.56586
 Alpha  occ. eigenvalues --   -0.43828  -0.37398  -0.34155
 Alpha virt. eigenvalues --    0.18566   0.20556   0.22625   0.23661   0.26389
 Alpha virt. eigenvalues --    0.26515   0.40925   0.42585   0.45171   0.50254
 Alpha virt. eigenvalues --    0.64518   0.67054   0.68102   0.73252   0.74496
 Alpha virt. eigenvalues --    0.76591   0.78781   0.81743   0.85898   0.91385
 Alpha virt. eigenvalues --    0.95227   0.96622   1.00937   1.01409   1.05491
 Alpha virt. eigenvalues --    1.06876   1.11018   1.11405   1.13106   1.23016
 Alpha virt. eigenvalues --    1.27757   1.29009   1.36868   1.38295   1.38531
 Alpha virt. eigenvalues --    1.42688   1.55436   1.60278   1.63233   1.73568
 Alpha virt. eigenvalues --    1.79646   1.84432   1.85371   1.89481   1.95324
 Alpha virt. eigenvalues --    1.95892   2.02236   2.11595   2.13807   2.17028
 Alpha virt. eigenvalues --    2.24185   2.26244   2.29325   2.29991   2.34998
 Alpha virt. eigenvalues --    2.36300   2.51808   2.53436   2.73017   2.74702
 Alpha virt. eigenvalues --    2.80162   2.87665   2.95249   3.00064   3.10199
 Alpha virt. eigenvalues --    3.18773   3.23213   3.31432   3.39749   3.46360
 Alpha virt. eigenvalues --    3.87876   4.10535
          Condensed to atoms (all electrons):
              1          2          3          4          5          6
  1  H    0.650430   0.417831  -0.004007  -0.023322  -0.000400   0.002975
  2  C    0.417831   4.714210  -0.043412   0.559324   0.010612  -0.067394
  3  H   -0.004007  -0.043412   0.691043   0.434937  -0.006725  -0.036666
  4  C   -0.023322   0.559324   0.434937   4.755406  -0.044604   0.568872
  5  H   -0.000400   0.010612  -0.006725  -0.044604   0.656774   0.432451
  6  C    0.002975  -0.067394  -0.036666   0.568872   0.432451   4.475274
  7  N    0.004715  -0.207805   0.010803  -0.033352  -0.018521   0.607071
  8  H   -0.005062  -0.032923  -0.000203   0.008470  -0.000281   0.004406
  9  N   -0.024667   0.471241   0.004808  -0.055896   0.001596  -0.183137
              7          8          9
  1  H    0.004715  -0.005062  -0.024667
  2  C   -0.207805  -0.032923   0.471241
  3  H    0.010803  -0.000203   0.004808
  4  C   -0.033352   0.008470  -0.055896
  5  H   -0.018521  -0.000281   0.001596
  6  C    0.607071   0.004406  -0.183137
  7  N    6.501121  -0.036617   0.411787
  8  H   -0.036617   0.555672   0.426579
  9  N    0.411787   0.426579   5.893095
 Total atomic charges:
              1
  1  H   -0.018495
  2  C    0.178316
  3  H   -0.050579
  4  C   -0.169835
  5  H   -0.030903
  6  C    0.196147
  7  N   -0.239203
  8  H    0.079958
  9  N    0.054594
 Sum of Mulliken charges=   0.00000
 Atomic charges with hydrogens summed into heavy atoms:
              1
  1  H    0.000000
  2  C    0.159821
  3  H    0.000000
  4  C   -0.220414
  5  H    0.000000
  6  C    0.165244
  7  N   -0.239203
  8  H    0.000000
  9  N    0.134552
 Sum of Mulliken charges=   0.00000
 Electronic spatial extent (au):  <R**2>=   258.7844
 Charge=     0.0000 electrons
 Dipole moment (Debye):
    X=     2.0923    Y=     1.0073    Z=     0.0000  Tot=     2.3222
 Quadrupole moment (Debye-Ang):
   XX=   -29.7789   YY=   -21.9827   ZZ=   -30.8634
   XY=     2.6150   XZ=     0.0000   YZ=     0.0000
 Octapole moment (Debye-Ang**2):
  XXX=     8.0865  YYY=    11.4542  ZZZ=     0.0000  XYY=     0.2100
  XXY=    -1.9756  XXZ=     0.0000  XZZ=    -0.9070  YZZ=     2.2937
  YYZ=     0.0000  XYZ=     0.0000
 Hexadecapole moment (Debye-Ang**3):
 XXXX=  -150.9086 YYYY=  -121.3767 ZZZZ=   -31.0906 XXXY=     6.8297
 XXXZ=     0.0000 YYYX=     0.5064 YYYZ=     0.0000 ZZZX=     0.0000
 ZZZY=     0.0000 XXYY=   -47.3994 XXZZ=   -32.7588 YYZZ=   -32.6228
 XXYZ=     0.0000 YYXZ=     0.0000 ZZXY=    -0.1745
 N-N= 1.737391879471D+02 E-N=-8.742125364256D+02  KE= 2.264047784388D+02
 Symmetry A'   KE= 2.184682817757D+02
 Symmetry A"   KE= 7.936496663030D+00
 ***** Axes restored to original set *****
 -------------------------------------------------------------------
 Center     Atomic                   Forces (Hartrees/Bohr)
 Number     Number              X              Y              Z
 -------------------------------------------------------------------
    1          1          -0.079924286    0.000000000   -0.039220905
    2          6          -0.005556205    0.000000000   -0.042347538
    3          1           0.022567126    0.000000000   -0.085588113
    4          6          -0.021793288    0.000000000   -0.042732439
    5          1           0.086007190    0.000000000    0.012594470
    6          6          -0.008534802    0.000000000    0.039970290
    7          7           0.086323434    0.000000000    0.117109388
    8          1          -0.050147884    0.000000000    0.054482971
    9          7          -0.028941285    0.000000000   -0.014268125
 -------------------------------------------------------------------
 Cartesian Forces:  Max     0.117109388 RMS     0.045867367

 GradGradGradGradGradGradGradGradGradGradGradGradGradGradGradGradGradGrad
 Berny optimization.
 Internal  Forces:  Max     0.130150910 RMS     0.045131575
 Search for a local minimum.
 Step number   1 out of a maximum of  48
 All quantities printed in internal units (Hartrees-Bohrs-Radians)
 Second derivative matrix not updated -- first step.
     Eigenvalues ---    0.03204   0.03245   0.03263   0.03273   0.03342
     Eigenvalues ---    0.03375   0.16000   0.16000   0.16000   0.16000
     Eigenvalues ---    0.22000   0.22938   0.49374   0.49681   0.49740
     Eigenvalues ---    0.56490   0.56686   0.60708   0.68179   0.73042
     Eigenvalues ---    0.827791000.000001000.000001000.000001000.00000
     Eigenvalues --- 1000.000001000.000001000.000001000.000001000.00000
     Eigenvalues --- 1000.000001000.000001000.000001000.000001000.00000
     Eigenvalues --- 1000.000001000.000001000.00000
 RFO step:  Lambda=-1.09854196D-01.
 Linear search not attempted -- first point.
 Maximum step size (   0.300) exceeded in Quadratic search.
    -- Step size scaled by   0.731
 Iteration  1 RMS(Cart)=  0.06324075 RMS(Int)=  0.00083624
 Iteration  2 RMS(Cart)=  0.00107624 RMS(Int)=  0.00005862
 Iteration  3 RMS(Cart)=  0.00000093 RMS(Int)=  0.00005862
 Variable       Old X    -DE/DX   Delta X   Delta X   Delta X     New X
                                 (Linear)    (Quad)   (Total)
    R1        1.86889   0.08837   0.00000   0.10650   0.10650   1.97539
    R2        2.49307   0.07027   0.00000   0.06982   0.06992   2.56298
    R3        2.40839   0.09926   0.00000   0.08587   0.08585   2.49425
    R4        1.86829   0.08846   0.00000   0.10651   0.10651   1.97480
    R5        2.47696   0.13015   0.00000   0.12468   0.12474   2.60170
    R6        1.87202   0.08597   0.00000   0.10413   0.10413   1.97615
    R7        2.41851   0.05355   0.00000   0.04605   0.04600   2.46451
    R8        2.34237   0.10871   0.00000   0.08199   0.08188   2.42425
    R9        1.77084   0.07308   0.00000   0.07453   0.07453   1.84537
    A1        2.20252   0.01539   0.00000   0.03861   0.03857   2.24109
    A2        2.21295  -0.00488   0.00000  -0.01632  -0.01637   2.19659
    A3        1.86771  -0.01051   0.00000  -0.02229  -0.02220   1.84551
    A4        2.22327  -0.00032   0.00000   0.00057   0.00048   2.22375
    A5        1.83976  -0.00497   0.00000  -0.01635  -0.01618   1.82358
    A6        2.22016   0.00529   0.00000   0.01578   0.01570   2.23586
    A7        2.19731   0.00260   0.00000   0.01438   0.01437   2.21169
    A8        1.89479   0.01888   0.00000   0.03649   0.03652   1.93131
    A9        2.19108  -0.02148   0.00000  -0.05087  -0.05089   2.14019
   A10        1.88850  -0.02341   0.00000  -0.04662  -0.04681   1.84169
   A11        1.93402   0.02002   0.00000   0.04877   0.04868   1.98270
   A12        2.17185   0.00056   0.00000   0.00426   0.00430   2.17615
   A13        2.17732  -0.02058   0.00000  -0.05303  -0.05299   2.12434
    D1        0.00000   0.00000   0.00000   0.00000   0.00000   0.00000
    D2        3.14159   0.00000   0.00000   0.00000   0.00000   3.14159
    D3        3.14159   0.00000   0.00000   0.00000   0.00000   3.14159
    D4        0.00000   0.00000   0.00000   0.00000   0.00000   0.00000
    D5        3.14159   0.00000   0.00000   0.00000   0.00000   3.14159
    D6        0.00000   0.00000   0.00000   0.00000   0.00000   0.00000
    D7        0.00000   0.00000   0.00000   0.00000   0.00000   0.00000
    D8        3.14159   0.00000   0.00000   0.00000   0.00000   3.14159
    D9        3.14159   0.00000   0.00000   0.00000   0.00000   3.14159
   D10        0.00000   0.00000   0.00000   0.00000   0.00000   0.00000
   D11        0.00000   0.00000   0.00000   0.00000   0.00000   0.00000
   D12        3.14159   0.00000   0.00000   0.00000   0.00000   3.14159
   D13        0.00000   0.00000   0.00000   0.00000   0.00000   0.00000
   D14        3.14159   0.00000   0.00000   0.00000   0.00000   3.14159
   D15        0.00000   0.00000   0.00000   0.00000   0.00000   0.00000
   D16        3.14159   0.00000   0.00000   0.00000   0.00000   3.14159
         Item               Value     Threshold  Converged?
 Maximum Force            0.130151     0.000450     NO 
 RMS     Force            0.045132     0.000300     NO 
 Maximum Displacement     0.188076     0.001800     NO 
 RMS     Displacement     0.063233     0.001200     NO 
 Predicted change in Energy=-2.441871D-02
 GradGradGradGradGradGradGradGradGradGradGradGradGradGradGradGradGradGrad

                          Input orientation:                          
 ---------------------------------------------------------------------
 Center     Atomic     Atomic              Coordinates (Angstroms)
 Number     Number      Type              X           Y           Z
 ---------------------------------------------------------------------
    1          1             0       -1.813848    0.000000   -1.172500
    2          6             0       -0.918193    0.000000   -0.633506
    3          1             0        0.654737    0.000000   -2.109852
    4          6             0        0.351725    0.000000   -1.109727
    5          1             0        2.187464    0.000000    0.048180
    6          6             0        1.142179    0.000000    0.017507
    7          7             0        0.407159    0.000000    1.094813
    8          1             0       -1.560880    0.000000    1.302886
    9          7             0       -0.807373    0.000000    0.681731
 ---------------------------------------------------------------------
                    Distance matrix (angstroms):
                    1          2          3          4          5
     1  H    0.000000
     2  C    1.045329   0.000000
     3  H    2.640558   2.157245   0.000000
     4  C    2.166483   1.356273   1.045020   0.000000
     5  H    4.183367   3.179591   2.646952   2.170412   0.000000
     6  C    3.186567   2.160775   2.182489   1.376762   1.045735
     7  N    3.173890   2.177991   3.214215   2.205237   2.065170
     8  H    2.488279   2.040260   4.068875   3.078759   3.952767
     9  N    2.109779   1.319898   3.151302   2.133737   3.061117
                    6          7          8          9
     6  C    0.000000
     7  N    1.304164   0.000000
     8  H    2.993113   1.979007   0.000000
     9  N    2.059599   1.282858   0.976527   0.000000
 Stoichiometry    C3H4N2
 Framework group  CS[SG(C3H4N2)]
 Deg. of freedom   15
 Full point group                 CS      NOp   2
 Largest Abelian subgroup         CS      NOp   2
 Largest concise Abelian subgroup C1      NOp   1
                         Standard orientation:                         
 ---------------------------------------------------------------------
 Center     Atomic     Atomic              Coordinates (Angstroms)
 Number     Number      Type              X           Y           Z
 ---------------------------------------------------------------------
    1          1             0        2.068196    0.639761    0.000000
    2          6             0        1.080256    0.298166    0.000000
    3          1             0        1.204373   -1.855506    0.000000
    4          6             0        0.631287   -0.981640    0.000000
    5          1             0       -1.434407   -1.647669    0.000000
    6          6             0       -0.740549   -0.865285    0.000000
    7          7             0       -1.095817    0.389556    0.000000
    8          1             0        0.006594    2.033077    0.000000
    9          7             0        0.000000    1.056572    0.000000
 ---------------------------------------------------------------------
 Rotational constants (GHZ):     10.1701270     10.0209052      5.0474823
 Isotopes: H-1,C-12,H-1,C-12,H-1,C-12,N-14,H-1,N-14
 Standard basis: CC-pVDZ (5D, 7F)
 There are    66 symmetry adapted basis functions of A'  symmetry.
 There are    24 symmetry adapted basis functions of A"  symmetry.
 Crude estimate of integral set expansion from redundant integrals=1.000.
 Integral buffers will be    262144 words long.
 Raffenetti 1 integral format.
 Two-electron integral symmetry is turned on.
    90 basis functions      203 primitive gaussians
    18 alpha electrons       18 beta electrons
       nuclear repulsion energy       167.8163138722 Hartrees.
 One-electron integrals computed using PRISM.
 NBasis=    90 RedAO= T  NBF=    66    24
 NBsUse=    90 1.00D-04 NBFU=    66    24
 Initial guess read from the read-write file:
 Initial guess orbital symmetries:
       Occupied  (A') (A') (A') (A') (A') (A') (A') (A') (A') (A')
                 (A') (A') (A") (A') (A') (A') (A") (A")
       Virtual   (A') (A") (A') (A') (A") (A') (A') (A') (A') (A')
                 (A') (A") (A') (A") (A') (A') (A') (A") (A') (A')
                 (A') (A') (A") (A') (A') (A') (A') (A") (A") (A')
                 (A') (A") (A') (A") (A') (A") (A') (A") (A') (A')
                 (A') (A") (A') (A') (A') (A") (A') (A") (A') (A")
                 (A") (A') (A') (A") (A') (A') (A') (A') (A") (A')
                 (A') (A") (A') (A") (A') (A') (A') (A') (A') (A')
                 (A') (A')
 Requested convergence on RMS density matrix=1.00D-08 within  64 cycles.
 Requested convergence on MAX density matrix=1.00D-06.
 Keep R1 integrals in memory in canonical form, NReq=    10871361.
 SCF Done:  E(RHF) =  -224.808110363     A.U. after   13 cycles
             Convg  =    0.5697D-08             -V/T =  1.9979
             S**2   =   0.0000
 ***** Axes restored to original set *****
 -------------------------------------------------------------------
 Center     Atomic                   Forces (Hartrees/Bohr)
 Number     Number              X              Y              Z
 -------------------------------------------------------------------
    1          1          -0.026878812    0.000000000   -0.006931932
    2          6           0.012160030    0.000000000   -0.015339833
    3          1           0.007444621    0.000000000   -0.025901559
    4          6          -0.008439176    0.000000000   -0.010500752
    5          1           0.026944343    0.000000000    0.006704462
    6          6          -0.004942580    0.000000000    0.012177771
    7          7           0.039098960    0.000000000    0.028129708
    8          1          -0.012977928    0.000000000    0.018758132
    9          7          -0.032409457    0.000000000   -0.007095997
 -------------------------------------------------------------------
 Cartesian Forces:  Max     0.039098960 RMS     0.016039536

 GradGradGradGradGradGradGradGradGradGradGradGradGradGradGradGradGradGrad
 Berny optimization.
 Internal  Forces:  Max     0.043104436 RMS     0.014035580
 Search for a local minimum.
 Step number   2 out of a maximum of  48
 All quantities printed in internal units (Hartrees-Bohrs-Radians)
 Update second derivatives using information from points  1  2
 Trust test= 2.08D+00 RLast= 3.00D-01 DXMaxT set to 4.24D-01
     Eigenvalues ---    0.03204   0.03248   0.03259   0.03273   0.03343
     Eigenvalues ---    0.03374   0.15883   0.16000   0.16000   0.16043
     Eigenvalues ---    0.21997   0.24027   0.49448   0.49711   0.51646
     Eigenvalues ---    0.57082   0.58435   0.61622   0.68277   0.76476
     Eigenvalues ---    0.808641000.000001000.000001000.000001000.00000
     Eigenvalues --- 1000.000001000.000001000.000001000.000001000.00000
     Eigenvalues --- 1000.000001000.000001000.000001000.000001000.00000
     Eigenvalues --- 1000.000001000.000001000.00000
 RFO step:  Lambda=-2.95675821D-03.
 Quartic linear search produced a step of  0.53209.
 Iteration  1 RMS(Cart)=  0.04382837 RMS(Int)=  0.00102702
 Iteration  2 RMS(Cart)=  0.00114954 RMS(Int)=  0.00004557
 Iteration  3 RMS(Cart)=  0.00000149 RMS(Int)=  0.00004556
 Iteration  4 RMS(Cart)=  0.00000000 RMS(Int)=  0.00004556
 Variable       Old X    -DE/DX   Delta X   Delta X   Delta X     New X
                                 (Linear)    (Quad)   (Total)
    R1        1.97539   0.02660   0.05667   0.00513   0.06180   2.03718
    R2        2.56298   0.02051   0.03720  -0.00105   0.03623   2.59922
    R3        2.49425   0.02694   0.04568  -0.00384   0.04186   2.53611
    R4        1.97480   0.02695   0.05667   0.00608   0.06275   2.03755
    R5        2.60170   0.03757   0.06638  -0.00318   0.06321   2.66491
    R6        1.97615   0.02713   0.05541   0.00894   0.06435   2.04050
    R7        2.46451   0.01076   0.02448  -0.01073   0.01368   2.47819
    R8        2.42425   0.04310   0.04357   0.01968   0.06319   2.48744
    R9        1.84537   0.02195   0.03966   0.00191   0.04157   1.88694
    A1        2.24109   0.00722   0.02052   0.03946   0.05992   2.30101
    A2        2.19659  -0.00842  -0.00871  -0.06581  -0.07458   2.12201
    A3        1.84551   0.00120  -0.01181   0.02635   0.01465   1.86016
    A4        2.22375  -0.00007   0.00026   0.00518   0.00538   2.22913
    A5        1.82358  -0.00062  -0.00861  -0.00594  -0.01444   1.80914
    A6        2.23586   0.00069   0.00835   0.00076   0.00906   2.24492
    A7        2.21169   0.00368   0.00765   0.03395   0.04161   2.25330
    A8        1.93131   0.00433   0.01943  -0.00774   0.01165   1.94296
    A9        2.14019  -0.00800  -0.02708  -0.02621  -0.05327   2.08693
   A10        1.84169  -0.00263  -0.02491   0.02642   0.00135   1.84304
   A11        1.98270  -0.00227   0.02590  -0.03910  -0.01321   1.96948
   A12        2.17615   0.00687   0.00229   0.05170   0.05399   2.23015
   A13        2.12434  -0.00460  -0.02819  -0.01260  -0.04078   2.08355
    D1        0.00000   0.00000   0.00000   0.00000   0.00000   0.00000
    D2        3.14159   0.00000   0.00000   0.00000   0.00000   3.14159
    D3        3.14159   0.00000   0.00000   0.00000   0.00000   3.14159
    D4        0.00000   0.00000   0.00000   0.00000   0.00000   0.00000
    D5        3.14159   0.00000   0.00000   0.00000   0.00000   3.14159
    D6        0.00000   0.00000   0.00000   0.00000   0.00000   0.00000
    D7        0.00000   0.00000   0.00000   0.00000   0.00000   0.00000
    D8        3.14159   0.00000   0.00000   0.00000   0.00000   3.14159
    D9        3.14159   0.00000   0.00000   0.00000   0.00000   3.14159
   D10        0.00000   0.00000   0.00000   0.00000   0.00000   0.00000
   D11        0.00000   0.00000   0.00000   0.00000   0.00000   0.00000
   D12        3.14159   0.00000   0.00000   0.00000   0.00000   3.14159
   D13        0.00000   0.00000   0.00000   0.00000   0.00000   0.00000
   D14        3.14159   0.00000   0.00000   0.00000   0.00000   3.14159
   D15        0.00000   0.00000   0.00000   0.00000   0.00000   0.00000
   D16        3.14159   0.00000   0.00000   0.00000   0.00000   3.14159
         Item               Value     Threshold  Converged?
 Maximum Force            0.043104     0.000450     NO 
 RMS     Force            0.014036     0.000300     NO 
 Maximum Displacement     0.127381     0.001800     NO 
 RMS     Displacement     0.043827     0.001200     NO 
 Predicted change in Energy=-9.432456D-03
 GradGradGradGradGradGradGradGradGradGradGradGradGradGradGradGradGradGrad

                          Input orientation:                          
 ---------------------------------------------------------------------
 Center     Atomic     Atomic              Coordinates (Angstroms)
 Number     Number      Type              X           Y           Z
 ---------------------------------------------------------------------
    1          1             0       -1.884595    0.000000   -1.160440
    2          6             0       -0.928088    0.000000   -0.663202
    3          1             0        0.674325    0.000000   -2.180227
    4          6             0        0.358616    0.000000   -1.149255
    5          1             0        2.230393    0.000000    0.104526
    6          6             0        1.154323    0.000000    0.015025
    7          7             0        0.414812    0.000000    1.098029
    8          1             0       -1.575087    0.000000    1.342144
    9          7             0       -0.831789    0.000000    0.675390
 ---------------------------------------------------------------------
                    Distance matrix (angstroms):
                    1          2          3          4          5
     1  H    0.000000
     2  C    1.078032   0.000000
     3  H    2.754640   2.206602   0.000000
     4  C    2.243240   1.375448   1.078228   0.000000
     5  H    4.305028   3.250448   2.764316   2.252890   0.000000
     6  C    3.258335   2.190075   2.247116   1.410212   1.079786
     7  N    3.223035   2.214795   3.288512   2.247987   2.069634
     8  H    2.521651   2.107136   4.179348   3.153772   4.001672
     9  N    2.116288   1.342052   3.228456   2.178622   3.114939
                    6          7          8          9
     6  C    0.000000
     7  N    1.311402   0.000000
     8  H    3.034951   2.004817   0.000000
     9  N    2.093018   1.316297   0.998526   0.000000
 Stoichiometry    C3H4N2
 Framework group  CS[SG(C3H4N2)]
 Deg. of freedom   15
 Full point group                 CS      NOp   2
 Largest Abelian subgroup         CS      NOp   2
 Largest concise Abelian subgroup C1      NOp   1
                         Standard orientation:                         
 ---------------------------------------------------------------------
 Center     Atomic     Atomic              Coordinates (Angstroms)
 Number     Number      Type              X           Y           Z
 ---------------------------------------------------------------------
    1          1             0        2.087184    0.727099    0.000000
    2          6             0        1.096223    0.302659    0.000000
    3          1             0        1.253437   -1.898335    0.000000
    4          6             0        0.656321   -1.000545    0.000000
    5          1             0       -1.499983   -1.653133    0.000000
    6          6             0       -0.748532   -0.877723    0.000000
    7          7             0       -1.117192    0.380793    0.000000
    8          1             0       -0.044362    2.074406    0.000000
    9          7             0        0.000000    1.076866    0.000000
 ---------------------------------------------------------------------
 Rotational constants (GHZ):      9.8108920      9.6540779      4.8659267
 Isotopes: H-1,C-12,H-1,C-12,H-1,C-12,N-14,H-1,N-14
 Standard basis: CC-pVDZ (5D, 7F)
 There are    66 symmetry adapted basis functions of A'  symmetry.
 There are    24 symmetry adapted basis functions of A"  symmetry.
 Crude estimate of integral set expansion from redundant integrals=1.000.
 Integral buffers will be    262144 words long.
 Raffenetti 1 integral format.
 Two-electron integral symmetry is turned on.
    90 basis functions      203 primitive gaussians
    18 alpha electrons       18 beta electrons
       nuclear repulsion energy       164.7105234485 Hartrees.
 One-electron integrals computed using PRISM.
 NBasis=    90 RedAO= T  NBF=    66    24
 NBsUse=    90 1.00D-04 NBFU=    66    24
 Initial guess read from the read-write file:
 Initial guess orbital symmetries:
       Occupied  (A') (A') (A') (A') (A') (A') (A') (A') (A') (A')
                 (A') (A") (A') (A') (A') (A') (A") (A")
       Virtual   (A') (A") (A') (A') (A") (A') (A') (A') (A') (A')
                 (A') (A') (A") (A') (A") (A') (A') (A") (A') (A')
                 (A') (A') (A') (A") (A') (A') (A') (A") (A") (A')
                 (A') (A") (A') (A') (A") (A") (A') (A") (A') (A')
                 (A') (A") (A') (A') (A') (A") (A') (A") (A') (A")
                 (A") (A') (A') (A') (A") (A') (A') (A') (A") (A')
                 (A') (A') (A") (A') (A") (A') (A') (A') (A') (A')
                 (A') (A')
 Requested convergence on RMS density matrix=1.00D-08 within  64 cycles.
 Requested convergence on MAX density matrix=1.00D-06.
 Keep R1 integrals in memory in canonical form, NReq=    10871361.
 SCF Done:  E(RHF) =  -224.815480894     A.U. after   13 cycles
             Convg  =    0.3937D-08             -V/T =  2.0003
             S**2   =   0.0000
 ***** Axes restored to original set *****
 -------------------------------------------------------------------
 Center     Atomic                   Forces (Hartrees/Bohr)
 Number     Number              X              Y              Z
 -------------------------------------------------------------------
    1          1           0.000987743    0.000000000   -0.000154436
    2          6           0.003062605    0.000000000   -0.004084963
    3          1          -0.000719788    0.000000000    0.001531925
    4          6          -0.008036016    0.000000000   -0.000884074
    5          1          -0.001374619    0.000000000   -0.000929204
    6          6          -0.002839160    0.000000000    0.009125023
    7          7           0.012802443    0.000000000    0.000911296
    8          1           0.001419710    0.000000000   -0.002149408
    9          7          -0.005302920    0.000000000   -0.003366160
 -------------------------------------------------------------------
 Cartesian Forces:  Max     0.012802443 RMS     0.003849918

 GradGradGradGradGradGradGradGradGradGradGradGradGradGradGradGradGradGrad
 Berny optimization.
 Internal  Forces:  Max     0.007910998 RMS     0.002568793
 Search for a local minimum.
 Step number   3 out of a maximum of  48
 All quantities printed in internal units (Hartrees-Bohrs-Radians)
 Update second derivatives using information from points  1  2  3
 Trust test= 7.81D-01 RLast= 2.10D-01 DXMaxT set to 6.00D-01
     Eigenvalues ---    0.03203   0.03248   0.03250   0.03273   0.03342
     Eigenvalues ---    0.03373   0.15391   0.16000   0.16008   0.16026
     Eigenvalues ---    0.22079   0.24414   0.46957   0.49512   0.49729
     Eigenvalues ---    0.56866   0.58744   0.60468   0.65736   0.74164
     Eigenvalues ---    0.812911000.000001000.000001000.000001000.00000
     Eigenvalues --- 1000.000001000.000001000.000001000.000001000.00000
     Eigenvalues --- 1000.000001000.000001000.000001000.000001000.00000
     Eigenvalues --- 1000.000001000.000001000.00000
 RFO step:  Lambda=-4.57517591D-04.
 Quartic linear search produced a step of -0.01862.
 Iteration  1 RMS(Cart)=  0.00622671 RMS(Int)=  0.00002251
 Iteration  2 RMS(Cart)=  0.00002497 RMS(Int)=  0.00000839
 Iteration  3 RMS(Cart)=  0.00000000 RMS(Int)=  0.00000839
 Variable       Old X    -DE/DX   Delta X   Delta X   Delta X     New X
                                 (Linear)    (Quad)   (Total)
    R1        2.03718  -0.00081  -0.00115   0.00087  -0.00028   2.03691
    R2        2.59922  -0.00791  -0.00067  -0.01169  -0.01238   2.58684
    R3        2.53611  -0.00012  -0.00078   0.00197   0.00118   2.53729
    R4        2.03755  -0.00168  -0.00117  -0.00080  -0.00197   2.03558
    R5        2.66491   0.00436  -0.00118   0.00843   0.00726   2.67218
    R6        2.04050  -0.00145  -0.00120  -0.00030  -0.00150   2.03900
    R7        2.47819  -0.00706  -0.00025  -0.00889  -0.00914   2.46905
    R8        2.48744   0.00789  -0.00118   0.01225   0.01107   2.49851
    R9        1.88694  -0.00249  -0.00077  -0.00235  -0.00313   1.88381
    A1        2.30101   0.00021  -0.00112   0.00273   0.00163   2.30264
    A2        2.12201   0.00142   0.00139   0.00485   0.00625   2.12827
    A3        1.86016  -0.00163  -0.00027  -0.00759  -0.00788   1.85228
    A4        2.22913  -0.00117  -0.00010  -0.00317  -0.00327   2.22587
    A5        1.80914   0.00186   0.00027   0.00327   0.00354   1.81268
    A6        2.24492  -0.00068  -0.00017  -0.00011  -0.00028   2.24464
    A7        2.25330  -0.00187  -0.00077  -0.00699  -0.00777   2.24553
    A8        1.94296   0.00209  -0.00022   0.00737   0.00717   1.95014
    A9        2.08693  -0.00022   0.00099  -0.00038   0.00060   2.08752
   A10        1.84304  -0.00444  -0.00003  -0.01454  -0.01455   1.82849
   A11        1.96948   0.00213   0.00025   0.01148   0.01171   1.98120
   A12        2.23015  -0.00168  -0.00101  -0.00771  -0.00871   2.22144
   A13        2.08355  -0.00045   0.00076  -0.00377  -0.00300   2.08055
    D1        0.00000   0.00000   0.00000   0.00000   0.00000   0.00000
    D2        3.14159   0.00000   0.00000   0.00000   0.00000   3.14159
    D3        3.14159   0.00000   0.00000   0.00000   0.00000   3.14159
    D4        0.00000   0.00000   0.00000   0.00000   0.00000   0.00000
    D5        3.14159   0.00000   0.00000   0.00000   0.00000   3.14159
    D6        0.00000   0.00000   0.00000   0.00000   0.00000   0.00000
    D7        0.00000   0.00000   0.00000   0.00000   0.00000   0.00000
    D8        3.14159   0.00000   0.00000   0.00000   0.00000   3.14159
    D9        3.14159   0.00000   0.00000   0.00000   0.00000   3.14159
   D10        0.00000   0.00000   0.00000   0.00000   0.00000   0.00000
   D11        0.00000   0.00000   0.00000   0.00000   0.00000   0.00000
   D12        3.14159   0.00000   0.00000   0.00000   0.00000   3.14159
   D13        0.00000   0.00000   0.00000   0.00000   0.00000   0.00000
   D14        3.14159   0.00000   0.00000   0.00000   0.00000   3.14159
   D15        0.00000   0.00000   0.00000   0.00000   0.00000   0.00000
   D16        3.14159   0.00000   0.00000   0.00000   0.00000   3.14159
         Item               Value     Threshold  Converged?
 Maximum Force            0.007911     0.000450     NO 
 RMS     Force            0.002569     0.000300     NO 
 Maximum Displacement     0.014884     0.001800     NO 
 RMS     Displacement     0.006232     0.001200     NO 
 Predicted change in Energy=-2.312038D-04
 GradGradGradGradGradGradGradGradGradGradGradGradGradGradGradGradGradGrad

                          Input orientation:                          
 ---------------------------------------------------------------------
 Center     Atomic     Atomic              Coordinates (Angstroms)
 Number     Number      Type              X           Y           Z
 ---------------------------------------------------------------------
    1          1             0       -1.885355    0.000000   -1.157999
    2          6             0       -0.929821    0.000000   -0.659207
    3          1             0        0.667816    0.000000   -2.168646
    4          6             0        0.352357    0.000000   -1.138689
    5          1             0        2.226453    0.000000    0.109422
    6          6             0        1.150492    0.000000    0.028586
    7          7             0        0.421708    0.000000    1.113018
    8          1             0       -1.572193    0.000000    1.342117
    9          7             0       -0.827372    0.000000    0.679553
 ---------------------------------------------------------------------
                    Distance matrix (angstroms):
                    1          2          3          4          5
     1  H    0.000000
     2  C    1.077886   0.000000
     3  H    2.745922   2.197919   0.000000
     4  C    2.237795   1.368899   1.077184   0.000000
     5  H    4.302710   3.248516   2.760243   2.251669   0.000000
     6  C    3.259501   2.191064   2.249623   1.414054   1.078993
     7  N    3.237291   2.228769   3.290879   2.252775   2.065020
     8  H    2.519653   2.101890   4.164505   3.139792   3.993651
     9  N    2.120359   1.342675   3.216804   2.167433   3.106589
                    6          7          8          9
     6  C    0.000000
     7  N    1.306568   0.000000
     8  H    3.022975   2.007019   0.000000
     9  N    2.082235   1.322154   0.996870   0.000000
 Stoichiometry    C3H4N2
 Framework group  CS[SG(C3H4N2)]
 Deg. of freedom   15
 Full point group                 CS      NOp   2
 Largest Abelian subgroup         CS      NOp   2
 Largest concise Abelian subgroup C1      NOp   1
                         Standard orientation:                         
 ---------------------------------------------------------------------
 Center     Atomic     Atomic              Coordinates (Angstroms)
 Number     Number      Type              X           Y           Z
 ---------------------------------------------------------------------
    1          1             0        2.092084    0.725306    0.000000
    2          6             0        1.100892    0.301780    0.000000
    3          1             0        1.257088   -1.890582    0.000000
    4          6             0        0.659853   -0.994124    0.000000
    5          1             0       -1.492988   -1.653889    0.000000
    6          6             0       -0.748957   -0.872452    0.000000
    7          7             0       -1.126561    0.378361    0.000000
    8          1             0       -0.040984    2.066451    0.000000
    9          7             0        0.000000    1.070424    0.000000
 ---------------------------------------------------------------------
 Rotational constants (GHZ):      9.8779432      9.6018571      4.8689718
 Isotopes: H-1,C-12,H-1,C-12,H-1,C-12,N-14,H-1,N-14
 Standard basis: CC-pVDZ (5D, 7F)
 There are    66 symmetry adapted basis functions of A'  symmetry.
 There are    24 symmetry adapted basis functions of A"  symmetry.
 Crude estimate of integral set expansion from redundant integrals=1.000.
 Integral buffers will be    262144 words long.
 Raffenetti 1 integral format.
 Two-electron integral symmetry is turned on.
    90 basis functions      203 primitive gaussians
    18 alpha electrons       18 beta electrons
       nuclear repulsion energy       164.7620635255 Hartrees.
 One-electron integrals computed using PRISM.
 NBasis=    90 RedAO= T  NBF=    66    24
 NBsUse=    90 1.00D-04 NBFU=    66    24
 Initial guess read from the read-write file:
 Initial guess orbital symmetries:
       Occupied  (A') (A') (A') (A') (A') (A') (A') (A') (A') (A')
                 (A') (A") (A') (A') (A') (A') (A") (A")
       Virtual   (A") (A') (A') (A') (A") (A') (A') (A') (A') (A')
                 (A') (A') (A") (A') (A') (A") (A') (A') (A") (A')
                 (A') (A') (A') (A") (A') (A') (A') (A") (A") (A')
                 (A') (A") (A') (A") (A') (A") (A') (A") (A') (A')
                 (A') (A") (A') (A') (A") (A') (A') (A") (A') (A")
                 (A") (A') (A') (A') (A') (A") (A') (A') (A") (A')
                 (A') (A') (A") (A') (A") (A') (A') (A') (A') (A')
                 (A') (A')
 Requested convergence on RMS density matrix=1.00D-08 within  64 cycles.
 Requested convergence on MAX density matrix=1.00D-06.
 Keep R1 integrals in memory in canonical form, NReq=    10871361.
 SCF Done:  E(RHF) =  -224.815681635     A.U. after   11 cycles
             Convg  =    0.7889D-08             -V/T =  2.0002
             S**2   =   0.0000
 ***** Axes restored to original set *****
 -------------------------------------------------------------------
 Center     Atomic                   Forces (Hartrees/Bohr)
 Number     Number              X              Y              Z
 -------------------------------------------------------------------
    1          1           0.000751463    0.000000000    0.000476483
    2          6           0.003235093    0.000000000    0.000757662
    3          1           0.000177457    0.000000000    0.000885929
    4          6          -0.001607998    0.000000000   -0.002442223
    5          1          -0.000506487    0.000000000   -0.000873286
    6          6           0.002116205    0.000000000    0.003329199
    7          7           0.003574782    0.000000000   -0.003928912
    8          1           0.000342843    0.000000000   -0.000701169
    9          7          -0.008083356    0.000000000    0.002496319
 -------------------------------------------------------------------
 Cartesian Forces:  Max     0.008083356 RMS     0.002262218

 GradGradGradGradGradGradGradGradGradGradGradGradGradGradGradGradGradGrad
 Berny optimization.
 Internal  Forces:  Max     0.003600709 RMS     0.001171823
 Search for a local minimum.
 Step number   4 out of a maximum of  48
 All quantities printed in internal units (Hartrees-Bohrs-Radians)
 Update second derivatives using information from points  1  2  3  4
 Trust test= 8.68D-01 RLast= 3.32D-02 DXMaxT set to 6.00D-01
     Eigenvalues ---    0.03203   0.03248   0.03250   0.03273   0.03342
     Eigenvalues ---    0.03373   0.15107   0.15792   0.16004   0.16035
     Eigenvalues ---    0.22019   0.36542   0.47756   0.49716   0.49879
     Eigenvalues ---    0.50580   0.57764   0.59945   0.60748   0.74973
     Eigenvalues ---    0.775331000.000001000.000001000.000001000.00000
     Eigenvalues --- 1000.000001000.000001000.000001000.000001000.00000
     Eigenvalues --- 1000.000001000.000001000.000001000.000001000.00000
     Eigenvalues --- 1000.000001000.000001000.00000
 RFO step:  Lambda=-1.20781892D-04.
 Quartic linear search produced a step of -0.11695.
 Iteration  1 RMS(Cart)=  0.00303621 RMS(Int)=  0.00000829
 Iteration  2 RMS(Cart)=  0.00000774 RMS(Int)=  0.00000421
 Iteration  3 RMS(Cart)=  0.00000000 RMS(Int)=  0.00000421
 Variable       Old X    -DE/DX   Delta X   Delta X   Delta X     New X
                                 (Linear)    (Quad)   (Total)
    R1        2.03691  -0.00089   0.00003  -0.00080  -0.00077   2.03614
    R2        2.58684  -0.00021   0.00145  -0.00470  -0.00325   2.58359
    R3        2.53729  -0.00026  -0.00014   0.00100   0.00087   2.53815
    R4        2.03558  -0.00080   0.00023  -0.00129  -0.00106   2.03453
    R5        2.67218   0.00069  -0.00085   0.00440   0.00355   2.67572
    R6        2.03900  -0.00057   0.00018  -0.00077  -0.00059   2.03841
    R7        2.46905  -0.00128   0.00107  -0.00450  -0.00343   2.46562
    R8        2.49851   0.00360  -0.00129   0.00850   0.00721   2.50572
    R9        1.88381  -0.00072   0.00037  -0.00165  -0.00128   1.88253
    A1        2.30264  -0.00102  -0.00019  -0.00308  -0.00327   2.29937
    A2        2.12827  -0.00117  -0.00073  -0.00194  -0.00268   2.12559
    A3        1.85228   0.00218   0.00092   0.00502   0.00595   1.85823
    A4        2.22587   0.00042   0.00038   0.00179   0.00218   2.22804
    A5        1.81268   0.00003  -0.00041  -0.00021  -0.00063   1.81205
    A6        2.24464  -0.00045   0.00003  -0.00159  -0.00155   2.24309
    A7        2.24553  -0.00034   0.00091  -0.00542  -0.00450   2.24102
    A8        1.95014  -0.00101  -0.00084  -0.00127  -0.00212   1.94802
    A9        2.08752   0.00136  -0.00007   0.00668   0.00662   2.09414
   A10        1.82849   0.00233   0.00170   0.00356   0.00526   1.83375
   A11        1.98120  -0.00352  -0.00137  -0.00711  -0.00846   1.97273
   A12        2.22144   0.00148   0.00102   0.00106   0.00207   2.22351
   A13        2.08055   0.00204   0.00035   0.00605   0.00639   2.08694
    D1        0.00000   0.00000   0.00000   0.00000   0.00000   0.00000
    D2        3.14159   0.00000   0.00000   0.00000   0.00000   3.14159
    D3        3.14159   0.00000   0.00000   0.00000   0.00000   3.14159
    D4        0.00000   0.00000   0.00000   0.00000   0.00000   0.00000
    D5        3.14159   0.00000   0.00000   0.00000   0.00000   3.14159
    D6        0.00000   0.00000   0.00000   0.00000   0.00000   0.00000
    D7        0.00000   0.00000   0.00000   0.00000   0.00000   0.00000
    D8        3.14159   0.00000   0.00000   0.00000   0.00000   3.14159
    D9        3.14159   0.00000   0.00000   0.00000   0.00000   3.14159
   D10        0.00000   0.00000   0.00000   0.00000   0.00000   0.00000
   D11        0.00000   0.00000   0.00000   0.00000   0.00000   0.00000
   D12        3.14159   0.00000   0.00000   0.00000   0.00000   3.14159
   D13        0.00000   0.00000   0.00000   0.00000   0.00000   0.00000
   D14        3.14159   0.00000   0.00000   0.00000   0.00000   3.14159
   D15        0.00000   0.00000   0.00000   0.00000   0.00000   0.00000
   D16        3.14159   0.00000   0.00000   0.00000   0.00000   3.14159
         Item               Value     Threshold  Converged?
 Maximum Force            0.003601     0.000450     NO 
 RMS     Force            0.001172     0.000300     NO 
 Maximum Displacement     0.009751     0.001800     NO 
 RMS     Displacement     0.003035     0.001200     NO 
 Predicted change in Energy=-6.396591D-05
 GradGradGradGradGradGradGradGradGradGradGradGradGradGradGradGradGradGrad

                          Input orientation:                          
 ---------------------------------------------------------------------
 Center     Atomic     Atomic              Coordinates (Angstroms)
 Number     Number      Type              X           Y           Z
 ---------------------------------------------------------------------
    1          1             0       -1.883204    0.000000   -1.159635
    2          6             0       -0.928926    0.000000   -0.659318
    3          1             0        0.666947    0.000000   -2.169290
    4          6             0        0.350933    0.000000   -1.140089
    5          1             0        2.227188    0.000000    0.103106
    6          6             0        1.151121    0.000000    0.028054
    7          7             0        0.421980    0.000000    1.110056
    8          1             0       -1.578332    0.000000    1.340670
    9          7             0       -0.832432    0.000000    0.680345
 ---------------------------------------------------------------------
                    Distance matrix (angstroms):
                    1          2          3          4          5
     1  H    0.000000
     2  C    1.077480   0.000000
     3  H    2.742749   2.197004   0.000000
     4  C    2.234222   1.367179   1.076624   0.000000
     5  H    4.299980   3.246897   2.756472   2.250748   0.000000
     6  C    3.258486   2.190679   2.250055   1.415931   1.078681
     7  N    3.235021   2.226124   3.288483   2.251266   2.067057
     8  H    2.518823   2.102779   4.166665   3.142646   4.001692
     9  N    2.118878   1.343133   3.220024   2.171251   3.113595
                    6          7          8          9
     6  C    0.000000
     7  N    1.304751   0.000000
     8  H    3.028675   2.013561   0.000000
     9  N    2.088053   1.325971   0.996191   0.000000
 Stoichiometry    C3H4N2
 Framework group  CS[SG(C3H4N2)]
 Deg. of freedom   15
 Full point group                 CS      NOp   2
 Largest Abelian subgroup         CS      NOp   2
 Largest concise Abelian subgroup C1      NOp   1
                         Standard orientation:                         
 ---------------------------------------------------------------------
 Center     Atomic     Atomic              Coordinates (Angstroms)
 Number     Number      Type              X           Y           Z
 ---------------------------------------------------------------------
    1          1             0        2.089767    0.724675    0.000000
    2          6             0        1.098634    0.302041    0.000000
    3          1             0        1.258675   -1.889126    0.000000
    4          6             0        0.661431   -0.993347    0.000000
    5          1             0       -1.488272   -1.660167    0.000000
    6          6             0       -0.749479   -0.874205    0.000000
    7          7             0       -1.126295    0.374949    0.000000
    8          1             0       -0.039619    2.070107    0.000000
    9          7             0        0.000000    1.074705    0.000000
 ---------------------------------------------------------------------
 Rotational constants (GHZ):      9.8475646      9.6145199      4.8648235
 Isotopes: H-1,C-12,H-1,C-12,H-1,C-12,N-14,H-1,N-14
 Standard basis: CC-pVDZ (5D, 7F)
 There are    66 symmetry adapted basis functions of A'  symmetry.
 There are    24 symmetry adapted basis functions of A"  symmetry.
 Crude estimate of integral set expansion from redundant integrals=1.000.
 Integral buffers will be    262144 words long.
 Raffenetti 1 integral format.
 Two-electron integral symmetry is turned on.
    90 basis functions      203 primitive gaussians
    18 alpha electrons       18 beta electrons
       nuclear repulsion energy       164.6935133373 Hartrees.
 One-electron integrals computed using PRISM.
 NBasis=    90 RedAO= T  NBF=    66    24
 NBsUse=    90 1.00D-04 NBFU=    66    24
 Initial guess read from the read-write file:
 Initial guess orbital symmetries:
       Occupied  (A') (A') (A') (A') (A') (A') (A') (A') (A') (A')
                 (A') (A") (A') (A') (A') (A') (A") (A")
       Virtual   (A") (A') (A') (A') (A") (A') (A') (A') (A') (A')
                 (A') (A') (A") (A') (A') (A") (A') (A') (A") (A')
                 (A') (A') (A') (A") (A') (A') (A') (A") (A") (A')
                 (A') (A") (A') (A') (A") (A") (A') (A") (A') (A')
                 (A') (A") (A') (A') (A") (A') (A') (A") (A') (A")
                 (A") (A') (A') (A') (A') (A") (A') (A') (A") (A')
                 (A') (A') (A") (A') (A") (A') (A') (A') (A') (A')
                 (A') (A')
 Requested convergence on RMS density matrix=1.00D-08 within  64 cycles.
 Requested convergence on MAX density matrix=1.00D-06.
 Keep R1 integrals in memory in canonical form, NReq=    10871361.
 SCF Done:  E(RHF) =  -224.815755035     A.U. after   10 cycles
             Convg  =    0.4317D-08             -V/T =  2.0002
             S**2   =   0.0000
 ***** Axes restored to original set *****
 -------------------------------------------------------------------
 Center     Atomic                   Forces (Hartrees/Bohr)
 Number     Number              X              Y              Z
 -------------------------------------------------------------------
    1          1           0.000378133    0.000000000    0.000161776
    2          6           0.000640988    0.000000000    0.000463373
    3          1           0.000036753    0.000000000    0.000406659
    4          6          -0.000253796    0.000000000   -0.001193965
    5          1          -0.000370541    0.000000000   -0.000054677
    6          6          -0.000226372    0.000000000    0.000935938
    7          7           0.001024851    0.000000000   -0.000626877
    8          1           0.000384298    0.000000000    0.000035461
    9          7          -0.001614313    0.000000000   -0.000127688
 -------------------------------------------------------------------
 Cartesian Forces:  Max     0.001614313 RMS     0.000535187

 GradGradGradGradGradGradGradGradGradGradGradGradGradGradGradGradGradGrad
 Berny optimization.
 Internal  Forces:  Max     0.000723407 RMS     0.000261383
 Search for a local minimum.
 Step number   5 out of a maximum of  48
 All quantities printed in internal units (Hartrees-Bohrs-Radians)
 Update second derivatives using information from points  1  2  3  4  5

 Trust test= 1.15D+00 RLast= 1.91D-02 DXMaxT set to 6.00D-01
     Eigenvalues ---    0.03203   0.03248   0.03250   0.03273   0.03342
     Eigenvalues ---    0.03373   0.14955   0.15580   0.16021   0.16398
     Eigenvalues ---    0.20534   0.34604   0.48140   0.48594   0.49738
     Eigenvalues ---    0.49971   0.57733   0.59478   0.60658   0.74459
     Eigenvalues ---    0.772291000.000001000.000001000.000001000.00000
     Eigenvalues --- 1000.000001000.000001000.000001000.000001000.00000
     Eigenvalues --- 1000.000001000.000001000.000001000.000001000.00000
     Eigenvalues --- 1000.000001000.000001000.00000
 RFO step:  Lambda=-6.53851912D-06.
 Quartic linear search produced a step of  0.17497.
 Iteration  1 RMS(Cart)=  0.00096004 RMS(Int)=  0.00000099
 Iteration  2 RMS(Cart)=  0.00000088 RMS(Int)=  0.00000074
 Variable       Old X    -DE/DX   Delta X   Delta X   Delta X     New X
                                 (Linear)    (Quad)   (Total)
    R1        2.03614  -0.00041  -0.00013  -0.00067  -0.00080   2.03534
    R2        2.58359  -0.00016  -0.00057  -0.00048  -0.00104   2.58255
    R3        2.53815  -0.00021   0.00015  -0.00015   0.00001   2.53816
    R4        2.03453  -0.00038  -0.00019  -0.00065  -0.00084   2.03369
    R5        2.67572   0.00019   0.00062   0.00054   0.00116   2.67688
    R6        2.03841  -0.00037  -0.00010  -0.00069  -0.00079   2.03762
    R7        2.46562  -0.00072  -0.00060  -0.00120  -0.00180   2.46382
    R8        2.50572   0.00051   0.00126   0.00059   0.00185   2.50757
    R9        1.88253  -0.00026  -0.00022  -0.00038  -0.00061   1.88192
    A1        2.29937  -0.00027  -0.00057  -0.00100  -0.00158   2.29779
    A2        2.12559  -0.00020  -0.00047  -0.00037  -0.00084   2.12475
    A3        1.85823   0.00047   0.00104   0.00137   0.00242   1.86064
    A4        2.22804   0.00034   0.00038   0.00178   0.00216   2.23020
    A5        1.81205  -0.00037  -0.00011  -0.00191  -0.00202   1.81003
    A6        2.24309   0.00003  -0.00027   0.00014  -0.00013   2.24295
    A7        2.24102  -0.00015  -0.00079  -0.00064  -0.00143   2.23960
    A8        1.94802   0.00024  -0.00037   0.00191   0.00154   1.94956
    A9        2.09414  -0.00009   0.00116  -0.00127  -0.00011   2.09403
   A10        1.83375   0.00015   0.00092  -0.00093  -0.00001   1.83373
   A11        1.97273  -0.00049  -0.00148  -0.00044  -0.00192   1.97081
   A12        2.22351   0.00051   0.00036   0.00237   0.00273   2.22624
   A13        2.08694  -0.00002   0.00112  -0.00193  -0.00081   2.08613
    D1        0.00000   0.00000   0.00000   0.00000   0.00000   0.00000
    D2        3.14159   0.00000   0.00000   0.00000   0.00000   3.14159
    D3        3.14159   0.00000   0.00000   0.00000   0.00000   3.14159
    D4        0.00000   0.00000   0.00000   0.00000   0.00000   0.00000
    D5        3.14159   0.00000   0.00000   0.00000   0.00000   3.14159
    D6        0.00000   0.00000   0.00000   0.00000   0.00000   0.00000
    D7        0.00000   0.00000   0.00000   0.00000   0.00000   0.00000
    D8        3.14159   0.00000   0.00000   0.00000   0.00000   3.14159
    D9        3.14159   0.00000   0.00000   0.00000   0.00000   3.14159
   D10        0.00000   0.00000   0.00000   0.00000   0.00000   0.00000
   D11        0.00000   0.00000   0.00000   0.00000   0.00000   0.00000
   D12        3.14159   0.00000   0.00000   0.00000   0.00000   3.14159
   D13        0.00000   0.00000   0.00000   0.00000   0.00000   0.00000
   D14        3.14159   0.00000   0.00000   0.00000   0.00000   3.14159
   D15        0.00000   0.00000   0.00000   0.00000   0.00000   0.00000
   D16        3.14159   0.00000   0.00000   0.00000   0.00000   3.14159
         Item               Value     Threshold  Converged?
 Maximum Force            0.000723     0.000450     NO 
 RMS     Force            0.000261     0.000300     YES
 Maximum Displacement     0.002674     0.001800     NO 
 RMS     Displacement     0.000960     0.001200     YES
 Predicted change in Energy=-4.937379D-06
 GradGradGradGradGradGradGradGradGradGradGradGradGradGradGradGradGradGrad

                          Input orientation:                          
 ---------------------------------------------------------------------
 Center     Atomic     Atomic              Coordinates (Angstroms)
 Number     Number      Type              X           Y           Z
 ---------------------------------------------------------------------
    1          1             0       -1.881738    0.000000   -1.160215
    2          6             0       -0.928064    0.000000   -0.659660
    3          1             0        0.667690    0.000000   -2.170120
    4          6             0        0.350738    0.000000   -1.141671
    5          1             0        2.225907    0.000000    0.102162
    6          6             0        1.150219    0.000000    0.027702
    7          7             0        0.422297    0.000000    1.109377
    8          1             0       -1.578018    0.000000    1.341311
    9          7             0       -0.833307    0.000000    0.680130
 ---------------------------------------------------------------------
                    Distance matrix (angstroms):
                    1          2          3          4          5
     1  H    0.000000
     2  C    1.077056   0.000000
     3  H    2.742169   2.197252   0.000000
     4  C    2.232554   1.366627   1.076182   0.000000
     5  H    4.297249   3.244673   2.755232   2.250194   0.000000
     6  C    3.256365   2.189001   2.250168   1.416546   1.078262
     7  N    3.234135   2.225527   3.288665   2.252185   2.065791
     8  H    2.519897   2.103883   4.168135   3.144089   4.000666
     9  N    2.118037   1.343137   3.221322   2.172768   3.113332
                    6          7          8          9
     6  C    0.000000
     7  N    1.303799   0.000000
     8  H    3.028010   2.013716   0.000000
     9  N    2.088070   1.326950   0.995868   0.000000
 Stoichiometry    C3H4N2
 Framework group  CS[SG(C3H4N2)]
 Deg. of freedom   15
 Full point group                 CS      NOp   2
 Largest Abelian subgroup         CS      NOp   2
 Largest concise Abelian subgroup C1      NOp   1
                         Standard orientation:                         
 ---------------------------------------------------------------------
 Center     Atomic     Atomic              Coordinates (Angstroms)
 Number     Number      Type              X           Y           Z
 ---------------------------------------------------------------------
    1          1             0        2.088630    0.723822    0.000000
    2          6             0        1.097766    0.301636    0.000000
    3          1             0        1.258633   -1.889720    0.000000
    4          6             0        0.662411   -0.993792    0.000000
    5          1             0       -1.486984   -1.659733    0.000000
    6          6             0       -0.749023   -0.873564    0.000000
    7          7             0       -1.126571    0.374374    0.000000
    8          1             0       -0.041203    2.070555    0.000000
    9          7             0        0.000000    1.075539    0.000000
 ---------------------------------------------------------------------
 Rotational constants (GHZ):      9.8500165      9.6122924      4.8648513
 Isotopes: H-1,C-12,H-1,C-12,H-1,C-12,N-14,H-1,N-14
 Standard basis: CC-pVDZ (5D, 7F)
 There are    66 symmetry adapted basis functions of A'  symmetry.
 There are    24 symmetry adapted basis functions of A"  symmetry.
 Crude estimate of integral set expansion from redundant integrals=1.000.
 Integral buffers will be    262144 words long.
 Raffenetti 1 integral format.
 Two-electron integral symmetry is turned on.
    90 basis functions      203 primitive gaussians
    18 alpha electrons       18 beta electrons
       nuclear repulsion energy       164.6971773674 Hartrees.
 One-electron integrals computed using PRISM.
 NBasis=    90 RedAO= T  NBF=    66    24
 NBsUse=    90 1.00D-04 NBFU=    66    24
 Initial guess read from the read-write file:
 Initial guess orbital symmetries:
       Occupied  (A') (A') (A') (A') (A') (A') (A') (A') (A') (A')
                 (A') (A") (A') (A') (A') (A') (A") (A")
       Virtual   (A") (A') (A') (A') (A") (A') (A') (A') (A') (A')
                 (A') (A') (A") (A') (A') (A") (A') (A') (A") (A')
                 (A') (A') (A') (A") (A') (A') (A') (A") (A") (A')
                 (A') (A") (A') (A') (A") (A") (A') (A") (A') (A')
                 (A') (A") (A') (A') (A") (A') (A') (A") (A') (A")
                 (A") (A') (A') (A') (A') (A") (A') (A') (A") (A')
                 (A') (A') (A") (A') (A") (A') (A') (A') (A') (A')
                 (A') (A')
 Requested convergence on RMS density matrix=1.00D-08 within  64 cycles.
 Requested convergence on MAX density matrix=1.00D-06.
 Keep R1 integrals in memory in canonical form, NReq=    10871361.
 SCF Done:  E(RHF) =  -224.815759358     A.U. after    9 cycles
             Convg  =    0.5574D-08             -V/T =  2.0002
             S**2   =   0.0000
 ***** Axes restored to original set *****
 -------------------------------------------------------------------
 Center     Atomic                   Forces (Hartrees/Bohr)
 Number     Number              X              Y              Z
 -------------------------------------------------------------------
    1          1           0.000015816    0.000000000    0.000002315
    2          6          -0.000341045    0.000000000    0.000209518
    3          1          -0.000000776    0.000000000    0.000095974
    4          6           0.000038033    0.000000000    0.000114584
    5          1           0.000001844    0.000000000    0.000028210
    6          6           0.000318464    0.000000000    0.000031741
    7          7           0.000040708    0.000000000   -0.000164214
    8          1           0.000014837    0.000000000    0.000028649
    9          7          -0.000087880    0.000000000   -0.000346778
 -------------------------------------------------------------------
 Cartesian Forces:  Max     0.000346778 RMS     0.000128398

 GradGradGradGradGradGradGradGradGradGradGradGradGradGradGradGradGradGrad
 Berny optimization.
 Internal  Forces:  Max     0.000288542 RMS     0.000096065
 Search for a local minimum.
 Step number   6 out of a maximum of  48
 All quantities printed in internal units (Hartrees-Bohrs-Radians)
 Update second derivatives using information from points  1  2  3  4  5
                                                        6
 Trust test= 8.76D-01 RLast= 6.74D-03 DXMaxT set to 6.00D-01
     Eigenvalues ---    0.03203   0.03248   0.03251   0.03273   0.03342
     Eigenvalues ---    0.03373   0.14705   0.15467   0.16000   0.16147
     Eigenvalues ---    0.26870   0.31114   0.47024   0.47490   0.49807
     Eigenvalues ---    0.49893   0.58242   0.59024   0.60864   0.73041
     Eigenvalues ---    0.773631000.000001000.000001000.000001000.00000
     Eigenvalues --- 1000.000001000.000001000.000001000.000001000.00000
     Eigenvalues --- 1000.000001000.000001000.000001000.000001000.00000
     Eigenvalues --- 1000.000001000.000001000.00000
 RFO step:  Lambda=-7.47412714D-07.
 Quartic linear search produced a step of -0.10947.
 Iteration  1 RMS(Cart)=  0.00030872 RMS(Int)=  0.00000007
 Iteration  2 RMS(Cart)=  0.00000006 RMS(Int)=  0.00000003
 Variable       Old X    -DE/DX   Delta X   Delta X   Delta X     New X
                                 (Linear)    (Quad)   (Total)
    R1        2.03534  -0.00002   0.00009  -0.00016  -0.00007   2.03527
    R2        2.58255   0.00021   0.00011   0.00015   0.00026   2.58281
    R3        2.53816  -0.00029   0.00000  -0.00036  -0.00036   2.53780
    R4        2.03369  -0.00009   0.00009  -0.00030  -0.00021   2.03348
    R5        2.67688   0.00002  -0.00013   0.00022   0.00009   2.67697
    R6        2.03762   0.00000   0.00009  -0.00013  -0.00004   2.03758
    R7        2.46382  -0.00010   0.00020  -0.00039  -0.00019   2.46363
    R8        2.50757   0.00015  -0.00020   0.00039   0.00019   2.50776
    R9        1.88192   0.00001   0.00007  -0.00008  -0.00002   1.88190
    A1        2.29779   0.00006   0.00017  -0.00001   0.00016   2.29796
    A2        2.12475   0.00007   0.00009   0.00022   0.00031   2.12506
    A3        1.86064  -0.00013  -0.00026  -0.00021  -0.00047   1.86017
    A4        2.23020  -0.00006  -0.00024   0.00012  -0.00012   2.23008
    A5        1.81003   0.00018   0.00022   0.00044   0.00066   1.81069
    A6        2.24295  -0.00012   0.00001  -0.00056  -0.00054   2.24241
    A7        2.23960   0.00015   0.00016   0.00038   0.00053   2.24013
    A8        1.94956  -0.00023  -0.00017  -0.00059  -0.00076   1.94880
    A9        2.09403   0.00009   0.00001   0.00021   0.00023   2.09426
   A10        1.83373   0.00015   0.00000   0.00049   0.00049   1.83422
   A11        1.97081   0.00004   0.00021  -0.00013   0.00008   1.97090
   A12        2.22624   0.00001  -0.00030   0.00054   0.00024   2.22648
   A13        2.08613  -0.00005   0.00009  -0.00041  -0.00032   2.08581
    D1        0.00000   0.00000   0.00000   0.00000   0.00000   0.00000
    D2        3.14159   0.00000   0.00000   0.00000   0.00000   3.14159
    D3        3.14159   0.00000   0.00000   0.00000   0.00000   3.14159
    D4        0.00000   0.00000   0.00000   0.00000   0.00000   0.00000
    D5        3.14159   0.00000   0.00000   0.00000   0.00000   3.14159
    D6        0.00000   0.00000   0.00000   0.00000   0.00000   0.00000
    D7        0.00000   0.00000   0.00000   0.00000   0.00000   0.00000
    D8        3.14159   0.00000   0.00000   0.00000   0.00000   3.14159
    D9        3.14159   0.00000   0.00000   0.00000   0.00000   3.14159
   D10        0.00000   0.00000   0.00000   0.00000   0.00000   0.00000
   D11        0.00000   0.00000   0.00000   0.00000   0.00000   0.00000
   D12        3.14159   0.00000   0.00000   0.00000   0.00000   3.14159
   D13        0.00000   0.00000   0.00000   0.00000   0.00000   0.00000
   D14        3.14159   0.00000   0.00000   0.00000   0.00000   3.14159
   D15        0.00000   0.00000   0.00000   0.00000   0.00000   0.00000
   D16        3.14159   0.00000   0.00000   0.00000   0.00000   3.14159
         Item               Value     Threshold  Converged?
 Maximum Force            0.000289     0.000450     YES
 RMS     Force            0.000096     0.000300     YES
 Maximum Displacement     0.000768     0.001800     YES
 RMS     Displacement     0.000309     0.001200     YES
 Predicted change in Energy=-4.400228D-07
 Optimization completed.
    -- Stationary point found.
                         ----------------------------
                         !   Optimized Parameters   !
                         ! (Angstroms and Degrees)  !
 ------------------------                            -------------------------
 ! Name  Definition              Value          Derivative Info.             !
 -----------------------------------------------------------------------------
 ! R1    R(1,2)                  1.0771         -DE/DX =    0.               !
 ! R2    R(2,4)                  1.3666         -DE/DX =    0.0002           !
 ! R3    R(2,9)                  1.3431         -DE/DX =   -0.0003           !
 ! R4    R(3,4)                  1.0762         -DE/DX =   -0.0001           !
 ! R5    R(4,6)                  1.4165         -DE/DX =    0.               !
 ! R6    R(5,6)                  1.0783         -DE/DX =    0.               !
 ! R7    R(6,7)                  1.3038         -DE/DX =   -0.0001           !
 ! R8    R(7,9)                  1.3269         -DE/DX =    0.0001           !
 ! R9    R(8,9)                  0.9959         -DE/DX =    0.               !
 ! A1    A(1,2,4)              131.6538         -DE/DX =    0.0001           !
 ! A2    A(1,2,9)              121.7391         -DE/DX =    0.0001           !
 ! A3    A(4,2,9)              106.6071         -DE/DX =   -0.0001           !
 ! A4    A(2,4,3)              127.781          -DE/DX =   -0.0001           !
 ! A5    A(2,4,6)              103.7072         -DE/DX =    0.0002           !
 ! A6    A(3,4,6)              128.5118         -DE/DX =   -0.0001           !
 ! A7    A(4,6,5)              128.3195         -DE/DX =    0.0001           !
 ! A8    A(4,6,7)              111.7013         -DE/DX =   -0.0002           !
 ! A9    A(5,6,7)              119.9792         -DE/DX =    0.0001           !
 ! A10   A(6,7,9)              105.0651         -DE/DX =    0.0002           !
 ! A11   A(2,9,7)              112.9193         -DE/DX =    0.               !
 ! A12   A(2,9,8)              127.5543         -DE/DX =    0.               !
 ! A13   A(7,9,8)              119.5264         -DE/DX =    0.               !
 ! D1    D(1,2,4,3)              0.             -DE/DX =    0.               !
 ! D2    D(1,2,4,6)            180.             -DE/DX =    0.               !
 ! D3    D(9,2,4,3)            180.             -DE/DX =    0.               !
 ! D4    D(9,2,4,6)              0.             -DE/DX =    0.               !
 ! D5    D(1,2,9,7)            180.             -DE/DX =    0.               !
 ! D6    D(1,2,9,8)              0.             -DE/DX =    0.               !
 ! D7    D(4,2,9,7)              0.             -DE/DX =    0.               !
 ! D8    D(4,2,9,8)            180.             -DE/DX =    0.               !
 ! D9    D(2,4,6,5)            180.             -DE/DX =    0.               !
 ! D10   D(2,4,6,7)              0.             -DE/DX =    0.               !
 ! D11   D(3,4,6,5)              0.             -DE/DX =    0.               !
[...]
 IR Inten    --     3.8744                 0.6751               121.5965
 Raman Activ --    30.2784               124.1445                82.9272
 Depolar     --     0.6867                 0.1146                 0.2713
 Atom AN      X      Y      Z        X      Y      Z        X      Y      Z
   1   1     0.70   0.29   0.00    -0.57  -0.25   0.00     0.01   0.00   0.00
   2   6    -0.06  -0.02   0.00     0.05   0.03   0.00     0.00   0.00   0.00
   3   1    -0.29   0.43   0.00    -0.41   0.62   0.00     0.00   0.00   0.00
   4   6     0.03  -0.04   0.00     0.04  -0.06   0.00     0.00   0.00   0.00
   5   1     0.27   0.28   0.00     0.15   0.15   0.00     0.00   0.00   0.00
   6   6    -0.03  -0.03   0.00    -0.02  -0.01   0.00     0.00   0.00   0.00
   7   7     0.00   0.00   0.00     0.00   0.00   0.00     0.00   0.00   0.00
   8   1    -0.01  -0.01   0.00     0.00   0.01   0.00    -0.04   1.00   0.00
   9   7     0.00   0.00   0.00     0.00   0.00   0.00     0.00  -0.08   0.00

 -------------------
 - Thermochemistry -
 -------------------
 Temperature   298.150 Kelvin.  Pressure   1.00000 Atm.
 Atom  1 has atomic number  1 and mass   1.00783
 Atom  2 has atomic number  6 and mass  12.00000
 Atom  3 has atomic number  1 and mass   1.00783
 Atom  4 has atomic number  6 and mass  12.00000
 Atom  5 has atomic number  1 and mass   1.00783
 Atom  6 has atomic number  6 and mass  12.00000
 Atom  7 has atomic number  7 and mass  14.00307
 Atom  8 has atomic number  1 and mass   1.00783
 Atom  9 has atomic number  7 and mass  14.00307
 Molecular mass:    68.03745 amu.
 Principal axes and moments of inertia in atomic units:
                           1         2         3
     EIGENVALUES --   183.22215 187.75346 370.97561
           X            0.93059   0.36606   0.00000
           Y           -0.36606   0.93059   0.00000
           Z            0.00000   0.00000   1.00000
 THIS MOLECULE IS AN ASYMMETRIC TOP.
 ROTATIONAL SYMMETRY NUMBER  1.
 ROTATIONAL TEMPERATURES (KELVIN)      0.47272     0.46131     0.23347
 ROTATIONAL CONSTANTS (GHZ)            9.85002     9.61229     4.86485
 Zero-point vibrational energy     200803.6 (Joules/Mol)
                                   47.99321 (Kcal/Mol)
 WARNING-- EXPLICIT CONSIDERATION OF   1 DEGREES OF FREEDOM AS
           VIBRATIONS MAY CAUSE SIGNIFICANT ERROR
 VIBRATIONAL TEMPERATURES:    800.97   987.35  1076.02  1212.86  1400.94
          (KELVIN)           1430.90  1454.72  1457.80  1602.94  1629.67
                             1757.17  1840.97  1997.18  2201.33  2224.35
                             2342.41  2495.26  4897.79  4918.94  4948.81
                             5623.57
 
 Zero-point correction=                           0.076482 (Hartree/Particle)
 Thermal correction to Energy=                    0.080023
 Thermal correction to Enthalpy=                  0.080967
 Thermal correction to Gibbs Free Energy=         0.050310
 Sum of electronic and zero-point Energies=           -224.739277
 Sum of electronic and thermal Energies=              -224.735737
 Sum of electronic and thermal Enthalpies=            -224.734792
 Sum of electronic and thermal Free Energies=         -224.765449
 
                     E (Thermal)             CV                S
                      KCAL/MOL        CAL/MOL-KELVIN    CAL/MOL-KELVIN
 TOTAL                   50.215             11.976             64.522
 ELECTRONIC               0.000              0.000              0.000
 TRANSLATIONAL            0.889              2.981             38.570
 ROTATIONAL               0.889              2.981             24.060
 VIBRATIONAL             48.438              6.014              1.891
 VIBRATION  1             0.912              1.125              0.530
                       Q            LOG10(Q)             LN(Q)
 TOTAL BOT       0.722693D-23        -23.141046        -53.284228
 TOTAL V=0       0.109149D+13         12.038018         27.718561
 VIB (BOT)       0.810151D-35        -35.091434        -80.801013
 VIB (BOT)  1    0.280082D+00         -0.552715         -1.272674
 VIB (V=0)       0.122357D+01          0.087631          0.201777
 VIB (V=0)  1    0.107310D+01          0.030641          0.070553
 ELECTRONIC      0.100000D+01          0.000000          0.000000
 TRANSLATIONAL   0.220588D+08          7.343582         16.909224
 ROTATIONAL      0.404394D+05          4.606805         10.607561
 ***** Axes restored to original set *****
 -------------------------------------------------------------------
 Center     Atomic                   Forces (Hartrees/Bohr)
 Number     Number              X              Y              Z
 -------------------------------------------------------------------
    1          1           0.000015817    0.000000000    0.000002316
    2          6          -0.000341061    0.000000000    0.000209570
    3          1          -0.000000774    0.000000000    0.000095970
    4          6           0.000038059    0.000000000    0.000114588
    5          1           0.000001851    0.000000000    0.000028210
    6          6           0.000318464    0.000000000    0.000031696
    7          7           0.000040688    0.000000000   -0.000164177
    8          1           0.000014845    0.000000000    0.000028642
    9          7          -0.000087890    0.000000000   -0.000346816
 -------------------------------------------------------------------
 Cartesian Forces:  Max     0.000346816 RMS     0.000128404

 GradGradGradGradGradGradGradGradGradGradGradGradGradGradGradGradGradGrad
 Berny optimization.
 Internal  Forces:  Max     0.000288580 RMS     0.000096068
 Search for a local minimum.
 Step number   1 out of a maximum of  48
 All quantities printed in internal units (Hartrees-Bohrs-Radians)
 Second derivative matrix not updated -- analytic derivatives used.
     Eigenvalues ---    0.00819   0.01431   0.02064   0.03389   0.06682
     Eigenvalues ---    0.07256   0.10645   0.11979   0.12692   0.13625
     Eigenvalues ---    0.25644   0.29303   0.39627   0.40746   0.41191
     Eigenvalues ---    0.41374   0.47419   0.48186   0.54245   0.58188
     Eigenvalues ---    0.682301000.000001000.000001000.000001000.00000
     Eigenvalues --- 1000.000001000.000001000.000001000.000001000.00000
     Eigenvalues --- 1000.000001000.000001000.000001000.000001000.00000
     Eigenvalues --- 1000.000001000.000001000.00000
 Angle between quadratic step and forces=  27.10 degrees.
 Linear search not attempted -- first point.
 Iteration  1 RMS(Cart)=  0.00026462 RMS(Int)=  0.00000005
 Iteration  2 RMS(Cart)=  0.00000005 RMS(Int)=  0.00000000
 Variable       Old X    -DE/DX   Delta X   Delta X   Delta X     New X
                                 (Linear)    (Quad)   (Total)
    R1        2.03534  -0.00002   0.00000  -0.00006  -0.00006   2.03528
    R2        2.58255   0.00021   0.00000   0.00037   0.00037   2.58292
    R3        2.53816  -0.00029   0.00000  -0.00051  -0.00051   2.53765
    R4        2.03369  -0.00009   0.00000  -0.00019  -0.00019   2.03350
    R5        2.67688   0.00002   0.00000  -0.00003  -0.00003   2.67686
    R6        2.03762   0.00000   0.00000  -0.00002  -0.00002   2.03759
    R7        2.46382  -0.00010   0.00000  -0.00003  -0.00003   2.46380
    R8        2.50757   0.00015   0.00000   0.00012   0.00012   2.50769
    R9        1.88192   0.00001   0.00000   0.00002   0.00002   1.88194
    A1        2.29779   0.00006   0.00000   0.00004   0.00004   2.29783
    A2        2.12475   0.00007   0.00000   0.00037   0.00037   2.12512
    A3        1.86064  -0.00013   0.00000  -0.00041  -0.00041   1.86024
    A4        2.23020  -0.00006   0.00000  -0.00009  -0.00009   2.23011
    A5        1.81003   0.00018   0.00000   0.00051   0.00051   1.81054
    A6        2.24295  -0.00012   0.00000  -0.00042  -0.00042   2.24253
    A7        2.23960   0.00015   0.00000   0.00055   0.00055   2.24014
    A8        1.94956  -0.00023   0.00000  -0.00060  -0.00060   1.94896
    A9        2.09403   0.00009   0.00000   0.00005   0.00005   2.09409
   A10        1.83373   0.00015   0.00000   0.00031   0.00031   1.83404
   A11        1.97081   0.00004   0.00000   0.00019   0.00019   1.97100
   A12        2.22624   0.00001   0.00000   0.00025   0.00025   2.22649
   A13        2.08613  -0.00005   0.00000  -0.00044  -0.00044   2.08569
    D1        0.00000   0.00000   0.00000   0.00000   0.00000   0.00000
    D2        3.14159   0.00000   0.00000   0.00000   0.00000   3.14159
    D3        3.14159   0.00000   0.00000   0.00000   0.00000   3.14159
    D4        0.00000   0.00000   0.00000   0.00000   0.00000   0.00000
    D5        3.14159   0.00000   0.00000   0.00000   0.00000   3.14159
    D6        0.00000   0.00000   0.00000   0.00000   0.00000   0.00000
    D7        0.00000   0.00000   0.00000   0.00000   0.00000   0.00000
    D8        3.14159   0.00000   0.00000   0.00000   0.00000   3.14159
    D9        3.14159   0.00000   0.00000   0.00000   0.00000   3.14159
   D10        0.00000   0.00000   0.00000   0.00000   0.00000   0.00000
   D11        0.00000   0.00000   0.00000   0.00000   0.00000   0.00000
   D12        3.14159   0.00000   0.00000   0.00000   0.00000   3.14159
   D13        0.00000   0.00000   0.00000   0.00000   0.00000   0.00000
   D14        3.14159   0.00000   0.00000   0.00000   0.00000   3.14159
   D15        0.00000   0.00000   0.00000   0.00000   0.00000   0.00000
   D16        3.14159   0.00000   0.00000   0.00000   0.00000   3.14159
         Item               Value     Threshold  Converged?
 Maximum Force            0.000289     0.000450     YES
 RMS     Force            0.000096     0.000300     YES
 Maximum Displacement     0.000659     0.001800     YES
 RMS     Displacement     0.000265     0.001200     YES
 Predicted change in Energy=-3.947667D-07
 Optimization completed.
    -- Stationary point found.
                         ----------------------------
                         !   Optimized Parameters   !
                         ! (Angstroms and Degrees)  !
 ------------------------                            -------------------------
 ! Name  Definition              Value          Derivative Info.             !
 -----------------------------------------------------------------------------
 ! R1    R(1,2)                  1.0771         -DE/DX =    0.               !
 ! R2    R(2,4)                  1.3666         -DE/DX =    0.0002           !
 ! R3    R(2,9)                  1.3431         -DE/DX =   -0.0003           !
 ! R4    R(3,4)                  1.0762         -DE/DX =   -0.0001           !
 ! R5    R(4,6)                  1.4165         -DE/DX =    0.               !
 ! R6    R(5,6)                  1.0783         -DE/DX =    0.               !
 ! R7    R(6,7)                  1.3038         -DE/DX =   -0.0001           !
 ! R8    R(7,9)                  1.3269         -DE/DX =    0.0001           !
 ! R9    R(8,9)                  0.9959         -DE/DX =    0.               !
 ! A1    A(1,2,4)              131.6538         -DE/DX =    0.0001           !
 ! A2    A(1,2,9)              121.7391         -DE/DX =    0.0001           !
 ! A3    A(4,2,9)              106.6071         -DE/DX =   -0.0001           !
 ! A4    A(2,4,3)              127.781          -DE/DX =   -0.0001           !
 ! A5    A(2,4,6)              103.7072         -DE/DX =    0.0002           !
 ! A6    A(3,4,6)              128.5118         -DE/DX =   -0.0001           !
 ! A7    A(4,6,5)              128.3195         -DE/DX =    0.0001           !
 ! A8    A(4,6,7)              111.7013         -DE/DX =   -0.0002           !
 ! A9    A(5,6,7)              119.9792         -DE/DX =    0.0001           !
 ! A10   A(6,7,9)              105.0651         -DE/DX =    0.0002           !
 ! A11   A(2,9,7)              112.9193         -DE/DX =    0.               !
 ! A12   A(2,9,8)              127.5543         -DE/DX =    0.               !
 ! A13   A(7,9,8)              119.5264         -DE/DX =    0.               !
 ! D1    D(1,2,4,3)              0.             -DE/DX =    0.               !
 ! D2    D(1,2,4,6)            180.             -DE/DX =    0.               !
 ! D3    D(9,2,4,3)            180.             -DE/DX =    0.               !
 ! D4    D(9,2,4,6)              0.             -DE/DX =    0.               !
 ! D5    D(1,2,9,7)            180.             -DE/DX =    0.               !
 ! D6    D(1,2,9,8)              0.             -DE/DX =    0.               !
 ! D7    D(4,2,9,7)              0.             -DE/DX =    0.               !
 ! D8    D(4,2,9,8)            180.             -DE/DX =    0.               !
 ! D9    D(2,4,6,5)            180.             -DE/DX =    0.               !
 ! D10   D(2,4,6,7)              0.             -DE/DX =    0.               !
 ! D11   D(3,4,6,5)              0.             -DE/DX =    0.               !
 ! D12   D(3,4,6,7)            180.             -DE/DX =    0.               !
 ! D13   D(4,6,7,9)              0.             -DE/DX =    0.               !
 ! D14   D(5,6,7,9)            180.             -DE/DX =    0.               !
 ! D15   D(6,7,9,2)              0.             -DE/DX =    0.               !
 ! D16   D(6,7,9,8)            180.             -DE/DX =    0.               !
 -----------------------------------------------------------------------------
 GradGradGradGradGradGradGradGradGradGradGradGradGradGradGradGradGradGrad

 1\1\GINC-QUANTUM\Freq\RHF\CC-pVDZ\C3H4N2\RDJ3\20-Mar-2000\0\\#N GEOM=A
 LLCHECK GUESS=TCHECK RHF/CC-PVDZ FREQ\\1H pyrazole C3H4N2 casno=288131
 \\0,1\H,-1.881575492,0.,-1.1601573447\C,-0.9279008892,0.,-0.6596024291
 \H,0.6678530082,0.,-2.1700619623\C,0.350901323,0.,-1.1416124947\H,2.22
 60697788,0.,0.1022196658\C,1.150381932,0.,0.0277599806\N,0.4224602351,
 0.,1.1094351583\H,-1.5778546618,0.,1.341368596\N,-0.8331440677,0.,0.68
 01877995\\Version=IBM-RS6000-G98RevA.6\State=1-A'\HF=-224.8157594\RMSD
 =2.063e-09\RMSF=1.284e-04\Dipole=-0.8083209,0.,-0.4367014\DipoleDeriv=
 -0.0091907,0.,-0.0485777,0.,0.1763379,0.,-0.0365878,0.,0.0859322,0.264
 9477,0.,-0.1307115,0.,-0.0303358,0.,-0.3818667,0.,0.3251002,0.0944798,
 0.,0.029475,0.,0.1795422,0.,0.0357444,0.,-0.0342758,-0.4070562,0.,-0.0
 176012,0.,-0.2894449,0.,-0.0627876,0.,0.0022788,-0.0616876,0.,-0.01230
 34,0.,0.1394548,0.,-0.0390772,0.,0.0803953,0.3205317,0.,0.167065,0.,-0
 .0188776,0.,0.2621268,0.,0.2402846,0.0304878,0.,-0.2928447,0.,-0.25465
 59,0.,-0.108975,0.,-0.6861669,0.2389718,0.,-0.0744356,0.,0.3248891,0.,
 -0.0611279,0.,0.2461674,-0.4714843,0.,0.3799341,0.,-0.2269098,0.,0.392
 5509,0.,-0.2597158\Polar=48.0752454,0.,19.1790582,-1.2824502,0.,43.291
 8307\PolarDeriv=-7.5691907,0.,-0.162119,-2.990716,0.,-1.8073224,0.,-0.
 6444051,0.,0.,-0.5402843,0.,-2.8139518,0.,-0.2590826,-2.4656882,0.,-2.
 2647387,-2.3820452,0.,-1.0758988,-2.300555,0.,-3.772417,0.,-4.7085519,
 0.,0.,-0.6529773,0.,-1.1266615,0.,-0.0963386,2.8311598,0.,0.4266703,1.
 4406388,0.,0.0551001,-1.7765108,0.,1.7612208,0.,-0.0163022,0.,0.,-1.02
 69825,0.,-1.2038448,0.,-0.2749091,2.2145766,0.,-8.6897979,2.468354,0.,
 0.2820759,5.2559939,0.,3.8037374,0.,2.8268904,0.,0.,-3.2536656,0.,-2.2
 528214,0.,-0.3753227,2.1077098,0.,1.2230754,10.2457371,0.,0.3345216,0.
 7599973,0.,0.767102,0.,1.2755845,0.,0.,0.2938448,0.,0.5104707,0.,-0.08
 24217,1.4102698,0.,0.0702156,-0.544772,0.,0.5698635,-1.7297343,0.,1.53
 5895,0.,2.9293988,0.,0.,-0.3582243,0.,0.5946139,0.,0.3892727,-5.918667
 6,0.,-6.5105038,1.8136551,0.,-0.3624412,-1.7430466,0.,-1.5408307,0.,0.
 379338,0.,0.,3.5190955,0.,1.9965396,0.,0.4042661,4.5342704,0.,12.98412
 96,-4.9329504,0.,-0.036805,3.2634035,0.,-2.7644489,0.,-0.8830305,0.,0.
 ,0.6982057,0.,2.6913106,0.,0.1711543,-3.0886129,0.,4.302235,-0.5394267
 ,0.,0.395703,1.2611679,0.,2.0170639,0.,-1.158922,0.,0.,1.3209879,0.,1.
 6043446,0.,0.1233817,-1.6250178,0.,-1.5412855\HyperPolar=-15.8311764,0
 .,0.2249014,0.,6.8933841,0.,-7.5010291,-1.3476596,0.,-54.7696438\PG=CS
  [SG(C3H4N2)]\NImag=0\\0.33421560,0.,0.02742863,0.14571512,0.,0.136141
 43,-0.33093467,0.,-0.12291810,0.98747831,0.,-0.03790947,0.,0.,0.156399
 13,-0.13423919,0.,-0.13656283,0.10849934,0.,0.74025089,0.00046276,0.,-
 0.00111900,0.00435969,0.,0.02908668,0.08532470,0.,-0.00360674,0.,0.,-0
 .00114156,0.,0.,0.02573858,0.00062504,0.,-0.00015327,-0.00394245,0.,0.
 00024208,-0.10129909,0.,0.38031313,-0.00648515,0.,0.00960960,-0.404500
 03,0.,0.07500866,-0.09664707,0.,0.09323338,0.70454540,0.,0.00436303,0.
 ,0.,-0.08006815,0.,0.,-0.03153750,0.,0.,0.13923326,-0.01785137,0.,0.01
 520448,0.12103088,0.,-0.17315921,0.09074176,0.,-0.36814183,-0.14889886
 ,0.,0.92967857,-0.00027761,0.,0.00033224,-0.00094993,0.,-0.00173462,-0
 .00010964,0.,-0.00056719,-0.00456609,0.,0.00497016,0.40602012,0.,0.000
 68503,0.,0.,0.00489558,0.,0.,-0.00191233,0.,0.,0.00271410,0.,0.,0.0308
 9865,-0.00122467,0.,0.00122481,-0.00369711,0.,-0.00696796,0.00119590,0
 .,0.00021772,-0.02361387,0.,0.00940989,0.02332090,0.,0.06412860,-0.005
 36460,0.,0.00506261,-0.06148701,0.,0.00095744,0.01611542,0.,0.01448403
 ,-0.20145500,0.,-0.10930096,-0.38481374,0.,-0.03744143,1.01132681,0.,0
 .00622037,0.,0.,0.01367125,0.,0.,-0.00294298,0.,0.,-0.08038958,0.,0.,-
 0.04131280,0.,0.,0.17534761,0.00172793,0.,-0.00163464,-0.08616776,0.,0
 .05910236,-0.01604080,0.,-0.00814845,-0.06038524,0.,-0.25257128,-0.026
 83198,0.,-0.07306527,-0.04966659,0.,0.71728625,0.00121131,0.,0.0018315
 1,-0.07135090,0.,-0.05030781,-0.00238015,0.,-0.00180155,0.04347660,0.,
 0.05284309,-0.01488369,0.,0.03257550,-0.22937755,0.,0.17262767,0.60121
 608,0.,0.00747963,0.,0.,0.01855004,0.,0.,0.00676164,0.,0.,0.02638971,0
 .,0.,-0.00791572,0.,0.,-0.08804010,0.,0.,0.12456647,0.00224393,0.,-0.0
 0671706,-0.01865126,0.,-0.08622161,-0.00740776,0.,-0.00513149,-0.04441
 641,0.,-0.08775181,-0.00266290,0.,0.00916187,0.15368270,0.,-0.39664431
 ,-0.07105400,0.,0.70325892,-0.00019349,0.,0.00044076,0.01198082,0.,-0.
 00380957,0.00086116,0.,-0.00010575,0.00373400,0.,-0.00345824,-0.000511
 20,0.,0.00155926,-0.00781759,0.,-0.00757413,-0.02007055,0.,0.02969524,
 0.33704777,0.,-0.00212002,0.,0.,-0.00857688,0.,0.,0.00266294,0.,0.,0.0
 0340646,0.,0.,0.00242199,0.,0.,0.00487096,0.,0.,-0.01426292,0.,0.,0.01
 374524,-0.00082301,0.,0.00036720,0.02920782,0.,-0.00342112,0.00136932,
 0.,0.00014528,-0.00322349,0.,-0.00784991,-0.00063318,0.,0.00110679,-0.
 00735555,0.,0.00161102,-0.01121202,0.,0.01963301,-0.23098229,0.,0.2821
 5003,0.00736585,0.,-0.03895474,-0.13459628,0.,-0.02346094,-0.00798687,
 0.,-0.00062641,-0.03810267,0.,0.00992354,0.00009177,0.,0.00732552,-0.1
 3712675,0.,0.07231092,-0.30784116,0.,-0.04142954,-0.32503092,0.,0.2236
 5239,0.94322701,0.,-0.00254044,0.,0.,-0.06581992,0.,0.,0.00597796,0.,0
 .,0.01588867,0.,0.,0.00952548,0.,0.,0.01257528,0.,0.,-0.07352875,0.,0.
 ,-0.00214777,0.,0.,0.10006949,0.00382623,0.,-0.00787012,-0.02336135,0.
 ,-0.39326262,0.00347298,0.,0.00065684,0.10268624,0.,-0.06481890,0.0038
 0657,0.,-0.00521644,0.02957775,0.,-0.04593569,-0.12550239,0.,-0.149587
 52,0.21423472,0.,-0.29374229,-0.20874074,0.,0.95977673\\-0.00001582,0.
 ,-0.00000232,0.00034106,0.,-0.00020957,0.00000077,0.,-0.00009597,-0.00
 003806,0.,-0.00011459,-0.00000185,0.,-0.00002821,-0.00031846,0.,-0.000
 03170,-0.00004069,0.,0.00016418,-0.00001485,0.,-0.00002864,0.00008789,
 0.,0.00034682\\\@


            THE IRISH PIG
 'TWAS AN EVENING IN NOVEMBER,
 AS I VERY WELL REMEMBER
 I WAS STROLLING DOWN THE STREET IN DRUNKEN PRIDE,
 BUT MY KNEES WERE ALL A'FLUTTER
 SO I LANDED IN THE GUTTER,
 AND A PIG CAME UP AND LAY DOWN BY MY SIDE.

 YES, I LAY THERE IN THE GUTTER
 THINKING THOUGHTS I COULD NOT UTTER
 WHEN A COLLEEN PASSING BY DID SOFTLY SAY,
 'YE CAN TELL A MAN THAT BOOZES
 BY THE COMPANY THAT HE CHOOSES.' -
 AT THAT, THE PIG GOT UP AND WALKED AWAY!
     -- THE ECONOMIST, AUGUST 23, 1986
 Job cpu time:  0 days  0 hours  9 minutes  9.2 seconds.
 File lengths (MBytes):  RWF=   14 Int=    0 D2E=    0 Chk=    3 Scr=    1
 Normal termination of Gaussian 98.
