 Entering Gaussian System, Link 0=g98
 Initial command:
 /usr/local/apps/g98a6/g98/l1.exe /wrk/rdj3/Gau-16820.inp -scrdir=/wrk/rdj3/
 Entering Link 1 = /usr/local/apps/g98a6/g98/l1.exe PID=     16322.
  
 Copyright (c) 1988,1990,1992,1993,1995,1998 Gaussian, Inc.
                  All Rights Reserved.
  
 This is part of the Gaussian(R) 98 program.  It is based on
 the Gaussian 94(TM) system (copyright 1995 Gaussian, Inc.),
 the Gaussian 92(TM) system (copyright 1992 Gaussian, Inc.),
 the Gaussian 90(TM) system (copyright 1990 Gaussian, Inc.),
 the Gaussian 88(TM) system (copyright 1988 Gaussian, Inc.),
 the Gaussian 86(TM) system (copyright 1986 Carnegie Mellon
 University), and the Gaussian 82(TM) system (copyright 1983
 Carnegie Mellon University). Gaussian is a federally registered
 trademark of Gaussian, Inc.
  
 This software contains proprietary and confidential information,
 including trade secrets, belonging to Gaussian, Inc.
  
 This software is provided under written license and may be
 used, copied, transmitted, or stored only in accord with that
 written license.
  
 The following legend is applicable only to US Government
 contracts under DFARS:
  
                    RESTRICTED RIGHTS LEGEND
  
 Use, duplication or disclosure by the US Government is subject
 to restrictions as set forth in subparagraph (c)(1)(ii) of the
 Rights in Technical Data and Computer Software clause at DFARS
 252.227-7013.
  
 Gaussian, Inc.
 Carnegie Office Park, Building 6, Pittsburgh, PA 15106 USA
  
 The following legend is applicable only to US Government
 contracts under FAR:
  
                    RESTRICTED RIGHTS LEGEND
  
 Use, reproduction and disclosure by the US Government is subject
 to restrictions as set forth in subparagraph (c) of the
 Commercial Computer Software - Restricted Rights clause at FAR
 52.227-19.
  
 Gaussian, Inc.
 Carnegie Office Park, Building 6, Pittsburgh, PA 15106 USA
  
  
 ---------------------------------------------------------------
 Warning -- This program may not be used in any manner that
 competes with the business of Gaussian, Inc. or will provide
 assistance to any competitor of Gaussian, Inc.  The licensee
 of this program is prohibited from giving any competitor of
 Gaussian, Inc. access to this program.  By using this program,
 the user acknowledges that Gaussian, Inc. is engaged in the
 business of creating and licensing software in the field of
 computational chemistry and represents and warrants to the
 licensee that it is not a competitor of Gaussian, Inc. and that
 it will not use this program in any manner prohibited above.
 ---------------------------------------------------------------
  

 Cite this work as:
 Gaussian 98, Revision A.6,
 M. J. Frisch, G. W. Trucks, H. B. Schlegel, G. E. Scuseria, 
 M. A. Robb, J. R. Cheeseman, V. G. Zakrzewski, J. A. Montgomery, Jr., 
 R. E. Stratmann, J. C. Burant, S. Dapprich, J. M. Millam, 
 A. D. Daniels, K. N. Kudin, M. C. Strain, O. Farkas, J. Tomasi, 
 V. Barone, M. Cossi, R. Cammi, B. Mennucci, C. Pomelli, C. Adamo, 
 S. Clifford, J. Ochterski, G. A. Petersson, P. Y. Ayala, Q. Cui, 
 K. Morokuma, D. K. Malick, A. D. Rabuck, K. Raghavachari, 
 J. B. Foresman, J. Cioslowski, J. V. Ortiz, B. B. Stefanov, G. Liu, 
 A. Liashenko, P. Piskorz, I. Komaromi, R. Gomperts, R. L. Martin, 
 D. J. Fox, T. Keith, M. A. Al-Laham, C. Y. Peng, A. Nanayakkara, 
 C. Gonzalez, M. Challacombe, P. M. W. Gill, B. Johnson, W. Chen, 
 M. W. Wong, J. L. Andres, C. Gonzalez, M. Head-Gordon, 
 E. S. Replogle, and J. A. Pople, 
 Gaussian, Inc., Pittsburgh PA, 1998.

 **********************************************
 Gaussian 98:  IBM-RS6000-G98RevA.6 19-Oct-1998
                  15-Jan-2002 
 **********************************************
 %mem=24000000
 --------------------
 #MP2/6-311+G(3df,2p)
 --------------------
 1/38=1/1;
 2/17=6,18=5/2;
 3/5=4,6=6,7=216,11=9,25=1,30=1/1,2,3;
 4//1;
 5/5=2,38=4/2;
 8/10=1,23=2/1;
 9/16=-3/6;
 6/7=2,8=2,9=2,10=2/1;
 99/5=1,9=1/99;
 -------------------------------
 1H pyrazole C3H4N2 casno=288131
 -------------------------------
 Symbolic Z-matrix:
 Charge =  0 Multiplicity = 1
 H                    -1.9125    0.       -0.75938 
 C                    -1.08438   0.       -0.21875 
 H                     0.43438   0.       -1.63125 
 C                     0.15      0.       -0.68438 
 H                     1.9125    0.        0.37188 
 C                     0.92188   0.        0.375 
 N                     0.18125   0.        1.41875 
 H                    -1.74063   0.        1.63125 
 N                    -1.00313   0.        1.05313 
 ------------------------------------------------------------------------
                         Z-MATRIX (ANGSTROMS AND DEGREES)
 CD Cent Atom  N1     Length/X     N2    Alpha/Y     N3     Beta/Z      J
 ------------------------------------------------------------------------
   1   1  H     0  -1.912500          0.000000         -0.759375
   2   2  C     0  -1.084375          0.000000         -0.218750
   3   3  H     0   0.434375          0.000000         -1.631250
   4   4  C     0   0.150000          0.000000         -0.684375
   5   5  H     0   1.912500          0.000000          0.371875
   6   6  C     0   0.921875          0.000000          0.375000
   7   7  N     0   0.181250          0.000000          1.418750
   8   8  H     0  -1.740625          0.000000          1.631250
   9   9  N     0  -1.003125          0.000000          1.053125
 ------------------------------------------------------------------------
                         Z-Matrix orientation:                         
 ---------------------------------------------------------------------
 Center     Atomic     Atomic              Coordinates (Angstroms)
 Number     Number      Type              X           Y           Z
 ---------------------------------------------------------------------
    1          1             0       -1.912500    0.000000   -0.759375
    2          6             0       -1.084375    0.000000   -0.218750
    3          1             0        0.434375    0.000000   -1.631250
    4          6             0        0.150000    0.000000   -0.684375
    5          1             0        1.912500    0.000000    0.371875
    6          6             0        0.921875    0.000000    0.375000
    7          7             0        0.181250    0.000000    1.418750
    8          1             0       -1.740625    0.000000    1.631250
    9          7             0       -1.003125    0.000000    1.053125
 ---------------------------------------------------------------------
                    Distance matrix (angstroms):
                    1          2          3          4          5
     1  H    0.000000
     2  C    0.988972   0.000000
     3  H    2.503595   2.074068   0.000000
     4  C    2.063863   1.319276   0.988656   0.000000
     5  H    3.988778   3.054521   2.489450   2.054768   0.000000
     6  C    3.052947   2.092266   2.064630   1.310750   0.990630
     7  N    3.021261   2.069592   3.060486   2.103357   2.023159
     8  H    2.396796   1.962948   3.921037   2.989412   3.864110
     9  N    2.027836   1.274468   3.045041   2.085331   2.994156
                    6          7          8          9
     6  C    0.000000
     7  N    1.279820   0.000000
     8  H    2.943989   1.933587   0.000000
     9  N    2.040950   1.239526   0.937088   0.000000
                           Interatomic angles:
       H1-C2-H3=103.9382       H1-C2-C4=126.195        H1-C4-H3=104.634 
       C2-C4-H3=127.3838       H1-H3-H5=106.0437       C2-H3-H5= 83.4999
       H1-C4-H5=151.1487       C2-C4-H5=128.3989       H3-C4-H5=104.2173
       H1-C2-C6=163.3484       H1-H3-C6= 83.2774       C2-H3-C6= 60.7336
       H1-C4-C6=128.1602       C2-C4-C6=105.4104       H3-C4-C6=127.2058
       C2-C6-H5=163.3331       H3-C6-H5=103.4769       C4-C6-H5=125.8968
       H1-C2-N7=160.8382       H3-C2-N7= 95.2236       H1-C4-N7= 92.9339
       C4-C2-N7= 72.9668       H3-C4-N7=162.4321       C2-N7-H5= 96.5394
       H3-H5-N7= 84.7371       C4-H5-N7= 62.0949       C2-N7-C6= 73.0592
       H3-C6-N7=130.9836       C4-C6-N7=108.5636       H5-C6-N7=125.5395
       H1-C2-H8=103.6066       H3-H1-H8=106.268        H3-C2-H8=152.4552
       C4-H1-H8= 83.8052       C4-C2-H8=130.1983       H3-C4-H8=157.4862
       H5-C4-H8= 98.2965       H1-H8-C6= 68.8528       C6-C2-H8= 93.045 
       H3-C6-H8=101.6017       C4-C6-H8= 79.1818       H5-C6-H8=154.9214
       H1-H8-N7= 87.8027       C2-H8-N7= 64.1594       C4-N7-H8= 95.4582
       H5-N7-H8=155.1484       C6-N7-H8=131.6683       H1-C2-N9=126.7929
       H3-H1-N9= 83.7362       H3-C2-N9=129.2689       C4-H1-N9= 61.2734
       C4-C2-N9=107.012        H3-C4-N9=163.1456       H1-N9-H5=103.4925
       C2-N9-H5= 80.5037       H3-H5-N9= 66.7275       H5-C4-N9= 92.6371
       H1-N9-C6= 97.2381       C2-N9-C6= 74.2492       H3-C6-N9= 95.7483
       C4-C6-N9= 73.3284       H5-C6-N9=160.7748       H1-N9-N7=133.7999
       C2-N9-N7=110.811        C4-N9-N7= 73.5848       H5-N7-N9=131.6831
       C6-N7-N9=108.203        H1-N9-H8=101.4488       C2-N9-H8=124.4376
       C4-N9-H8=161.6638       H5-N9-H8=155.0587       C6-N9-H8=161.3131
       N7-N9-H8=124.7513
 Stoichiometry    C3H4N2
 Framework group  CS[SG(C3H4N2)]
 Deg. of freedom   15
 Full point group                 CS      NOp   2
 Largest Abelian subgroup         CS      NOp   2
 Largest concise Abelian subgroup C1      NOp   1
                         Standard orientation:                         
 ---------------------------------------------------------------------
 Center     Atomic     Atomic              Coordinates (Angstroms)
 Number     Number      Type              X           Y           Z
 ---------------------------------------------------------------------
    1          1             0        1.974407    0.585689    0.000000
    2          6             0        1.028833    0.295936    0.000000
    3          1             0        1.140941   -1.775099    0.000000
    4          6             0        0.595873   -0.950271    0.000000
    5          1             0       -1.344123   -1.627388    0.000000
    6          6             0       -0.712074   -0.864589    0.000000
    7          7             0       -1.039336    0.372682    0.000000
    8          1             0        0.028336    1.984773    0.000000
    9          7             0        0.000000    1.048113    0.000000
 ---------------------------------------------------------------------
 Rotational constants (GHZ):     11.1878032     10.4520048      5.4036973
 Isotopes: H-1,C-12,H-1,C-12,H-1,C-12,N-14,H-1,N-14
 Standard basis: 6-311+G(3df,2p) (5D, 7F)
 There are   158 symmetry adapted basis functions of A'  symmetry.
 There are    73 symmetry adapted basis functions of A"  symmetry.
 Crude estimate of integral set expansion from redundant integrals=1.000.
 Integral buffers will be    262144 words long.
 Raffenetti 1 integral format.
 Two-electron integral symmetry is turned on.
   231 basis functions      334 primitive gaussians
    18 alpha electrons       18 beta electrons
       nuclear repulsion energy       173.7391879471 Hartrees.
 One-electron integrals computed using PRISM.
 NBasis=   231 RedAO= T  NBF=   158    73
 NBsUse=   231 1.00D-04 NBFU=   158    73
 Projected INDO Guess.
 Initial guess orbital symmetries:
       Occupied  (A') (A') (A') (A') (A') (A') (A') (A') (A') (A')
                 (A') (A") (A') (A') (A') (A") (A') (A")
       Virtual   (A") (A') (A') (A") (A') (A') (A') (A') (A') (A')
                 (A') (A') (A') (A') (A') (A') (A') (A') (A') (A')
                 (A') (A') (A') (A') (A') (A') (A') (A') (A') (A')
                 (A') (A') (A') (A') (A') (A') (A') (A') (A') (A')
                 (A') (A') (A') (A') (A') (A') (A') (A') (A') (A')
                 (A') (A') (A') (A') (A') (A') (A') (A') (A') (A')
                 (A') (A') (A') (A') (A') (A') (A') (A') (A') (A')
                 (A') (A') (A') (A') (A') (A') (A') (A') (A') (A')
                 (A') (A') (A') (A') (A') (A') (A') (A') (A') (A')
                 (A') (A') (A') (A') (A') (A') (A') (A') (A') (A')
                 (A') (A') (A') (A') (A') (A') (A') (A') (A') (A')
                 (A') (A') (A') (A') (A') (A') (A') (A') (A') (A')
                 (A') (A') (A') (A') (A') (A') (A') (A') (A') (A')
                 (A') (A') (A') (A') (A') (A') (A') (A') (A') (A')
                 (A') (A') (A') (A') (A') (A") (A") (A") (A") (A")
                 (A") (A") (A") (A") (A") (A") (A") (A") (A") (A")
                 (A") (A") (A") (A") (A") (A") (A") (A") (A") (A")
                 (A") (A") (A") (A") (A") (A") (A") (A") (A") (A")
                 (A") (A") (A") (A") (A") (A") (A") (A") (A") (A")
                 (A") (A") (A") (A") (A") (A") (A") (A") (A") (A")
                 (A") (A") (A") (A") (A") (A") (A") (A") (A") (A")
                 (A") (A") (A")
 Requested convergence on RMS density matrix=1.00D-08 within  64 cycles.
 Requested convergence on MAX density matrix=1.00D-06.
 SCF Done:  E(RHF) =  -224.824620695     A.U. after   14 cycles
             Convg  =    0.3280D-08             -V/T =  1.9933
             S**2   =   0.0000
 Range of M.O.s used for correlation:     6   231
 NBasis=   231 NAE=    18 NBE=    18 NFC=     5 NFV=     0
 NROrb=    226 NOA=    13 NOB=    13 NVA=   213 NVB=   213

 **** Warning!!: The largest alpha MO coefficient is  0.70220405D+02

 Fully direct method using O(OVN) memory.
 JobTyp=1 Pass  1:  I=   1 to  13.
 Spin components of T(2) and E(2):
     alpha-alpha T2 =       0.3610800258D-01 E2=     -0.1139892521D+00
     alpha-beta  T2 =       0.1864294589D+00 E2=     -0.6418464009D+00
     beta-beta   T2 =       0.3610800258D-01 E2=     -0.1139892521D+00
 ANorm=    0.1121893696D+01
 E2 =    -0.8698249051D+00 EUMP2 =    -0.22569444559976D+03

 **********************************************************************

            Population analysis using the SCF density.

 **********************************************************************

 Orbital Symmetries:
       Occupied  (A') (A') (A') (A') (A') (A') (A') (A') (A') (A')
                 (A') (A') (A") (A') (A') (A') (A") (A")
       Virtual   (A') (A') (A') (A') (A") (A') (A") (A') (A") (A')
                 (A') (A") (A') (A') (A") (A') (A') (A") (A') (A')
                 (A") (A') (A') (A') (A') (A') (A') (A') (A") (A')
                 (A') (A') (A") (A') (A") (A') (A") (A') (A") (A')
                 (A') (A") (A') (A') (A') (A") (A') (A') (A") (A')
                 (A") (A') (A") (A') (A') (A') (A") (A') (A") (A')
                 (A') (A') (A') (A') (A") (A') (A') (A') (A") (A")
                 (A') (A") (A') (A') (A") (A') (A") (A') (A") (A')
                 (A') (A') (A') (A') (A') (A") (A') (A') (A") (A')
                 (A') (A') (A') (A") (A") (A') (A') (A') (A') (A")
                 (A") (A") (A') (A') (A') (A') (A') (A") (A') (A")
                 (A') (A') (A") (A') (A') (A') (A") (A") (A') (A")
                 (A") (A') (A') (A") (A') (A') (A") (A') (A") (A')
                 (A") (A') (A') (A") (A') (A") (A') (A') (A") (A')
                 (A') (A") (A') (A') (A") (A') (A") (A') (A') (A')
                 (A") (A') (A') (A') (A") (A') (A') (A') (A") (A')
                 (A") (A") (A') (A') (A") (A') (A") (A') (A') (A")
                 (A") (A') (A') (A') (A") (A') (A') (A') (A') (A')
                 (A') (A") (A') (A") (A') (A") (A") (A') (A') (A')
                 (A") (A") (A') (A') (A') (A') (A') (A') (A") (A")
                 (A") (A') (A') (A') (A") (A') (A') (A') (A') (A')
                 (A') (A') (A')
  The electronic state is 1-A'.
 Alpha  occ. eigenvalues --  -15.63422 -15.56013 -11.23305 -11.21092 -11.17761
 Alpha  occ. eigenvalues --   -1.45772  -1.13255  -1.08671  -0.87037  -0.83823
 Alpha  occ. eigenvalues --   -0.77786  -0.65807  -0.65633  -0.61459  -0.57245
 Alpha  occ. eigenvalues --   -0.44516  -0.37976  -0.34826
 Alpha virt. eigenvalues --    0.05586   0.07470   0.08482   0.10654   0.11105
 Alpha virt. eigenvalues --    0.11375   0.13084   0.14939   0.14965   0.16833
 Alpha virt. eigenvalues --    0.17920   0.19674   0.19784   0.21290   0.23265
 Alpha virt. eigenvalues --    0.24436   0.27205   0.27609   0.29725   0.29889
 Alpha virt. eigenvalues --    0.30249   0.31587   0.32528   0.34376   0.37367
 Alpha virt. eigenvalues --    0.39558   0.42401   0.47025   0.47233   0.50454
 Alpha virt. eigenvalues --    0.51534   0.57049   0.59941   0.60446   0.62111
 Alpha virt. eigenvalues --    0.62113   0.64161   0.65881   0.67352   0.68251
 Alpha virt. eigenvalues --    0.70442   0.71561   0.72691   0.73631   0.77694
 Alpha virt. eigenvalues --    0.80190   0.80233   0.82136   0.83386   0.84520
 Alpha virt. eigenvalues --    0.85948   0.88090   0.91376   0.93757   0.96785
 Alpha virt. eigenvalues --    0.98064   0.99689   1.00462   1.02223   1.05742
 Alpha virt. eigenvalues --    1.10428   1.13664   1.16417   1.20984   1.21713
 Alpha virt. eigenvalues --    1.21769   1.25259   1.27041   1.28375   1.29137
 Alpha virt. eigenvalues --    1.29264   1.31932   1.32293   1.37457   1.40058
 Alpha virt. eigenvalues --    1.41344   1.41568   1.44387   1.47003   1.48121
 Alpha virt. eigenvalues --    1.49419   1.57601   1.61875   1.63869   1.70676
 Alpha virt. eigenvalues --    1.73540   1.74219   1.78721   1.83724   1.89147
 Alpha virt. eigenvalues --    1.90317   1.92134   1.93391   1.94396   2.12398
 Alpha virt. eigenvalues --    2.15275   2.20663   2.26651   2.34999   2.42923
 Alpha virt. eigenvalues --    2.43724   2.43869   2.48039   2.50999   2.56941
 Alpha virt. eigenvalues --    2.64790   2.70219   2.72147   2.85077   2.85163
 Alpha virt. eigenvalues --    2.93094   2.99871   3.02642   3.03226   3.08171
 Alpha virt. eigenvalues --    3.10424   3.12683   3.16495   3.20224   3.28983
 Alpha virt. eigenvalues --    3.32992   3.36608   3.38784   3.39459   3.44390
 Alpha virt. eigenvalues --    3.46761   3.49982   3.52558   3.60424   3.66067
 Alpha virt. eigenvalues --    3.72012   3.72679   3.75997   3.81465   3.91378
 Alpha virt. eigenvalues --    3.94649   3.95489   4.07107   4.10120   4.21413
 Alpha virt. eigenvalues --    4.26124   4.31402   4.32061   4.35573   4.42551
 Alpha virt. eigenvalues --    4.43837   4.46519   4.46554   4.50019   4.55230
 Alpha virt. eigenvalues --    4.58596   4.59247   4.64546   4.73439   4.75015
 Alpha virt. eigenvalues --    4.76940   4.78436   4.79005   4.84184   4.90202
 Alpha virt. eigenvalues --    4.96428   5.02835   5.10313   5.15804   5.31723
 Alpha virt. eigenvalues --    5.37016   5.40998   5.42551   5.53435   5.58983
 Alpha virt. eigenvalues --    5.65788   5.72964   5.82868   5.87575   5.94591
 Alpha virt. eigenvalues --    6.07540   6.26072   6.38406   6.91018   7.09911
 Alpha virt. eigenvalues --    7.34315   7.61948   7.66013   7.69129   7.69990
 Alpha virt. eigenvalues --    7.78090   7.79782   7.87725   7.94794   8.01545
 Alpha virt. eigenvalues --    8.06550   8.11970   8.31031   8.60672   8.83051
 Alpha virt. eigenvalues --    8.95331   9.09436   9.14136  10.76727  11.10064
 Alpha virt. eigenvalues --   11.17397  11.20252  11.38001  11.52732  11.56726
 Alpha virt. eigenvalues --   11.93300  12.26426  12.94174  26.07596  27.21789
 Alpha virt. eigenvalues --   27.44462  37.88387  38.34980
          Condensed to atoms (all electrons):
              1          2          3          4          5          6
  1  H    0.466949   0.549849  -0.001892  -0.131321  -0.000106   0.004849
  2  C    0.549849   5.406372  -0.100216  -0.026603   0.008876  -0.314467
  3  H   -0.001892  -0.100216   0.486312   0.559038  -0.002040  -0.097403
  4  C   -0.131321  -0.026603   0.559038   6.223522  -0.168265  -0.161263
  5  H   -0.000106   0.008876  -0.002040  -0.168265   0.479122   0.573267
  6  C    0.004849  -0.314467  -0.097403  -0.161263   0.573267   5.390234
  7  N    0.008211  -0.176181   0.000419  -0.082229  -0.058821   0.446049
  8  H   -0.001040  -0.037972   0.000113   0.001750   0.000003  -0.002326
  9  N   -0.055217   0.283059   0.009475  -0.201912   0.017229  -0.157511
              7          8          9
  1  H    0.008211  -0.001040  -0.055217
  2  C   -0.176181  -0.037972   0.283059
  3  H    0.000419   0.000113   0.009475
  4  C   -0.082229   0.001750  -0.201912
  5  H   -0.058821   0.000003   0.017229
  6  C    0.446049  -0.002326  -0.157511
  7  N    8.496053  -0.078775  -0.679513
  8  H   -0.078775   0.433991   0.485398
  9  N   -0.679513   0.485398   7.792424
 Total atomic charges:
              1
  1  H    0.159718
  2  C    0.407284
  3  H    0.146194
  4  C   -0.012717
  5  H    0.150735
  6  C    0.318572
  7  N   -0.875213
  8  H    0.198857
  9  N   -0.493431
 Sum of Mulliken charges=   0.00000
 Atomic charges with hydrogens summed into heavy atoms:
              1
  1  H    0.000000
  2  C    0.567002
  3  H    0.000000
  4  C    0.133477
  5  H    0.000000
  6  C    0.469307
  7  N   -0.875213
  8  H    0.000000
  9  N   -0.294574
 Sum of Mulliken charges=   0.00000
 Electronic spatial extent (au):  <R**2>=   259.7209
 Charge=     0.0000 electrons
 Dipole moment (Debye):
    X=     2.2026    Y=     0.8364    Z=     0.0000  Tot=     2.3560
 Quadrupole moment (Debye-Ang):
   XX=   -30.2486   YY=   -22.1620   ZZ=   -31.4741
   XY=     2.7610   XZ=     0.0000   YZ=     0.0000
 Octapole moment (Debye-Ang**2):
  XXX=     9.3655  YYY=    10.8737  ZZZ=     0.0000  XYY=     0.4170
  XXY=    -2.5600  XXZ=     0.0000  XZZ=    -0.7092  YZZ=     2.0717
  YYZ=     0.0000  XYZ=     0.0000
 Hexadecapole moment (Debye-Ang**3):
 XXXX=  -155.9354 YYYY=  -122.1301 ZZZZ=   -35.0273 XXXY=     8.3759
 XXXZ=     0.0000 YYYX=     0.6756 YYYZ=     0.0000 ZZZX=     0.0000
 ZZZY=     0.0000 XXYY=   -48.1570 XXZZ=   -34.9838 YYZZ=   -34.3252
 XXYZ=     0.0000 YYXZ=     0.0000 ZZXY=     0.1189
 N-N= 1.737391879471D+02 E-N=-8.741665767464D+02  KE= 2.263469189797D+02
 Symmetry A'   KE= 2.184552796583D+02
 Symmetry A"   KE= 7.891639321474D+00
 1\1\GINC-PLUMBUM\SP\RMP2-FC\6-311+G(3df,2p)\C3H4N2\RDJ3\15-Jan-2002\0\
 \#MP2/6-311+G(3DF,2P)\\1H pyrazole C3H4N2 casno=288131\\0,1\H,0,-1.912
 5,0.,-0.759375\C,0,-1.084375,0.,-0.21875\H,0,0.434375,0.,-1.63125\C,0,
 0.15,0.,-0.684375\H,0,1.9125,0.,0.371875\C,0,0.921875,0.,0.375\N,0,0.1
 8125,0.,1.41875\H,0,-1.740625,0.,1.63125\N,0,-1.003125,0.,1.053125\\Ve
 rsion=IBM-RS6000-G98RevA.6\State=1-A'\HF=-224.8246207\MP2=-225.6944456
 \RMSD=3.280e-09\PG=CS [SG(C3H4N2)]\\@


 THE FIRST MORNING OF CREATION WROTE WHAT THE LAST DAWN OF
 RECKONING SHALL READ. -- OMAR KHAYYAM
 Job cpu time:  0 days  1 hours  8 minutes 48.6 seconds.
 File lengths (MBytes):  RWF=   33 Int=    0 D2E=    0 Chk=    7 Scr=    1
 Normal termination of Gaussian 98.
