 Entering Gaussian System, Link 0=g98
 Initial command:
 /usr/local/apps/g98a6/g98/l1.exe /wrk/rdj3/Gau-17892.inp -scrdir=/wrk/rdj3/
 Entering Link 1 = /usr/local/apps/g98a6/g98/l1.exe PID=     15054.
  
 Copyright (c) 1988,1990,1992,1993,1995,1998 Gaussian, Inc.
                  All Rights Reserved.
  
 This is part of the Gaussian(R) 98 program.  It is based on
 the Gaussian 94(TM) system (copyright 1995 Gaussian, Inc.),
 the Gaussian 92(TM) system (copyright 1992 Gaussian, Inc.),
 the Gaussian 90(TM) system (copyright 1990 Gaussian, Inc.),
 the Gaussian 88(TM) system (copyright 1988 Gaussian, Inc.),
 the Gaussian 86(TM) system (copyright 1986 Carnegie Mellon
 University), and the Gaussian 82(TM) system (copyright 1983
 Carnegie Mellon University). Gaussian is a federally registered
 trademark of Gaussian, Inc.
  
 This software contains proprietary and confidential information,
 including trade secrets, belonging to Gaussian, Inc.
  
 This software is provided under written license and may be
 used, copied, transmitted, or stored only in accord with that
 written license.
  
 The following legend is applicable only to US Government
 contracts under DFARS:
  
                    RESTRICTED RIGHTS LEGEND
  
 Use, duplication or disclosure by the US Government is subject
 to restrictions as set forth in subparagraph (c)(1)(ii) of the
 Rights in Technical Data and Computer Software clause at DFARS
 252.227-7013.
  
 Gaussian, Inc.
 Carnegie Office Park, Building 6, Pittsburgh, PA 15106 USA
  
 The following legend is applicable only to US Government
 contracts under FAR:
  
                    RESTRICTED RIGHTS LEGEND
  
 Use, reproduction and disclosure by the US Government is subject
 to restrictions as set forth in subparagraph (c) of the
 Commercial Computer Software - Restricted Rights clause at FAR
 52.227-19.
  
 Gaussian, Inc.
 Carnegie Office Park, Building 6, Pittsburgh, PA 15106 USA
  
  
 ---------------------------------------------------------------
 Warning -- This program may not be used in any manner that
 competes with the business of Gaussian, Inc. or will provide
 assistance to any competitor of Gaussian, Inc.  The licensee
 of this program is prohibited from giving any competitor of
 Gaussian, Inc. access to this program.  By using this program,
 the user acknowledges that Gaussian, Inc. is engaged in the
 business of creating and licensing software in the field of
 computational chemistry and represents and warrants to the
 licensee that it is not a competitor of Gaussian, Inc. and that
 it will not use this program in any manner prohibited above.
 ---------------------------------------------------------------
  

 Cite this work as:
 Gaussian 98, Revision A.6,
 M. J. Frisch, G. W. Trucks, H. B. Schlegel, G. E. Scuseria, 
 M. A. Robb, J. R. Cheeseman, V. G. Zakrzewski, J. A. Montgomery, Jr., 
 R. E. Stratmann, J. C. Burant, S. Dapprich, J. M. Millam, 
 A. D. Daniels, K. N. Kudin, M. C. Strain, O. Farkas, J. Tomasi, 
 V. Barone, M. Cossi, R. Cammi, B. Mennucci, C. Pomelli, C. Adamo, 
 S. Clifford, J. Ochterski, G. A. Petersson, P. Y. Ayala, Q. Cui, 
 K. Morokuma, D. K. Malick, A. D. Rabuck, K. Raghavachari, 
 J. B. Foresman, J. Cioslowski, J. V. Ortiz, B. B. Stefanov, G. Liu, 
 A. Liashenko, P. Piskorz, I. Komaromi, R. Gomperts, R. L. Martin, 
 D. J. Fox, T. Keith, M. A. Al-Laham, C. Y. Peng, A. Nanayakkara, 
 C. Gonzalez, M. Challacombe, P. M. W. Gill, B. Johnson, W. Chen, 
 M. W. Wong, J. L. Andres, C. Gonzalez, M. Head-Gordon, 
 E. S. Replogle, and J. A. Pople, 
 Gaussian, Inc., Pittsburgh PA, 1998.

 **********************************************
 Gaussian 98:  IBM-RS6000-G98RevA.6 19-Oct-1998
                  11-Jan-2001 
 **********************************************
 %mem=24000000
 --------------------------
 #MPW1PW91/6-311G* opt freq
 --------------------------
 1/14=-1,18=20,26=3,38=1/1,3;
 2/9=110,17=6,18=5/2;
 3/5=4,6=6,7=1,11=2,25=1,30=1/1,2,3;
 4//1;
 5/5=2,38=4,42=-7/2;
 6/7=2,8=2,9=2,10=2,28=1/1;
 7//1,2,3,16;
 1/14=-1,18=20/3(1);
 99//99;
 2/9=110/2;
 3/5=4,6=6,7=1,11=2,25=1,30=1/1,2,3;
 4/5=5,16=2/1;
 5/5=2,38=4,42=-7/2;
 7//1,2,3,16;
 1/14=-1,18=20/3(-5);
 2/9=110/2;
 6/7=2,8=2,9=2,10=2,19=2,28=1/1;
 99/9=1/99;
 -------------------------------
 1H pyrazole C3H4N2 casno=288131
 -------------------------------
 Symbolic Z-matrix:
 Charge =  0 Multiplicity = 1
 H                    -1.9125    0.       -0.75938 
 C                    -1.08438   0.       -0.21875 
 H                     0.43438   0.       -1.63125 
 C                     0.15      0.       -0.68438 
 H                     1.9125    0.        0.37188 
 C                     0.92188   0.        0.375 
 N                     0.18125   0.        1.41875 
 H                    -1.74063   0.        1.63125 
 N                    -1.00313   0.        1.05313 

 GradGradGradGradGradGradGradGradGradGradGradGradGradGradGradGradGradGrad
 Berny optimization.
 Initialization pass.
                         ----------------------------
                         !    Initial Parameters    !
                         ! (Angstroms and Degrees)  !
 ------------------------                            -------------------------
 ! Name  Definition              Value          Derivative Info.             !
 -----------------------------------------------------------------------------
 ! R1    R(1,2)                  0.989          estimate D2E/DX2             !
 ! R2    R(2,4)                  1.3193         estimate D2E/DX2             !
 ! R3    R(2,9)                  1.2745         estimate D2E/DX2             !
 ! R4    R(3,4)                  0.9887         estimate D2E/DX2             !
 ! R5    R(4,6)                  1.3108         estimate D2E/DX2             !
 ! R6    R(5,6)                  0.9906         estimate D2E/DX2             !
 ! R7    R(6,7)                  1.2798         estimate D2E/DX2             !
 ! R8    R(7,9)                  1.2395         estimate D2E/DX2             !
 ! R9    R(8,9)                  0.9371         estimate D2E/DX2             !
 ! A1    A(1,2,4)              126.195          estimate D2E/DX2             !
 ! A2    A(1,2,9)              126.7929         estimate D2E/DX2             !
 ! A3    A(4,2,9)              107.012          estimate D2E/DX2             !
 ! A4    A(2,4,3)              127.3838         estimate D2E/DX2             !
 ! A5    A(2,4,6)              105.4104         estimate D2E/DX2             !
 ! A6    A(3,4,6)              127.2058         estimate D2E/DX2             !
 ! A7    A(4,6,5)              125.8968         estimate D2E/DX2             !
 ! A8    A(4,6,7)              108.5636         estimate D2E/DX2             !
 ! A9    A(5,6,7)              125.5395         estimate D2E/DX2             !
 ! A10   A(6,7,9)              108.203          estimate D2E/DX2             !
 ! A11   A(2,9,7)              110.811          estimate D2E/DX2             !
 ! A12   A(2,9,8)              124.4376         estimate D2E/DX2             !
 ! A13   A(7,9,8)              124.7513         estimate D2E/DX2             !
 ! D1    D(1,2,4,3)              0.             estimate D2E/DX2             !
 ! D2    D(1,2,4,6)            180.             estimate D2E/DX2             !
 ! D3    D(9,2,4,3)            180.             estimate D2E/DX2             !
 ! D4    D(9,2,4,6)              0.             estimate D2E/DX2             !
 ! D5    D(1,2,9,7)            180.             estimate D2E/DX2             !
 ! D6    D(1,2,9,8)              0.             estimate D2E/DX2             !
 ! D7    D(4,2,9,7)              0.             estimate D2E/DX2             !
 ! D8    D(4,2,9,8)            180.             estimate D2E/DX2             !
 ! D9    D(2,4,6,5)            180.             estimate D2E/DX2             !
 ! D10   D(2,4,6,7)              0.             estimate D2E/DX2             !
 ! D11   D(3,4,6,5)              0.             estimate D2E/DX2             !
 ! D12   D(3,4,6,7)            180.             estimate D2E/DX2             !
 ! D13   D(4,6,7,9)              0.             estimate D2E/DX2             !
 ! D14   D(5,6,7,9)            180.             estimate D2E/DX2             !
 ! D15   D(6,7,9,2)              0.             estimate D2E/DX2             !
 ! D16   D(6,7,9,8)            180.             estimate D2E/DX2             !
 -----------------------------------------------------------------------------
 Trust Radius=3.00D-01 FncErr=1.00D-07 GrdErr=1.00D-06
 Number of steps in this run=  48 maximum allowed number of steps= 100.
 GradGradGradGradGradGradGradGradGradGradGradGradGradGradGradGradGradGrad

                          Input orientation:                          
 ---------------------------------------------------------------------
 Center     Atomic     Atomic              Coordinates (Angstroms)
 Number     Number      Type              X           Y           Z
 ---------------------------------------------------------------------
    1          1             0       -1.912500    0.000000   -0.759375
    2          6             0       -1.084375    0.000000   -0.218750
    3          1             0        0.434375    0.000000   -1.631250
    4          6             0        0.150000    0.000000   -0.684375
    5          1             0        1.912500    0.000000    0.371875
    6          6             0        0.921875    0.000000    0.375000
    7          7             0        0.181250    0.000000    1.418750
    8          1             0       -1.740625    0.000000    1.631250
    9          7             0       -1.003125    0.000000    1.053125
 ---------------------------------------------------------------------
                    Distance matrix (angstroms):
                    1          2          3          4          5
     1  H    0.000000
     2  C    0.988972   0.000000
     3  H    2.503595   2.074068   0.000000
     4  C    2.063863   1.319276   0.988656   0.000000
     5  H    3.988778   3.054521   2.489450   2.054768   0.000000
     6  C    3.052947   2.092266   2.064630   1.310750   0.990630
     7  N    3.021261   2.069592   3.060486   2.103357   2.023159
     8  H    2.396796   1.962948   3.921037   2.989412   3.864110
     9  N    2.027836   1.274468   3.045041   2.085331   2.994156
                    6          7          8          9
     6  C    0.000000
     7  N    1.279820   0.000000
     8  H    2.943989   1.933587   0.000000
     9  N    2.040950   1.239526   0.937088   0.000000
 Stoichiometry    C3H4N2
 Framework group  CS[SG(C3H4N2)]
 Deg. of freedom   15
 Full point group                 CS      NOp   2
 Largest Abelian subgroup         CS      NOp   2
 Largest concise Abelian subgroup C1      NOp   1
                         Standard orientation:                         
 ---------------------------------------------------------------------
 Center     Atomic     Atomic              Coordinates (Angstroms)
 Number     Number      Type              X           Y           Z
 ---------------------------------------------------------------------
    1          1             0        1.974407    0.585689    0.000000
    2          6             0        1.028833    0.295936    0.000000
    3          1             0        1.140941   -1.775099    0.000000
    4          6             0        0.595873   -0.950271    0.000000
    5          1             0       -1.344123   -1.627388    0.000000
    6          6             0       -0.712074   -0.864589    0.000000
    7          7             0       -1.039336    0.372682    0.000000
    8          1             0        0.028336    1.984773    0.000000
    9          7             0        0.000000    1.048113    0.000000
 ---------------------------------------------------------------------
 Rotational constants (GHZ):     11.1878032     10.4520048      5.4036973
 Isotopes: H-1,C-12,H-1,C-12,H-1,C-12,N-14,H-1,N-14
 Standard basis: 6-311G(d) (5D, 7F)
 There are    77 symmetry adapted basis functions of A'  symmetry.
 There are    25 symmetry adapted basis functions of A"  symmetry.
 Crude estimate of integral set expansion from redundant integrals=1.000.
 Integral buffers will be    262144 words long.
 Raffenetti 2 integral format.
 Two-electron integral symmetry is turned on.
   102 basis functions      180 primitive gaussians
    18 alpha electrons       18 beta electrons
       nuclear repulsion energy       173.7391879471 Hartrees.
 One-electron integrals computed using PRISM.
 NBasis=   102 RedAO= T  NBF=    77    25
 NBsUse=   102 1.00D-04 NBFU=    77    25
 Projected INDO Guess.
 Initial guess orbital symmetries:
       Occupied  (A') (A') (A') (A') (A') (A') (A') (A') (A') (A')
                 (A') (A") (A') (A') (A') (A") (A') (A")
       Virtual   (A") (A') (A') (A") (A') (A') (A') (A') (A') (A')
                 (A') (A') (A') (A') (A') (A') (A') (A') (A') (A')
                 (A') (A') (A') (A') (A') (A') (A') (A') (A') (A')
                 (A') (A') (A') (A') (A') (A') (A') (A') (A') (A')
                 (A') (A') (A') (A') (A') (A') (A') (A') (A') (A')
                 (A') (A') (A') (A') (A') (A') (A') (A') (A') (A')
                 (A') (A') (A') (A') (A") (A") (A") (A") (A") (A")
                 (A") (A") (A") (A") (A") (A") (A") (A") (A") (A")
                 (A") (A") (A") (A")
 Requested convergence on RMS density matrix=1.00D-08 within  64 cycles.
 Requested convergence on MAX density matrix=1.00D-06.
 Integral accuracy reduced to 1.0D-05 until final iterations.
 Initial convergence to 1.0D-05 achieved.  Increase integral accuracy.
 SCF Done:  E(RmPW+HF-PW91) =  -226.131323220     A.U. after   13 cycles
             Convg  =    0.9899D-08             -V/T =  1.9959
             S**2   =   0.0000

 **********************************************************************

            Population analysis using the SCF density.

 **********************************************************************

 Orbital Symmetries:
       Occupied  (A') (A') (A') (A') (A') (A') (A') (A') (A') (A')
                 (A') (A") (A') (A') (A') (A') (A") (A")
       Virtual   (A") (A') (A') (A") (A') (A') (A') (A') (A') (A')
                 (A') (A") (A') (A') (A") (A') (A') (A") (A') (A')
                 (A") (A') (A') (A') (A') (A') (A") (A') (A') (A')
                 (A') (A') (A") (A') (A') (A") (A') (A") (A') (A")
                 (A') (A") (A') (A') (A') (A') (A') (A") (A") (A')
                 (A') (A') (A") (A') (A') (A") (A') (A') (A") (A")
                 (A') (A") (A') (A") (A') (A') (A') (A') (A') (A')
                 (A') (A") (A') (A") (A') (A') (A') (A') (A') (A')
                 (A') (A') (A') (A')
  The electronic state is 1-A'.
 Alpha  occ. eigenvalues --  -14.46061 -14.37981 -10.23191 -10.21171 -10.18680
 Alpha  occ. eigenvalues --   -1.14583  -0.87175  -0.82974  -0.66918  -0.64071
 Alpha  occ. eigenvalues --   -0.58694  -0.49511  -0.49429  -0.45509  -0.41611
 Alpha  occ. eigenvalues --   -0.28583  -0.28376  -0.25942
 Alpha virt. eigenvalues --    0.05240   0.05897   0.09839   0.10280   0.11202
 Alpha virt. eigenvalues --    0.14077   0.24940   0.25855   0.28615   0.28986
 Alpha virt. eigenvalues --    0.39176   0.40943   0.43414   0.46019   0.46845
 Alpha virt. eigenvalues --    0.48791   0.51071   0.53471   0.54984   0.62091
 Alpha virt. eigenvalues --    0.65124   0.65529   0.66403   0.70919   0.72781
 Alpha virt. eigenvalues --    0.74449   0.74452   0.79243   0.84658   0.87952
 Alpha virt. eigenvalues --    0.93846   0.96759   1.06624   1.06925   1.16988
 Alpha virt. eigenvalues --    1.18423   1.27553   1.30763   1.32825   1.42228
 Alpha virt. eigenvalues --    1.64416   1.65694   1.66838   1.74697   1.80635
 Alpha virt. eigenvalues --    1.87307   1.90634   1.98049   2.00390   2.08644
 Alpha virt. eigenvalues --    2.15395   2.25727   2.26631   2.34499   2.47790
 Alpha virt. eigenvalues --    2.50710   2.59171   2.62919   2.66329   2.76953
 Alpha virt. eigenvalues --    2.77740   2.87672   2.88418   3.01774   3.13226
 Alpha virt. eigenvalues --    3.28673   3.40615   3.43478   3.44790   3.55478
 Alpha virt. eigenvalues --    3.68096   3.69720   3.76546   3.97678   4.08864
 Alpha virt. eigenvalues --    4.25906   4.57516   4.68615   5.59807  23.64390
 Alpha virt. eigenvalues --   24.23620  24.57491  35.62417  35.88351
          Condensed to atoms (all electrons):
              1          2          3          4          5          6
  1  H    0.425395   0.388970   0.000447  -0.034749  -0.000353   0.004576
  2  C    0.388970   5.141900  -0.054211   0.498474   0.012353  -0.081790
  3  H    0.000447  -0.054211   0.455336   0.410725  -0.003315  -0.040677
  4  C   -0.034749   0.498474   0.410725   5.168679  -0.062427   0.537837
  5  H   -0.000353   0.012353  -0.003315  -0.062427   0.434030   0.415890
  6  C    0.004576  -0.081790  -0.040677   0.537837   0.415890   4.810287
  7  N    0.005248  -0.194562   0.012495  -0.040380  -0.025931   0.588242
  8  H   -0.002412  -0.064737  -0.000095   0.014138  -0.000405   0.002690
  9  N   -0.029429   0.334284   0.007784  -0.025594   0.003047  -0.196482
              7          8          9
  1  H    0.005248  -0.002412  -0.029429
  2  C   -0.194562  -0.064737   0.334284
  3  H    0.012495  -0.000095   0.007784
  4  C   -0.040380   0.014138  -0.025594
  5  H   -0.025931  -0.000405   0.003047
  6  C    0.588242   0.002690  -0.196482
  7  N    6.550860  -0.039566   0.349206
  8  H   -0.039566   0.364335   0.360895
  9  N    0.349206   0.360895   6.548803
 Total atomic charges:
              1
  1  H    0.242305
  2  C    0.019320
  3  H    0.211512
  4  C   -0.466703
  5  H    0.227112
  6  C   -0.040573
  7  N   -0.205613
  8  H    0.365156
  9  N   -0.352515
 Sum of Mulliken charges=   0.00000
 Atomic charges with hydrogens summed into heavy atoms:
              1
  1  H    0.000000
  2  C    0.261625
  3  H    0.000000
  4  C   -0.255191
  5  H    0.000000
  6  C    0.186538
  7  N   -0.205613
  8  H    0.000000
  9  N    0.012641
 Sum of Mulliken charges=   0.00000
 Electronic spatial extent (au):  <R**2>=   258.2331
 Charge=     0.0000 electrons
 Dipole moment (Debye):
    X=     2.0446    Y=     1.0339    Z=     0.0000  Tot=     2.2912
 Quadrupole moment (Debye-Ang):
   XX=   -29.5749   YY=   -21.6119   ZZ=   -30.6967
   XY=     2.4978   XZ=     0.0000   YZ=     0.0000
 Octapole moment (Debye-Ang**2):
  XXX=     8.1838  YYY=    11.1987  ZZZ=     0.0000  XYY=     0.4530
  XXY=    -2.2944  XXZ=     0.0000  XZZ=    -0.9332  YZZ=     2.2361
  YYZ=     0.0000  XYZ=     0.0000
 Hexadecapole moment (Debye-Ang**3):
 XXXX=  -150.3332 YYYY=  -119.7957 ZZZZ=   -31.0700 XXXY=     7.1812
 XXXZ=     0.0000 YYYX=     0.1859 YYYZ=     0.0000 ZZZX=     0.0000
 ZZZY=     0.0000 XXYY=   -46.7529 XXZZ=   -32.9407 YYZZ=   -32.7833
 XXYZ=     0.0000 YYXZ=     0.0000 ZZXY=    -0.2969
 N-N= 1.737391879471D+02 E-N=-8.756117994261D+02  KE= 2.270725085961D+02
 Symmetry A'   KE= 2.187344205571D+02
 Symmetry A"   KE= 8.338088039045D+00
 ***** Axes restored to original set *****
 -------------------------------------------------------------------
 Center     Atomic                   Forces (Hartrees/Bohr)
 Number     Number              X              Y              Z
 -------------------------------------------------------------------
    1          1          -0.075135220    0.000000000   -0.037964809
    2          6          -0.012397135    0.000000000   -0.049704736
    3          1           0.021318764    0.000000000   -0.081118308
    4          6          -0.013912770    0.000000000   -0.037279774
    5          1           0.081657269    0.000000000    0.011540333
    6          6          -0.001429593    0.000000000    0.021661987
    7          7           0.082954054    0.000000000    0.127616600
    8          1          -0.054538203    0.000000000    0.057414006
    9          7          -0.028517168    0.000000000   -0.012165299
 -------------------------------------------------------------------
 Cartesian Forces:  Max     0.127616600 RMS     0.045542266

 GradGradGradGradGradGradGradGradGradGradGradGradGradGradGradGradGradGrad
 Berny optimization.
 Internal  Forces:  Max     0.120399882 RMS     0.044957714
 Search for a local minimum.
 Step number   1 out of a maximum of  48
 All quantities printed in internal units (Hartrees-Bohrs-Radians)
 Second derivative matrix not updated -- first step.
     Eigenvalues ---    0.03204   0.03245   0.03263   0.03273   0.03342
     Eigenvalues ---    0.03375   0.16000   0.16000   0.16000   0.16000
     Eigenvalues ---    0.22000   0.22938   0.49374   0.49681   0.49740
     Eigenvalues ---    0.56490   0.56686   0.60708   0.68179   0.73042
     Eigenvalues ---    0.827791000.000001000.000001000.000001000.00000
     Eigenvalues --- 1000.000001000.000001000.000001000.000001000.00000
     Eigenvalues --- 1000.000001000.000001000.000001000.000001000.00000
     Eigenvalues --- 1000.000001000.000001000.00000
 RFO step:  Lambda=-1.07586763D-01.
 Linear search not attempted -- first point.
 Maximum step size (   0.300) exceeded in Quadratic search.
    -- Step size scaled by   0.744
 Iteration  1 RMS(Cart)=  0.06279215 RMS(Int)=  0.00078825
 Iteration  2 RMS(Cart)=  0.00100651 RMS(Int)=  0.00002057
 Iteration  3 RMS(Cart)=  0.00000073 RMS(Int)=  0.00002056
 Variable       Old X    -DE/DX   Delta X   Delta X   Delta X     New X
                                 (Linear)    (Quad)   (Total)
    R1        1.86889   0.08367   0.00000   0.10304   0.10304   1.97193
    R2        2.49307   0.07230   0.00000   0.07258   0.07261   2.56568
    R3        2.40839   0.10445   0.00000   0.09254   0.09252   2.50092
    R4        1.86829   0.08382   0.00000   0.10313   0.10313   1.97142
    R5        2.47696   0.12040   0.00000   0.11678   0.11681   2.59377
    R6        1.87202   0.08162   0.00000   0.10103   0.10103   1.97305
    R7        2.41851   0.06595   0.00000   0.05824   0.05823   2.47674
    R8        2.34237   0.11212   0.00000   0.08704   0.08700   2.42936
    R9        1.77084   0.07834   0.00000   0.08159   0.08159   1.85243
    A1        2.20252   0.01387   0.00000   0.03590   0.03589   2.23841
    A2        2.21295  -0.00349   0.00000  -0.01239  -0.01240   2.20055
    A3        1.86771  -0.01038   0.00000  -0.02351  -0.02349   1.84422
    A4        2.22327  -0.00222   0.00000  -0.00194  -0.00197   2.22130
    A5        1.83976  -0.00101   0.00000  -0.01130  -0.01124   1.82852
    A6        2.22016   0.00323   0.00000   0.01324   0.01321   2.23337
    A7        2.19731   0.00158   0.00000   0.01266   0.01265   2.20997
    A8        1.89479   0.01891   0.00000   0.03607   0.03609   1.93088
    A9        2.19108  -0.02049   0.00000  -0.04873  -0.04874   2.14233
   A10        1.88850  -0.02523   0.00000  -0.04846  -0.04852   1.83998
   A11        1.93402   0.01770   0.00000   0.04720   0.04716   1.98118
   A12        2.17185   0.00137   0.00000   0.00484   0.00486   2.17670
   A13        2.17732  -0.01907   0.00000  -0.05204  -0.05202   2.12530
    D1        0.00000   0.00000   0.00000   0.00000   0.00000   0.00000
    D2        3.14159   0.00000   0.00000   0.00000   0.00000   3.14159
    D3        3.14159   0.00000   0.00000   0.00000   0.00000   3.14159
    D4        0.00000   0.00000   0.00000   0.00000   0.00000   0.00000
    D5        3.14159   0.00000   0.00000   0.00000   0.00000   3.14159
    D6        0.00000   0.00000   0.00000   0.00000   0.00000   0.00000
    D7        0.00000   0.00000   0.00000   0.00000   0.00000   0.00000
    D8        3.14159   0.00000   0.00000   0.00000   0.00000   3.14159
    D9        3.14159   0.00000   0.00000   0.00000   0.00000   3.14159
   D10        0.00000   0.00000   0.00000   0.00000   0.00000   0.00000
   D11        0.00000   0.00000   0.00000   0.00000   0.00000   0.00000
   D12        3.14159   0.00000   0.00000   0.00000   0.00000   3.14159
   D13        0.00000   0.00000   0.00000   0.00000   0.00000   0.00000
   D14        3.14159   0.00000   0.00000   0.00000   0.00000   3.14159
   D15        0.00000   0.00000   0.00000   0.00000   0.00000   0.00000
   D16        3.14159   0.00000   0.00000   0.00000   0.00000   3.14159
         Item               Value     Threshold  Converged?
 Maximum Force            0.120400     0.000450     NO 
 RMS     Force            0.044958     0.000300     NO 
 Maximum Displacement     0.181454     0.001800     NO 
 RMS     Displacement     0.062765     0.001200     NO 
 Predicted change in Energy=-2.496073D-02
 GradGradGradGradGradGradGradGradGradGradGradGradGradGradGradGradGradGrad

                          Input orientation:                          
 ---------------------------------------------------------------------
 Center     Atomic     Atomic              Coordinates (Angstroms)
 Number     Number      Type              X           Y           Z
 ---------------------------------------------------------------------
    1          1             0       -1.810344    0.000000   -1.177128
    2          6             0       -0.919108    0.000000   -0.634369
    3          1             0        0.656018    0.000000   -2.106154
    4          6             0        0.353381    0.000000   -1.107785
    5          1             0        2.187811    0.000000    0.040552
    6          6             0        1.144052    0.000000    0.014164
    7          7             0        0.407461    0.000000    1.098229
    8          1             0       -1.566583    0.000000    1.307490
    9          7             0       -0.809720    0.000000    0.684531
 ---------------------------------------------------------------------
                    Distance matrix (angstroms):
                    1          2          3          4          5
     1  H    0.000000
     2  C    1.043499   0.000000
     3  H    2.635532   2.155731   0.000000
     4  C    2.164836   1.357701   1.043230   0.000000
     5  H    4.179473   3.179382   2.637184   2.164212   0.000000
     6  C    3.185535   2.162689   2.175758   1.372563   1.044093
     7  N    3.177406   2.182128   3.214008   2.206677   2.070828
     8  H    2.496547   2.046959   4.073441   3.085420   3.962400
     9  N    2.113534   1.323428   3.152191   2.136633   3.065926
                    6          7          8          9
     6  C    0.000000
     7  N    1.310635   0.000000
     8  H    3.003371   1.985105   0.000000
     9  N    2.065579   1.285564   0.980266   0.000000
 Stoichiometry    C3H4N2
 Framework group  CS[SG(C3H4N2)]
 Deg. of freedom   15
 Full point group                 CS      NOp   2
 Largest Abelian subgroup         CS      NOp   2
 Largest concise Abelian subgroup C1      NOp   1
                         Standard orientation:                         
 ---------------------------------------------------------------------
 Center     Atomic     Atomic              Coordinates (Angstroms)
 Number     Number      Type              X           Y           Z
 ---------------------------------------------------------------------
    1          1             0        2.070113    0.633511    0.000000
    2          6             0        1.082094    0.297793    0.000000
    3          1             0        1.201149   -1.854647    0.000000
    4          6             0        0.629233   -0.982156    0.000000
    5          1             0       -1.428327   -1.653170    0.000000
    6          6             0       -0.738679   -0.869259    0.000000
    7          7             0       -1.098036    0.391147    0.000000
    8          1             0        0.007433    2.039959    0.000000
    9          7             0        0.000000    1.059722    0.000000
 ---------------------------------------------------------------------
 Rotational constants (GHZ):     10.1502551      9.9862823      5.0338005
 Isotopes: H-1,C-12,H-1,C-12,H-1,C-12,N-14,H-1,N-14
 Standard basis: 6-311G(d) (5D, 7F)
 There are    77 symmetry adapted basis functions of A'  symmetry.
 There are    25 symmetry adapted basis functions of A"  symmetry.
 Crude estimate of integral set expansion from redundant integrals=1.000.
 Integral buffers will be    262144 words long.
 Raffenetti 2 integral format.
 Two-electron integral symmetry is turned on.
   102 basis functions      180 primitive gaussians
    18 alpha electrons       18 beta electrons
       nuclear repulsion energy       167.5771659864 Hartrees.
 One-electron integrals computed using PRISM.
 NBasis=   102 RedAO= T  NBF=    77    25
 NBsUse=   102 1.00D-04 NBFU=    77    25
 Initial guess read from the read-write file:
 Initial guess orbital symmetries:
       Occupied  (A') (A') (A') (A') (A') (A') (A') (A') (A') (A')
                 (A') (A") (A') (A') (A') (A') (A") (A")
       Virtual   (A") (A') (A') (A") (A') (A') (A') (A') (A') (A')
                 (A') (A") (A') (A') (A") (A') (A') (A") (A') (A')
                 (A") (A') (A') (A') (A') (A') (A") (A') (A') (A')
                 (A') (A') (A") (A') (A') (A") (A') (A") (A') (A")
                 (A') (A") (A') (A') (A') (A') (A') (A") (A") (A')
                 (A') (A') (A") (A') (A') (A") (A') (A') (A") (A")
                 (A') (A") (A') (A") (A') (A') (A') (A') (A') (A')
                 (A') (A") (A') (A") (A') (A') (A') (A') (A') (A')
                 (A') (A') (A') (A')
 Requested convergence on RMS density matrix=1.00D-08 within  64 cycles.
 Requested convergence on MAX density matrix=1.00D-06.
 Integral accuracy reduced to 1.0D-05 until final iterations.
 Initial convergence to 1.0D-05 achieved.  Increase integral accuracy.
 SCF Done:  E(RmPW+HF-PW91) =  -226.183318980     A.U. after   13 cycles
             Convg  =    0.6759D-08             -V/T =  2.0007
             S**2   =   0.0000
 ***** Axes restored to original set *****
 -------------------------------------------------------------------
 Center     Atomic                   Forces (Hartrees/Bohr)
 Number     Number              X              Y              Z
 -------------------------------------------------------------------
    1          1          -0.027275554    0.000000000   -0.008149006
    2          6           0.005638730    0.000000000   -0.018851752
    3          1           0.007437464    0.000000000   -0.026847842
    4          6          -0.003654323    0.000000000   -0.008559176
    5          1           0.027706543    0.000000000    0.006871530
    6          6          -0.002241352    0.000000000    0.001253664
    7          7           0.037113429    0.000000000    0.041525020
    8          1          -0.014822690    0.000000000    0.020467039
    9          7          -0.029902246    0.000000000   -0.007709476
 -------------------------------------------------------------------
 Cartesian Forces:  Max     0.041525020 RMS     0.016750538

 GradGradGradGradGradGradGradGradGradGradGradGradGradGradGradGradGradGrad
 Berny optimization.
 Internal  Forces:  Max     0.046152654 RMS     0.015183666
 Search for a local minimum.
 Step number   2 out of a maximum of  48
 All quantities printed in internal units (Hartrees-Bohrs-Radians)
 Update second derivatives using information from points  1  2
 Trust test= 2.08D+00 RLast= 3.00D-01 DXMaxT set to 4.24D-01
     Eigenvalues ---    0.03204   0.03247   0.03260   0.03273   0.03343
     Eigenvalues ---    0.03374   0.15871   0.16000   0.16000   0.16029
     Eigenvalues ---    0.22014   0.23817   0.49437   0.49711   0.50946
     Eigenvalues ---    0.57098   0.57974   0.61510   0.68564   0.73289
     Eigenvalues ---    0.809701000.000001000.000001000.000001000.00000
     Eigenvalues --- 1000.000001000.000001000.000001000.000001000.00000
     Eigenvalues --- 1000.000001000.000001000.000001000.000001000.00000
     Eigenvalues --- 1000.000001000.000001000.00000
 RFO step:  Lambda=-2.33326487D-03.
 Quartic linear search produced a step of  0.62513.
 Iteration  1 RMS(Cart)=  0.04747223 RMS(Int)=  0.00110004
 Iteration  2 RMS(Cart)=  0.00125552 RMS(Int)=  0.00001038
 Iteration  3 RMS(Cart)=  0.00000174 RMS(Int)=  0.00001027
 Iteration  4 RMS(Cart)=  0.00000000 RMS(Int)=  0.00001027
 Variable       Old X    -DE/DX   Delta X   Delta X   Delta X     New X
                                 (Linear)    (Quad)   (Total)
    R1        1.97193   0.02753   0.06441   0.00341   0.06783   2.03975
    R2        2.56568   0.02454   0.04539   0.00091   0.04630   2.61199
    R3        2.50092   0.03191   0.05784  -0.00534   0.05248   2.55340
    R4        1.97142   0.02785   0.06447   0.00427   0.06874   2.04015
    R5        2.59377   0.03644   0.07302  -0.00971   0.06333   2.65710
    R6        1.97305   0.02787   0.06316   0.00674   0.06990   2.04295
    R7        2.47674   0.02106   0.03640  -0.00182   0.03459   2.51133
    R8        2.42936   0.04615   0.05439   0.01670   0.07106   2.50043
    R9        1.85243   0.02445   0.05101  -0.00282   0.04818   1.90062
    A1        2.23841   0.00717   0.02244   0.04100   0.06344   2.30186
    A2        2.20055  -0.00710  -0.00775  -0.05963  -0.06738   2.13317
    A3        1.84422  -0.00007  -0.01469   0.01863   0.00394   1.84816
    A4        2.22130  -0.00105  -0.00123   0.00183   0.00058   2.22188
    A5        1.82852   0.00077  -0.00703  -0.00378  -0.01078   1.81773
    A6        2.23337   0.00028   0.00826   0.00196   0.01020   2.24358
    A7        2.20997   0.00332   0.00791   0.03543   0.04333   2.25329
    A8        1.93088   0.00551   0.02256  -0.00280   0.01978   1.95067
    A9        2.14233  -0.00883  -0.03047  -0.03263  -0.06311   2.07923
   A10        1.83998  -0.00610  -0.03033   0.01405  -0.01629   1.82369
   A11        1.98118  -0.00011   0.02948  -0.02610   0.00336   1.98453
   A12        2.17670   0.00597   0.00304   0.04747   0.05052   2.22722
   A13        2.12530  -0.00586  -0.03252  -0.02137  -0.05388   2.07143
    D1        0.00000   0.00000   0.00000   0.00000   0.00000   0.00000
    D2        3.14159   0.00000   0.00000   0.00000   0.00000   3.14159
    D3        3.14159   0.00000   0.00000   0.00000   0.00000   3.14159
    D4        0.00000   0.00000   0.00000   0.00000   0.00000   0.00000
    D5        3.14159   0.00000   0.00000   0.00000   0.00000   3.14159
    D6        0.00000   0.00000   0.00000   0.00000   0.00000   0.00000
    D7        0.00000   0.00000   0.00000   0.00000   0.00000   0.00000
    D8        3.14159   0.00000   0.00000   0.00000   0.00000   3.14159
    D9        3.14159   0.00000   0.00000   0.00000   0.00000   3.14159
   D10        0.00000   0.00000   0.00000   0.00000   0.00000   0.00000
   D11        0.00000   0.00000   0.00000   0.00000   0.00000   0.00000
   D12        3.14159   0.00000   0.00000   0.00000   0.00000   3.14159
   D13        0.00000   0.00000   0.00000   0.00000   0.00000   0.00000
   D14        3.14159   0.00000   0.00000   0.00000   0.00000   3.14159
   D15        0.00000   0.00000   0.00000   0.00000   0.00000   0.00000
   D16        3.14159   0.00000   0.00000   0.00000   0.00000   3.14159
         Item               Value     Threshold  Converged?
 Maximum Force            0.046153     0.000450     NO 
 RMS     Force            0.015184     0.000300     NO 
 Maximum Displacement     0.143516     0.001800     NO 
 RMS     Displacement     0.047456     0.001200     NO 
 Predicted change in Energy=-1.163649D-02
 GradGradGradGradGradGradGradGradGradGradGradGradGradGradGradGradGradGrad

                          Input orientation:                          
 ---------------------------------------------------------------------
 Center     Atomic     Atomic              Coordinates (Angstroms)
 Number     Number      Type              X           Y           Z
 ---------------------------------------------------------------------
    1          1             0       -1.889652    0.000000   -1.173663
    2          6             0       -0.934994    0.000000   -0.669966
    3          1             0        0.677177    0.000000   -2.181806
    4          6             0        0.361391    0.000000   -1.149419
    5          1             0        2.234194    0.000000    0.097954
    6          6             0        1.156684    0.000000    0.010134
    7          7             0        0.417588    0.000000    1.114585
    8          1             0       -1.578465    0.000000    1.350431
    9          7             0       -0.831216    0.000000    0.677245
 ---------------------------------------------------------------------
                    Distance matrix (angstroms):
                    1          2          3          4          5
     1  H    0.000000
     2  C    1.079390   0.000000
     3  H    2.757709   2.210148   0.000000
     4  C    2.251173   1.382204   1.079603   0.000000
     5  H    4.315450   3.260897   2.760726   2.250185   0.000000
     6  C    3.268262   2.199466   2.243775   1.406077   1.081083
     7  N    3.249528   2.239218   3.306596   2.264701   2.081729
     8  H    2.543205   2.120391   4.191017   3.164221   4.013112
     9  N    2.132169   1.351202   3.232557   2.181516   3.119666
                    6          7          8          9
     6  C    0.000000
     7  N    1.328937   0.000000
     8  H    3.045888   2.009938   0.000000
     9  N    2.096851   1.323170   1.005763   0.000000
 Stoichiometry    C3H4N2
 Framework group  CS[SG(C3H4N2)]
 Deg. of freedom   15
 Full point group                 CS      NOp   2
 Largest Abelian subgroup         CS      NOp   2
 Largest concise Abelian subgroup C1      NOp   1
                         Standard orientation:                         
 ---------------------------------------------------------------------
 Center     Atomic     Atomic              Coordinates (Angstroms)
 Number     Number      Type              X           Y           Z
 ---------------------------------------------------------------------
    1          1             0        2.102202    0.720826    0.000000
    2          6             0        1.107170    0.302501    0.000000
    3          1             0        1.252880   -1.902838    0.000000
    4          6             0        0.655252   -1.003737    0.000000
    5          1             0       -1.497137   -1.659904    0.000000
    6          6             0       -0.745612   -0.882761    0.000000
    7          7             0       -1.130367    0.389260    0.000000
    8          1             0       -0.046236    2.081747    0.000000
    9          7             0        0.000000    1.077047    0.000000
 ---------------------------------------------------------------------
 Rotational constants (GHZ):      9.7533257      9.5224485      4.8182522
 Isotopes: H-1,C-12,H-1,C-12,H-1,C-12,N-14,H-1,N-14
 Standard basis: 6-311G(d) (5D, 7F)
 There are    77 symmetry adapted basis functions of A'  symmetry.
 There are    25 symmetry adapted basis functions of A"  symmetry.
 Crude estimate of integral set expansion from redundant integrals=1.000.
 Integral buffers will be    262144 words long.
 Raffenetti 2 integral format.
 Two-electron integral symmetry is turned on.
   102 basis functions      180 primitive gaussians
    18 alpha electrons       18 beta electrons
       nuclear repulsion energy       163.8784430467 Hartrees.
 One-electron integrals computed using PRISM.
 NBasis=   102 RedAO= T  NBF=    77    25
 NBsUse=   102 1.00D-04 NBFU=    77    25
 Initial guess read from the read-write file:
 Initial guess orbital symmetries:
       Occupied  (A') (A') (A') (A') (A') (A') (A') (A') (A') (A')
                 (A') (A") (A') (A') (A') (A') (A") (A")
       Virtual   (A") (A') (A") (A') (A') (A') (A') (A') (A') (A')
                 (A') (A') (A") (A') (A') (A") (A') (A') (A") (A')
                 (A') (A") (A') (A') (A') (A') (A") (A') (A') (A')
                 (A') (A') (A') (A") (A') (A") (A') (A") (A') (A")
                 (A') (A') (A") (A') (A') (A') (A') (A") (A") (A')
                 (A') (A') (A") (A') (A') (A") (A') (A') (A") (A')
                 (A") (A') (A") (A") (A') (A') (A') (A') (A') (A')
                 (A') (A') (A") (A") (A') (A') (A') (A') (A') (A')
                 (A') (A') (A') (A')
 Requested convergence on RMS density matrix=1.00D-08 within  64 cycles.
 Requested convergence on MAX density matrix=1.00D-06.
 Integral accuracy reduced to 1.0D-05 until final iterations.
 Initial convergence to 1.0D-05 achieved.  Increase integral accuracy.
 SCF Done:  E(RmPW+HF-PW91) =  -226.192268662     A.U. after   13 cycles
             Convg  =    0.6292D-08             -V/T =  2.0033
             S**2   =   0.0000
 ***** Axes restored to original set *****
 -------------------------------------------------------------------
 Center     Atomic                   Forces (Hartrees/Bohr)
 Number     Number              X              Y              Z
 -------------------------------------------------------------------
    1          1           0.000598371    0.000000000    0.000735735
    2          6           0.003737920    0.000000000   -0.002972151
    3          1          -0.000434840    0.000000000    0.001302865
    4          6          -0.004665303    0.000000000    0.001109214
    5          1          -0.001018616    0.000000000   -0.000597391
    6          6          -0.000320041    0.000000000    0.003593877
    7          7           0.011074530    0.000000000    0.000442745
    8          1           0.000850326    0.000000000   -0.001676824
    9          7          -0.009822347    0.000000000   -0.001938069
 -------------------------------------------------------------------
 Cartesian Forces:  Max     0.011074530 RMS     0.003275105

 GradGradGradGradGradGradGradGradGradGradGradGradGradGradGradGradGradGrad
 Berny optimization.
 Internal  Forces:  Max     0.008920599 RMS     0.001893206
 Search for a local minimum.
 Step number   3 out of a maximum of  48
 All quantities printed in internal units (Hartrees-Bohrs-Radians)
 Update second derivatives using information from points  1  2  3
 Trust test= 7.69D-01 RLast= 2.29D-01 DXMaxT set to 6.00D-01
     Eigenvalues ---    0.03203   0.03248   0.03251   0.03273   0.03342
     Eigenvalues ---    0.03372   0.15189   0.16000   0.16005   0.16024
     Eigenvalues ---    0.22062   0.23615   0.46613   0.49515   0.49717
     Eigenvalues ---    0.57221   0.58524   0.60497   0.66825   0.69899
     Eigenvalues ---    0.810161000.000001000.000001000.000001000.00000
     Eigenvalues --- 1000.000001000.000001000.000001000.000001000.00000
     Eigenvalues --- 1000.000001000.000001000.000001000.000001000.00000
     Eigenvalues --- 1000.000001000.000001000.00000
 RFO step:  Lambda=-1.96973816D-04.
 Quartic linear search produced a step of -0.00265.
 Iteration  1 RMS(Cart)=  0.00340506 RMS(Int)=  0.00000666
 Iteration  2 RMS(Cart)=  0.00000717 RMS(Int)=  0.00000222
 Iteration  3 RMS(Cart)=  0.00000000 RMS(Int)=  0.00000222
 Variable       Old X    -DE/DX   Delta X   Delta X   Delta X     New X
                                 (Linear)    (Quad)   (Total)
    R1        2.03975  -0.00087  -0.00018  -0.00077  -0.00095   2.03880
    R2        2.61199  -0.00459  -0.00012  -0.00758  -0.00770   2.60429
    R3        2.55340  -0.00075  -0.00014   0.00029   0.00014   2.55355
    R4        2.04015  -0.00137  -0.00018  -0.00176  -0.00194   2.03821
    R5        2.65710   0.00118  -0.00017   0.00183   0.00166   2.65877
    R6        2.04295  -0.00106  -0.00019  -0.00116  -0.00135   2.04160
    R7        2.51133  -0.00350  -0.00009  -0.00407  -0.00416   2.50717
    R8        2.50043   0.00892  -0.00019   0.01195   0.01176   2.51219
    R9        1.90062  -0.00175  -0.00013  -0.00214  -0.00227   1.89835
    A1        2.30186   0.00037  -0.00017   0.00363   0.00347   2.30532
    A2        2.13317  -0.00041   0.00018  -0.00228  -0.00210   2.13108
    A3        1.84816   0.00004  -0.00001  -0.00136  -0.00137   1.84679
    A4        2.22188  -0.00117   0.00000  -0.00259  -0.00259   2.21929
    A5        1.81773   0.00225   0.00003   0.00447   0.00450   1.82224
    A6        2.24358  -0.00108  -0.00003  -0.00189  -0.00192   2.24166
    A7        2.25329  -0.00078  -0.00011  -0.00293  -0.00305   2.25025
    A8        1.95067   0.00050  -0.00005   0.00028   0.00023   1.95090
    A9        2.07923   0.00028   0.00017   0.00265   0.00281   2.08204
   A10        1.82369  -0.00187   0.00004  -0.00336  -0.00331   1.82038
   A11        1.98453  -0.00092  -0.00001  -0.00004  -0.00006   1.98448
   A12        2.22722  -0.00017  -0.00013  -0.00343  -0.00356   2.22366
   A13        2.07143   0.00110   0.00014   0.00347   0.00362   2.07505
    D1        0.00000   0.00000   0.00000   0.00000   0.00000   0.00000
    D2        3.14159   0.00000   0.00000   0.00000   0.00000   3.14159
    D3        3.14159   0.00000   0.00000   0.00000   0.00000   3.14159
    D4        0.00000   0.00000   0.00000   0.00000   0.00000   0.00000
    D5        3.14159   0.00000   0.00000   0.00000   0.00000   3.14159
    D6        0.00000   0.00000   0.00000   0.00000   0.00000   0.00000
    D7        0.00000   0.00000   0.00000   0.00000   0.00000   0.00000
    D8        3.14159   0.00000   0.00000   0.00000   0.00000   3.14159
    D9        3.14159   0.00000   0.00000   0.00000   0.00000   3.14159
   D10        0.00000   0.00000   0.00000   0.00000   0.00000   0.00000
   D11        0.00000   0.00000   0.00000   0.00000   0.00000   0.00000
   D12        3.14159   0.00000   0.00000   0.00000   0.00000   3.14159
   D13        0.00000   0.00000   0.00000   0.00000   0.00000   0.00000
   D14        3.14159   0.00000   0.00000   0.00000   0.00000   3.14159
   D15        0.00000   0.00000   0.00000   0.00000   0.00000   0.00000
   D16        3.14159   0.00000   0.00000   0.00000   0.00000   3.14159
         Item               Value     Threshold  Converged?
 Maximum Force            0.008921     0.000450     NO 
 RMS     Force            0.001893     0.000300     NO 
 Maximum Displacement     0.009883     0.001800     NO 
 RMS     Displacement     0.003404     0.001200     NO 
 Predicted change in Energy=-9.849682D-05
 GradGradGradGradGradGradGradGradGradGradGradGradGradGradGradGradGradGrad

                          Input orientation:                          
 ---------------------------------------------------------------------
 Center     Atomic     Atomic              Coordinates (Angstroms)
 Number     Number      Type              X           Y           Z
 ---------------------------------------------------------------------
    1          1             0       -1.890422    0.000000   -1.167442
    2          6             0       -0.935608    0.000000   -0.665117
    3          1             0        0.673199    0.000000   -2.171720
    4          6             0        0.358039    0.000000   -1.140217
    5          1             0        2.233665    0.000000    0.100360
    6          6             0        1.156417    0.000000    0.018283
    7          7             0        0.421266    0.000000    1.122723
    8          1             0       -1.582391    0.000000    1.351307
    9          7             0       -0.833042    0.000000    0.682264
 ---------------------------------------------------------------------
                    Distance matrix (angstroms):
                    1          2          3          4          5
     1  H    0.000000
     2  C    1.078889   0.000000
     3  H    2.753312   2.204113   0.000000
     4  C    2.248626   1.378130   1.078575   0.000000
     5  H    4.314559   3.260406   2.756339   2.248779   0.000000
     6  C    3.269430   2.200819   2.242681   1.406958   1.080371
     7  N    3.254037   2.244432   3.304062   2.263823   2.080870
     8  H    2.537514   2.117615   4.183229   3.158000   4.015863
     9  N    2.130602   1.351278   3.227071   2.177179   3.121427
                    6          7          8          9
     6  C    0.000000
     7  N    1.326738   0.000000
     8  H    3.045985   2.016654   0.000000
     9  N    2.097336   1.329395   1.004561   0.000000
 Stoichiometry    C3H4N2
 Framework group  CS[SG(C3H4N2)]
 Deg. of freedom   15
 Full point group                 CS      NOp   2
 Largest Abelian subgroup         CS      NOp   2
 Largest concise Abelian subgroup C1      NOp   1
                         Standard orientation:                         
 ---------------------------------------------------------------------
 Center     Atomic     Atomic              Coordinates (Angstroms)
 Number     Number      Type              X           Y           Z
 ---------------------------------------------------------------------
    1          1             0        2.101312    0.724796    0.000000
    2          6             0        1.108083    0.303491    0.000000
    3          1             0        1.256282   -1.895634    0.000000
    4          6             0        0.657143   -0.998775    0.000000
    5          1             0       -1.490453   -1.665737    0.000000
    6          6             0       -0.745098   -0.883658    0.000000
    7          7             0       -1.134886    0.384529    0.000000
    8          1             0       -0.043709    2.080473    0.000000
    9          7             0        0.000000    1.076863    0.000000
 ---------------------------------------------------------------------
 Rotational constants (GHZ):      9.7514746      9.5215653      4.8175743
 Isotopes: H-1,C-12,H-1,C-12,H-1,C-12,N-14,H-1,N-14
 Standard basis: 6-311G(d) (5D, 7F)
 There are    77 symmetry adapted basis functions of A'  symmetry.
 There are    25 symmetry adapted basis functions of A"  symmetry.
 Crude estimate of integral set expansion from redundant integrals=1.000.
 Integral buffers will be    262144 words long.
 Raffenetti 2 integral format.
 Two-electron integral symmetry is turned on.
   102 basis functions      180 primitive gaussians
    18 alpha electrons       18 beta electrons
       nuclear repulsion energy       163.8580013070 Hartrees.
 One-electron integrals computed using PRISM.
 NBasis=   102 RedAO= T  NBF=    77    25
 NBsUse=   102 1.00D-04 NBFU=    77    25
 Initial guess read from the read-write file:
 Initial guess orbital symmetries:
       Occupied  (A') (A') (A') (A') (A') (A') (A') (A') (A') (A')
                 (A') (A') (A") (A') (A') (A') (A") (A")
       Virtual   (A") (A') (A") (A') (A') (A') (A') (A') (A') (A')
                 (A') (A') (A') (A") (A') (A') (A") (A') (A") (A')
                 (A') (A') (A") (A') (A') (A') (A") (A') (A') (A')
                 (A') (A') (A') (A") (A') (A") (A') (A") (A') (A")
                 (A') (A') (A") (A') (A') (A') (A') (A") (A") (A')
                 (A') (A') (A") (A') (A') (A') (A") (A') (A') (A")
                 (A") (A') (A") (A") (A') (A') (A') (A') (A') (A')
                 (A') (A') (A") (A") (A') (A') (A') (A') (A') (A')
                 (A') (A') (A') (A')
 Requested convergence on RMS density matrix=1.00D-08 within  64 cycles.
 Requested convergence on MAX density matrix=1.00D-06.
 SCF Done:  E(RmPW+HF-PW91) =  -226.192403418     A.U. after   10 cycles
             Convg  =    0.2255D-08             -V/T =  2.0033
             S**2   =   0.0000
 ***** Axes restored to original set *****
 -------------------------------------------------------------------
 Center     Atomic                   Forces (Hartrees/Bohr)
 Number     Number              X              Y              Z
 -------------------------------------------------------------------
    1          1           0.000404357    0.000000000    0.000369592
    2          6           0.002493543    0.000000000   -0.000378747
    3          1          -0.000014542    0.000000000    0.000552527
    4          6          -0.001550512    0.000000000   -0.000872820
    5          1          -0.000506801    0.000000000   -0.000334409
    6          6          -0.000658634    0.000000000    0.001912862
    7          7           0.005143214    0.000000000   -0.000244607
    8          1           0.000601254    0.000000000   -0.000462533
    9          7          -0.005911879    0.000000000   -0.000541866
 -------------------------------------------------------------------
 Cartesian Forces:  Max     0.005911879 RMS     0.001687932

 GradGradGradGradGradGradGradGradGradGradGradGradGradGradGradGradGradGrad
 Berny optimization.
 Internal  Forces:  Max     0.004008966 RMS     0.000841893
 Search for a local minimum.
 Step number   4 out of a maximum of  48
 All quantities printed in internal units (Hartrees-Bohrs-Radians)
 Update second derivatives using information from points  1  2  3  4
 Trust test= 1.37D+00 RLast= 1.82D-02 DXMaxT set to 6.00D-01
     Eigenvalues ---    0.03203   0.03248   0.03250   0.03273   0.03342
     Eigenvalues ---    0.03373   0.15099   0.15219   0.16004   0.16237
     Eigenvalues ---    0.22802   0.24464   0.43026   0.46882   0.49519
     Eigenvalues ---    0.49759   0.57494   0.60326   0.60910   0.69928
     Eigenvalues ---    0.733291000.000001000.000001000.000001000.00000
     Eigenvalues --- 1000.000001000.000001000.000001000.000001000.00000
     Eigenvalues --- 1000.000001000.000001000.000001000.000001000.00000
     Eigenvalues --- 1000.000001000.000001000.00000
 RFO step:  Lambda=-4.20765536D-05.
 Quartic linear search produced a step of  0.62063.
 Iteration  1 RMS(Cart)=  0.00256686 RMS(Int)=  0.00000566
 Iteration  2 RMS(Cart)=  0.00000560 RMS(Int)=  0.00000060
 Iteration  3 RMS(Cart)=  0.00000000 RMS(Int)=  0.00000060
 Variable       Old X    -DE/DX   Delta X   Delta X   Delta X     New X
                                 (Linear)    (Quad)   (Total)
    R1        2.03880  -0.00053  -0.00059  -0.00057  -0.00116   2.03765
    R2        2.60429  -0.00152  -0.00478  -0.00102  -0.00579   2.59850
    R3        2.55355  -0.00028   0.00009   0.00041   0.00050   2.55404
    R4        2.03821  -0.00053  -0.00121  -0.00019  -0.00139   2.03682
    R5        2.65877   0.00042   0.00103   0.00051   0.00154   2.66030
    R6        2.04160  -0.00053  -0.00084  -0.00044  -0.00127   2.04033
    R7        2.50717  -0.00155  -0.00258  -0.00129  -0.00387   2.50330
    R8        2.51219   0.00401   0.00730   0.00406   0.01136   2.52355
    R9        1.89835  -0.00076  -0.00141  -0.00053  -0.00194   1.89641
    A1        2.30532  -0.00029   0.00215  -0.00221  -0.00006   2.30526
    A2        2.13108  -0.00059  -0.00130  -0.00384  -0.00514   2.12594
    A3        1.84679   0.00087  -0.00085   0.00605   0.00520   1.85199
    A4        2.21929   0.00003  -0.00161   0.00351   0.00191   2.22120
    A5        1.82224   0.00022   0.00280  -0.00408  -0.00128   1.82095
    A6        2.24166  -0.00025  -0.00119   0.00057  -0.00062   2.24104
    A7        2.25025  -0.00060  -0.00189  -0.00312  -0.00501   2.24524
    A8        1.95090   0.00058   0.00015   0.00265   0.00279   1.95369
    A9        2.08204   0.00002   0.00175   0.00047   0.00222   2.08426
   A10        1.82038  -0.00044  -0.00206   0.00104  -0.00102   1.81936
   A11        1.98448  -0.00124  -0.00004  -0.00566  -0.00569   1.97879
   A12        2.22366   0.00068  -0.00221   0.00500   0.00279   2.22645
   A13        2.07505   0.00056   0.00225   0.00065   0.00290   2.07794
    D1        0.00000   0.00000   0.00000   0.00000   0.00000   0.00000
    D2        3.14159   0.00000   0.00000   0.00000   0.00000   3.14159
    D3        3.14159   0.00000   0.00000   0.00000   0.00000   3.14159
    D4        0.00000   0.00000   0.00000   0.00000   0.00000   0.00000
    D5        3.14159   0.00000   0.00000   0.00000   0.00000   3.14159
    D6        0.00000   0.00000   0.00000   0.00000   0.00000   0.00000
    D7        0.00000   0.00000   0.00000   0.00000   0.00000   0.00000
    D8        3.14159   0.00000   0.00000   0.00000   0.00000   3.14159
    D9        3.14159   0.00000   0.00000   0.00000   0.00000   3.14159
   D10        0.00000   0.00000   0.00000   0.00000   0.00000   0.00000
   D11        0.00000   0.00000   0.00000   0.00000   0.00000   0.00000
   D12        3.14159   0.00000   0.00000   0.00000   0.00000   3.14159
   D13        0.00000   0.00000   0.00000   0.00000   0.00000   0.00000
   D14        3.14159   0.00000   0.00000   0.00000   0.00000   3.14159
   D15        0.00000   0.00000   0.00000   0.00000   0.00000   0.00000
   D16        3.14159   0.00000   0.00000   0.00000   0.00000   3.14159
         Item               Value     Threshold  Converged?
 Maximum Force            0.004009     0.000450     NO 
 RMS     Force            0.000842     0.000300     NO 
 Maximum Displacement     0.007615     0.001800     NO 
 RMS     Displacement     0.002567     0.001200     NO 
 Predicted change in Energy=-4.483222D-05
 GradGradGradGradGradGradGradGradGradGradGradGradGradGradGradGradGradGrad

                          Input orientation:                          
 ---------------------------------------------------------------------
 Center     Atomic     Atomic              Coordinates (Angstroms)
 Number     Number      Type              X           Y           Z
 ---------------------------------------------------------------------
    1          1             0       -1.888328    0.000000   -1.166977
    2          6             0       -0.933640    0.000000   -0.665727
    3          1             0        0.672706    0.000000   -2.171392
    4          6             0        0.356709    0.000000   -1.140916
    5          1             0        2.232032    0.000000    0.095633
    6          6             0        1.155089    0.000000    0.018572
    7          7             0        0.423716    0.000000    1.123060
    8          1             0       -1.586469    0.000000    1.349565
    9          7             0       -0.836869    0.000000    0.682345
 ---------------------------------------------------------------------
                    Distance matrix (angstroms):
                    1          2          3          4          5
     1  H    0.000000
     2  C    1.078277   0.000000
     3  H    2.750953   2.201675   0.000000
     4  C    2.245188   1.375066   1.077838   0.000000
     5  H    4.309472   3.255940   2.751526   2.246305   0.000000
     6  C    3.266177   2.197966   2.242462   1.407772   1.079696
     7  N    3.254200   2.245479   3.303848   2.264967   2.079811
     8  H    2.534581   2.118392   4.183420   3.158866   4.019116
     9  N    2.127335   1.351540   3.228410   2.179199   3.124481
                    6          7          8          9
     6  C    0.000000
     7  N    1.324689   0.000000
     8  H    3.047570   2.022906   0.000000
     9  N    2.099641   1.335405   1.003535   0.000000
 Stoichiometry    C3H4N2
 Framework group  CS[SG(C3H4N2)]
 Deg. of freedom   15
 Full point group                 CS      NOp   2
 Largest Abelian subgroup         CS      NOp   2
 Largest concise Abelian subgroup C1      NOp   1
                         Standard orientation:                         
 ---------------------------------------------------------------------
 Center     Atomic     Atomic              Coordinates (Angstroms)
 Number     Number      Type              X           Y           Z
 ---------------------------------------------------------------------
    1          1             0        2.097876    0.726845    0.000000
    2          6             0        1.106286    0.303253    0.000000
    3          1             0        1.259088   -1.893113    0.000000
    4          6             0        0.659734   -0.997284    0.000000
    5          1             0       -1.483397   -1.670243    0.000000
    6          6             0       -0.743469   -0.883954    0.000000
    7          7             0       -1.137858    0.380663    0.000000
    8          1             0       -0.043862    2.082227    0.000000
    9          7             0        0.000000    1.079651    0.000000
 ---------------------------------------------------------------------
 Rotational constants (GHZ):      9.7467802      9.5157668      4.8149441
 Isotopes: H-1,C-12,H-1,C-12,H-1,C-12,N-14,H-1,N-14
 Standard basis: 6-311G(d) (5D, 7F)
 There are    77 symmetry adapted basis functions of A'  symmetry.
 There are    25 symmetry adapted basis functions of A"  symmetry.
 Crude estimate of integral set expansion from redundant integrals=1.000.
 Integral buffers will be    262144 words long.
 Raffenetti 2 integral format.
 Two-electron integral symmetry is turned on.
   102 basis functions      180 primitive gaussians
    18 alpha electrons       18 beta electrons
       nuclear repulsion energy       163.8092364842 Hartrees.
 One-electron integrals computed using PRISM.
 NBasis=   102 RedAO= T  NBF=    77    25
 NBsUse=   102 1.00D-04 NBFU=    77    25
 Initial guess read from the read-write file:
 Initial guess orbital symmetries:
       Occupied  (A') (A') (A') (A') (A') (A') (A') (A') (A') (A')
                 (A') (A') (A") (A') (A') (A') (A") (A")
       Virtual   (A") (A') (A") (A') (A') (A') (A') (A') (A') (A')
                 (A') (A') (A') (A") (A') (A') (A") (A') (A") (A')
                 (A') (A') (A") (A') (A') (A') (A") (A') (A') (A')
                 (A') (A') (A') (A") (A') (A") (A') (A") (A') (A")
                 (A') (A') (A") (A') (A') (A') (A') (A") (A") (A')
                 (A') (A') (A") (A') (A') (A') (A") (A') (A') (A")
                 (A") (A') (A") (A") (A') (A') (A') (A') (A') (A')
                 (A') (A') (A") (A") (A') (A') (A') (A') (A') (A')
                 (A') (A') (A') (A')
 Requested convergence on RMS density matrix=1.00D-08 within  64 cycles.
 Requested convergence on MAX density matrix=1.00D-06.
 SCF Done:  E(RmPW+HF-PW91) =  -226.192445153     A.U. after   10 cycles
             Convg  =    0.1686D-08             -V/T =  2.0033
             S**2   =   0.0000
 ***** Axes restored to original set *****
 -------------------------------------------------------------------
 Center     Atomic                   Forces (Hartrees/Bohr)
 Number     Number              X              Y              Z
 -------------------------------------------------------------------
    1          1           0.000024224    0.000000000   -0.000156433
    2          6          -0.000584815    0.000000000    0.000724272
    3          1           0.000058480    0.000000000    0.000064850
    4          6           0.000177252    0.000000000   -0.000405072
    5          1           0.000029926    0.000000000    0.000079050
    6          6          -0.000353075    0.000000000    0.000608968
    7          7           0.000433466    0.000000000   -0.000090608
    8          1           0.000206104    0.000000000    0.000197014
    9          7           0.000008438    0.000000000   -0.001022041
 -------------------------------------------------------------------
 Cartesian Forces:  Max     0.001022041 RMS     0.000328828

 GradGradGradGradGradGradGradGradGradGradGradGradGradGradGradGradGradGrad
 Berny optimization.
 Internal  Forces:  Max     0.000603090 RMS     0.000180937
 Search for a local minimum.
 Step number   5 out of a maximum of  48
 All quantities printed in internal units (Hartrees-Bohrs-Radians)
 Update second derivatives using information from points  1  2  3  4  5

 Trust test= 9.31D-01 RLast= 1.83D-02 DXMaxT set to 6.00D-01
     Eigenvalues ---    0.03203   0.03248   0.03250   0.03273   0.03342
     Eigenvalues ---    0.03373   0.14952   0.15347   0.16006   0.16596
     Eigenvalues ---    0.22359   0.26232   0.40158   0.46748   0.49519
     Eigenvalues ---    0.49776   0.57466   0.60248   0.60551   0.70373
     Eigenvalues ---    0.725561000.000001000.000001000.000001000.00000
     Eigenvalues --- 1000.000001000.000001000.000001000.000001000.00000
     Eigenvalues --- 1000.000001000.000001000.000001000.000001000.00000
     Eigenvalues --- 1000.000001000.000001000.00000
 RFO step:  Lambda=-3.19980840D-06.
 Quartic linear search produced a step of -0.03480.
 Iteration  1 RMS(Cart)=  0.00068732 RMS(Int)=  0.00000052
 Iteration  2 RMS(Cart)=  0.00000053 RMS(Int)=  0.00000005
 Variable       Old X    -DE/DX   Delta X   Delta X   Delta X     New X
                                 (Linear)    (Quad)   (Total)
    R1        2.03765   0.00005   0.00004   0.00003   0.00008   2.03772
    R2        2.59850   0.00035   0.00020   0.00029   0.00050   2.59899
    R3        2.55404  -0.00045  -0.00002  -0.00057  -0.00059   2.55345
    R4        2.03682  -0.00004   0.00005  -0.00016  -0.00011   2.03670
    R5        2.66030   0.00025  -0.00005   0.00049   0.00044   2.66074
    R6        2.04033   0.00004   0.00004   0.00000   0.00005   2.04038
    R7        2.50330  -0.00060   0.00013  -0.00105  -0.00092   2.50238
    R8        2.52355   0.00013  -0.00040   0.00074   0.00035   2.52389
    R9        1.89641  -0.00002   0.00007  -0.00015  -0.00008   1.89632
    A1        2.30526  -0.00002   0.00000  -0.00039  -0.00039   2.30487
    A2        2.12594   0.00026   0.00018   0.00095   0.00112   2.12706
    A3        1.85199  -0.00024  -0.00018  -0.00055  -0.00073   1.85125
    A4        2.22120   0.00011  -0.00007   0.00053   0.00047   2.22166
    A5        1.82095  -0.00008   0.00004  -0.00011  -0.00006   1.82089
    A6        2.24104  -0.00003   0.00002  -0.00043  -0.00041   2.24063
    A7        2.24524   0.00002   0.00017  -0.00001   0.00016   2.24540
    A8        1.95369   0.00009  -0.00010   0.00055   0.00046   1.95415
    A9        2.08426  -0.00011  -0.00008  -0.00055  -0.00062   2.08363
   A10        1.81936  -0.00008   0.00004  -0.00071  -0.00068   1.81868
   A11        1.97879   0.00031   0.00020   0.00082   0.00101   1.97980
   A12        2.22645   0.00012  -0.00010   0.00132   0.00122   2.22768
   A13        2.07794  -0.00043  -0.00010  -0.00214  -0.00224   2.07571
    D1        0.00000   0.00000   0.00000   0.00000   0.00000   0.00000
    D2        3.14159   0.00000   0.00000   0.00000   0.00000   3.14159
    D3        3.14159   0.00000   0.00000   0.00000   0.00000   3.14159
    D4        0.00000   0.00000   0.00000   0.00000   0.00000   0.00000
    D5        3.14159   0.00000   0.00000   0.00000   0.00000   3.14159
    D6        0.00000   0.00000   0.00000   0.00000   0.00000   0.00000
    D7        0.00000   0.00000   0.00000   0.00000   0.00000   0.00000
    D8        3.14159   0.00000   0.00000   0.00000   0.00000   3.14159
    D9        3.14159   0.00000   0.00000   0.00000   0.00000   3.14159
   D10        0.00000   0.00000   0.00000   0.00000   0.00000   0.00000
   D11        0.00000   0.00000   0.00000   0.00000   0.00000   0.00000
   D12        3.14159   0.00000   0.00000   0.00000   0.00000   3.14159
   D13        0.00000   0.00000   0.00000   0.00000   0.00000   0.00000
   D14        3.14159   0.00000   0.00000   0.00000   0.00000   3.14159
   D15        0.00000   0.00000   0.00000   0.00000   0.00000   0.00000
   D16        3.14159   0.00000   0.00000   0.00000   0.00000   3.14159
         Item               Value     Threshold  Converged?
 Maximum Force            0.000603     0.000450     NO 
 RMS     Force            0.000181     0.000300     YES
 Maximum Displacement     0.002673     0.001800     NO 
 RMS     Displacement     0.000687     0.001200     YES
 Predicted change in Energy=-1.654672D-06
 GradGradGradGradGradGradGradGradGradGradGradGradGradGradGradGradGradGrad

                          Input orientation:                          
 ---------------------------------------------------------------------
 Center     Atomic     Atomic              Coordinates (Angstroms)
 Number     Number      Type              X           Y           Z
 ---------------------------------------------------------------------
    1          1             0       -1.888889    0.000000   -1.168180
    2          6             0       -0.934433    0.000000   -0.666402
    3          1             0        0.672836    0.000000   -2.171723
    4          6             0        0.356229    0.000000   -1.141498
    5          1             0        2.231445    0.000000    0.095800
    6          6             0        1.154505    0.000000    0.018342
    7          7             0        0.423682    0.000000    1.122612
    8          1             0       -1.585244    0.000000    1.349850
    9          7             0       -0.836889    0.000000    0.681301
 ---------------------------------------------------------------------
                    Distance matrix (angstroms):
                    1          2          3          4          5
     1  H    0.000000
     2  C    1.078316   0.000000
     3  H    2.751278   2.202114   0.000000
     4  C    2.245276   1.375328   1.077777   0.000000
     5  H    4.309848   3.256338   2.751532   2.246629   0.000000
     6  C    3.266509   2.198303   2.242408   1.408004   1.079722
     7  N    3.255105   2.246118   3.303744   2.265115   2.079026
     8  H    2.536271   2.118685   4.183348   3.158502   4.017431
     9  N    2.127741   1.351228   3.227850   2.178561   3.123697
                    6          7          8          9
     6  C    0.000000
     7  N    1.324203   0.000000
     8  H    3.046167   2.021737   0.000000
     9  N    2.098848   1.335587   1.003490   0.000000
 Stoichiometry    C3H4N2
 Framework group  CS[SG(C3H4N2)]
 Deg. of freedom   15
 Full point group                 CS      NOp   2
 Largest Abelian subgroup         CS      NOp   2
 Largest concise Abelian subgroup C1      NOp   1
                         Standard orientation:                         
 ---------------------------------------------------------------------
 Center     Atomic     Atomic              Coordinates (Angstroms)
 Number     Number      Type              X           Y           Z
 ---------------------------------------------------------------------
    1          1             0        2.098401    0.726989    0.000000
    2          6             0        1.106620    0.303744    0.000000
    3          1             0        1.258944   -1.893095    0.000000
    4          6             0        0.660019   -0.997053    0.000000
    5          1             0       -1.483513   -1.669818    0.000000
    6          6             0       -0.743411   -0.883657    0.000000
    7          7             0       -1.138192    0.380329    0.000000
    8          1             0       -0.045848    2.081564    0.000000
    9          7             0        0.000000    1.079122    0.000000
 ---------------------------------------------------------------------
 Rotational constants (GHZ):      9.7504453      9.5134222      4.8152378
 Isotopes: H-1,C-12,H-1,C-12,H-1,C-12,N-14,H-1,N-14
 Standard basis: 6-311G(d) (5D, 7F)
 There are    77 symmetry adapted basis functions of A'  symmetry.
 There are    25 symmetry adapted basis functions of A"  symmetry.
 Crude estimate of integral set expansion from redundant integrals=1.000.
 Integral buffers will be    262144 words long.
 Raffenetti 2 integral format.
 Two-electron integral symmetry is turned on.
   102 basis functions      180 primitive gaussians
    18 alpha electrons       18 beta electrons
       nuclear repulsion energy       163.8151779225 Hartrees.
 One-electron integrals computed using PRISM.
 NBasis=   102 RedAO= T  NBF=    77    25
 NBsUse=   102 1.00D-04 NBFU=    77    25
 Initial guess read from the read-write file:
 Initial guess orbital symmetries:
       Occupied  (A') (A') (A') (A') (A') (A') (A') (A') (A') (A')
                 (A') (A') (A") (A') (A') (A') (A") (A")
       Virtual   (A") (A') (A") (A') (A') (A') (A') (A') (A') (A')
                 (A') (A') (A') (A") (A') (A') (A") (A') (A") (A')
                 (A') (A') (A") (A') (A') (A') (A") (A') (A') (A')
                 (A') (A') (A') (A") (A') (A") (A') (A") (A') (A")
                 (A') (A') (A") (A') (A') (A') (A') (A") (A") (A')
                 (A') (A') (A") (A') (A') (A') (A") (A') (A') (A")
                 (A") (A') (A") (A") (A') (A') (A') (A') (A') (A')
                 (A') (A') (A") (A") (A') (A') (A') (A') (A') (A')
                 (A') (A') (A') (A')
 Requested convergence on RMS density matrix=1.00D-08 within  64 cycles.
 Requested convergence on MAX density matrix=1.00D-06.
 SCF Done:  E(RmPW+HF-PW91) =  -226.192446908     A.U. after    8 cycles
             Convg  =    0.2566D-08             -V/T =  2.0033
             S**2   =   0.0000
 ***** Axes restored to original set *****
 -------------------------------------------------------------------
 Center     Atomic                   Forces (Hartrees/Bohr)
 Number     Number              X              Y              Z
 -------------------------------------------------------------------
    1          1           0.000027822    0.000000000   -0.000057509
    2          6          -0.000125862    0.000000000    0.000481263
    3          1           0.000038186    0.000000000    0.000016192
    4          6           0.000168880    0.000000000   -0.000222806
    5          1           0.000038774    0.000000000   -0.000007010
    6          6           0.000051481    0.000000000    0.000150399
    7          7           0.000020722    0.000000000   -0.000192808
    8          1           0.000008068    0.000000000    0.000059685
    9          7          -0.000228071    0.000000000   -0.000227406
 -------------------------------------------------------------------
 Cartesian Forces:  Max     0.000481263 RMS     0.000136518

 GradGradGradGradGradGradGradGradGradGradGradGradGradGradGradGradGradGrad
 Berny optimization.
 Internal  Forces:  Max     0.000277670 RMS     0.000077197
 Search for a local minimum.
 Step number   6 out of a maximum of  48
 All quantities printed in internal units (Hartrees-Bohrs-Radians)
 Update second derivatives using information from points  1  2  3  4  5
                                                        6
 Trust test= 1.06D+00 RLast= 3.57D-03 DXMaxT set to 6.00D-01
     Eigenvalues ---    0.03203   0.03248   0.03250   0.03273   0.03342
     Eigenvalues ---    0.03373   0.13272   0.15167   0.15452   0.16007
     Eigenvalues ---    0.22839   0.31042   0.45108   0.46636   0.49230
     Eigenvalues ---    0.49737   0.51864   0.57625   0.60326   0.67345
     Eigenvalues ---    0.742141000.000001000.000001000.000001000.00000
     Eigenvalues --- 1000.000001000.000001000.000001000.000001000.00000
     Eigenvalues --- 1000.000001000.000001000.000001000.000001000.00000
     Eigenvalues --- 1000.000001000.000001000.00000
 RFO step:  Lambda=-5.99635008D-07.
 Quartic linear search produced a step of  0.09567.
 Iteration  1 RMS(Cart)=  0.00025565 RMS(Int)=  0.00000009
 Iteration  2 RMS(Cart)=  0.00000009 RMS(Int)=  0.00000001
 Variable       Old X    -DE/DX   Delta X   Delta X   Delta X     New X
                                 (Linear)    (Quad)   (Total)
    R1        2.03772   0.00000   0.00001   0.00001   0.00002   2.03774
    R2        2.59899   0.00028   0.00005   0.00047   0.00052   2.59951
    R3        2.55345  -0.00024  -0.00006  -0.00041  -0.00046   2.55299
    R4        2.03670   0.00000  -0.00001  -0.00003  -0.00004   2.03666
    R5        2.66074   0.00002   0.00004   0.00013   0.00017   2.66091
    R6        2.04038   0.00004   0.00000   0.00008   0.00009   2.04047
    R7        2.50238  -0.00007  -0.00009  -0.00020  -0.00029   2.50209
    R8        2.52389   0.00006   0.00003   0.00017   0.00021   2.52410
    R9        1.89632   0.00003  -0.00001   0.00004   0.00003   1.89635
    A1        2.30487  -0.00010  -0.00004  -0.00058  -0.00061   2.30425
    A2        2.12706   0.00002   0.00011   0.00033   0.00044   2.12750
    A3        1.85125   0.00008  -0.00007   0.00024   0.00017   1.85143
    A4        2.22166   0.00007   0.00004   0.00029   0.00034   2.22200
    A5        1.82089  -0.00006  -0.00001  -0.00009  -0.00009   1.82080
    A6        2.24063   0.00000  -0.00004  -0.00020  -0.00024   2.24039
    A7        2.24540   0.00002   0.00002   0.00002   0.00004   2.24544
    A8        1.95415  -0.00008   0.00004  -0.00030  -0.00025   1.95390
    A9        2.08363   0.00006  -0.00006   0.00027   0.00022   2.08385
   A10        1.81868   0.00016  -0.00006   0.00052   0.00046   1.81914
   A11        1.97980  -0.00009   0.00010  -0.00038  -0.00028   1.97952
   A12        2.22768   0.00010   0.00012   0.00065   0.00077   2.22844
   A13        2.07571  -0.00001  -0.00021  -0.00027  -0.00048   2.07522
    D1        0.00000   0.00000   0.00000   0.00000   0.00000   0.00000
    D2        3.14159   0.00000   0.00000   0.00000   0.00000   3.14159
    D3        3.14159   0.00000   0.00000   0.00000   0.00000   3.14159
    D4        0.00000   0.00000   0.00000   0.00000   0.00000   0.00000
    D5        3.14159   0.00000   0.00000   0.00000   0.00000   3.14159
    D6        0.00000   0.00000   0.00000   0.00000   0.00000   0.00000
    D7        0.00000   0.00000   0.00000   0.00000   0.00000   0.00000
    D8        3.14159   0.00000   0.00000   0.00000   0.00000   3.14159
    D9        3.14159   0.00000   0.00000   0.00000   0.00000   3.14159
   D10        0.00000   0.00000   0.00000   0.00000   0.00000   0.00000
   D11        0.00000   0.00000   0.00000   0.00000   0.00000   0.00000
   D12        3.14159   0.00000   0.00000   0.00000   0.00000   3.14159
   D13        0.00000   0.00000   0.00000   0.00000   0.00000   0.00000
   D14        3.14159   0.00000   0.00000   0.00000   0.00000   3.14159
   D15        0.00000   0.00000   0.00000   0.00000   0.00000   0.00000
   D16        3.14159   0.00000   0.00000   0.00000   0.00000   3.14159
         Item               Value     Threshold  Converged?
 Maximum Force            0.000278     0.000450     YES
 RMS     Force            0.000077     0.000300     YES
 Maximum Displacement     0.000924     0.001800     YES
 RMS     Displacement     0.000256     0.001200     YES
 Predicted change in Energy=-3.137095D-07
 Optimization completed.
    -- Stationary point found.
                         ----------------------------
                         !   Optimized Parameters   !
                         ! (Angstroms and Degrees)  !
 ------------------------                            -------------------------
 ! Name  Definition              Value          Derivative Info.             !
 -----------------------------------------------------------------------------
 ! R1    R(1,2)                  1.0783         -DE/DX =    0.               !
 ! R2    R(2,4)                  1.3753         -DE/DX =    0.0003           !
 ! R3    R(2,9)                  1.3512         -DE/DX =   -0.0002           !
 ! R4    R(3,4)                  1.0778         -DE/DX =    0.               !
 ! R5    R(4,6)                  1.408          -DE/DX =    0.               !
 ! R6    R(5,6)                  1.0797         -DE/DX =    0.               !
 ! R7    R(6,7)                  1.3242         -DE/DX =   -0.0001           !
 ! R8    R(7,9)                  1.3356         -DE/DX =    0.0001           !
 ! R9    R(8,9)                  1.0035         -DE/DX =    0.               !
 ! A1    A(1,2,4)              132.0593         -DE/DX =   -0.0001           !
 ! A2    A(1,2,9)              121.8716         -DE/DX =    0.               !
 ! A3    A(4,2,9)              106.0691         -DE/DX =    0.0001           !
 ! A4    A(2,4,3)              127.2919         -DE/DX =    0.0001           !
 ! A5    A(2,4,6)              104.3294         -DE/DX =   -0.0001           !
 ! A6    A(3,4,6)              128.3787         -DE/DX =    0.               !
 ! A7    A(4,6,5)              128.6521         -DE/DX =    0.               !
 ! A8    A(4,6,7)              111.9646         -DE/DX =   -0.0001           !
 ! A9    A(5,6,7)              119.3834         -DE/DX =    0.0001           !
 ! A10   A(6,7,9)              104.2027         -DE/DX =    0.0002           !
 ! A11   A(2,9,7)              113.4343         -DE/DX =   -0.0001           !
 ! A12   A(2,9,8)              127.6365         -DE/DX =    0.0001           !
 ! A13   A(7,9,8)              118.9292         -DE/DX =    0.               !
 ! D1    D(1,2,4,3)              0.             -DE/DX =    0.               !
[...]
 Atom AN      X      Y      Z        X      Y      Z        X      Y      Z
   1   1     0.72   0.30   0.00    -0.55  -0.24   0.00     0.01   0.00   0.00
   2   6    -0.06  -0.03   0.00     0.05   0.03   0.00     0.00   0.00   0.00
   3   1    -0.28   0.41   0.00    -0.42   0.64   0.00     0.00   0.00   0.00
   4   6     0.03  -0.03   0.00     0.04  -0.06   0.00     0.00   0.00   0.00
   5   1     0.25   0.27   0.00     0.16   0.16   0.00     0.00   0.00   0.00
   6   6    -0.02  -0.02   0.00    -0.02  -0.01   0.00     0.00   0.00   0.00
   7   7     0.00   0.00   0.00     0.00   0.00   0.00     0.00   0.00   0.00
   8   1    -0.01  -0.01   0.00     0.00   0.01   0.00    -0.05   1.00   0.00
   9   7     0.00   0.00   0.00     0.00   0.00   0.00     0.01  -0.08   0.00

 -------------------
 - Thermochemistry -
 -------------------
 Temperature   298.150 Kelvin.  Pressure   1.00000 Atm.
 Atom  1 has atomic number  1 and mass   1.00783
 Atom  2 has atomic number  6 and mass  12.00000
 Atom  3 has atomic number  1 and mass   1.00783
 Atom  4 has atomic number  6 and mass  12.00000
 Atom  5 has atomic number  1 and mass   1.00783
 Atom  6 has atomic number  6 and mass  12.00000
 Atom  7 has atomic number  7 and mass  14.00307
 Atom  8 has atomic number  1 and mass   1.00783
 Atom  9 has atomic number  7 and mass  14.00307
 Molecular mass:    68.03745 amu.
 Principal axes and moments of inertia in atomic units:
                           1         2         3
     EIGENVALUES --   185.09321 189.70473 374.79793
           X            0.91058   0.41332   0.00000
           Y           -0.41332   0.91058   0.00000
           Z            0.00000   0.00000   1.00000
 THIS MOLECULE IS AN ASYMMETRIC TOP.
 ROTATIONAL SYMMETRY NUMBER  1.
 ROTATIONAL TEMPERATURES (KELVIN)      0.46794     0.45657     0.23109
 ROTATIONAL CONSTANTS (GHZ)            9.75045     9.51342     4.81524
 Zero-point vibrational energy     189367.4 (Joules/Mol)
                                   45.25989 (Kcal/Mol)
 WARNING-- EXPLICIT CONSIDERATION OF   1 DEGREES OF FREEDOM AS
           VIBRATIONS MAY CAUSE SIGNIFICANT ERROR
 VIBRATIONAL TEMPERATURES:    785.85   929.80  1013.49  1087.80  1216.76
          (KELVIN)           1291.76  1339.32  1368.18  1534.16  1541.40
                             1678.08  1744.95  1877.86  2034.98  2094.67
                             2188.30  2301.63  4699.75  4719.71  4746.59
                             5356.03
 
 Zero-point correction=                           0.072126 (Hartree/Particle)
 Thermal correction to Energy=                    0.075826
 Thermal correction to Enthalpy=                  0.076771
 Thermal correction to Gibbs Free Energy=         0.045890
 Sum of electronic and zero-point Energies=           -226.120321
 Sum of electronic and thermal Energies=              -226.116621
 Sum of electronic and thermal Enthalpies=            -226.115676
 Sum of electronic and thermal Free Energies=         -226.146557
 
                     E (Thermal)             CV                S
                      KCAL/MOL        CAL/MOL-KELVIN    CAL/MOL-KELVIN
 TOTAL                   47.582             13.063             64.993
 ELECTRONIC               0.000              0.000              0.000
 TRANSLATIONAL            0.889              2.981             38.570
 ROTATIONAL               0.889              2.981             24.091
 VIBRATIONAL             45.804              7.101              2.332
 VIBRATION  1             0.901              1.148              0.552
                       Q            LOG10(Q)             LN(Q)
 TOTAL BOT       0.780006D-21        -21.107902        -48.602740
 TOTAL V=0       0.116852D+13         12.067635         27.786756
 VIB (BOT)       0.861060D-33        -33.064967        -76.134899
 VIB (BOT)  1    0.288369D+00         -0.540051         -1.243513
 VIB (V=0)       0.128994D+01          0.110570          0.254597
 VIB (V=0)  1    0.107720D+01          0.032295          0.074363
 ELECTRONIC      0.100000D+01          0.000000          0.000000
 TRANSLATIONAL   0.220588D+08          7.343582         16.909224
 ROTATIONAL      0.410660D+05          4.613482         10.622936
 ***** Axes restored to original set *****
 -------------------------------------------------------------------
 Center     Atomic                   Forces (Hartrees/Bohr)
 Number     Number              X              Y              Z
 -------------------------------------------------------------------
    1          1           0.000027808    0.000000000   -0.000057514
    2          6          -0.000125843    0.000000000    0.000481244
    3          1           0.000038182    0.000000000    0.000016196
    4          6           0.000168889    0.000000000   -0.000222771
    5          1           0.000038774    0.000000000   -0.000007008
    6          6           0.000051448    0.000000000    0.000150394
    7          7           0.000020721    0.000000000   -0.000192837
    8          1           0.000008059    0.000000000    0.000059684
    9          7          -0.000228039    0.000000000   -0.000227388
 -------------------------------------------------------------------
 Cartesian Forces:  Max     0.000481244 RMS     0.000136511

 GradGradGradGradGradGradGradGradGradGradGradGradGradGradGradGradGradGrad
 Berny optimization.
 Internal  Forces:  Max     0.000277654 RMS     0.000077194
 Search for a local minimum.
 Step number   1 out of a maximum of  48
 All quantities printed in internal units (Hartrees-Bohrs-Radians)
 Second derivative matrix not updated -- analytic derivatives used.
     Eigenvalues ---    0.00767   0.01157   0.01615   0.02777   0.05967
     Eigenvalues ---    0.06322   0.09412   0.10427   0.11202   0.12271
     Eigenvalues ---    0.22793   0.27034   0.35849   0.37395   0.37915
     Eigenvalues ---    0.38140   0.41478   0.44124   0.49181   0.50781
     Eigenvalues ---    0.588031000.000001000.000001000.000001000.00000
     Eigenvalues --- 1000.000001000.000001000.000001000.000001000.00000
     Eigenvalues --- 1000.000001000.000001000.000001000.000001000.00000
     Eigenvalues --- 1000.000001000.000001000.00000
 Angle between quadratic step and forces=  36.63 degrees.
 Linear search not attempted -- first point.
 Iteration  1 RMS(Cart)=  0.00024251 RMS(Int)=  0.00000009
 Iteration  2 RMS(Cart)=  0.00000009 RMS(Int)=  0.00000001
 Variable       Old X    -DE/DX   Delta X   Delta X   Delta X     New X
                                 (Linear)    (Quad)   (Total)
    R1        2.03772   0.00000   0.00000   0.00002   0.00002   2.03775
    R2        2.59899   0.00028   0.00000   0.00055   0.00055   2.59954
    R3        2.55345  -0.00024   0.00000  -0.00065  -0.00065   2.55280
    R4        2.03670   0.00000   0.00000  -0.00003  -0.00003   2.03668
    R5        2.66074   0.00002   0.00000   0.00014   0.00014   2.66088
    R6        2.04038   0.00004   0.00000   0.00010   0.00010   2.04048
    R7        2.50238  -0.00007   0.00000  -0.00021  -0.00021   2.50217
    R8        2.52389   0.00006   0.00000   0.00022   0.00022   2.52411
    R9        1.89632   0.00003   0.00000   0.00005   0.00005   1.89637
    A1        2.30487  -0.00010   0.00000  -0.00089  -0.00089   2.30398
    A2        2.12706   0.00002   0.00000   0.00056   0.00056   2.12762
    A3        1.85125   0.00008   0.00000   0.00034   0.00034   1.85159
    A4        2.22166   0.00007   0.00000   0.00033   0.00033   2.22199
    A5        1.82089  -0.00006   0.00000  -0.00028  -0.00028   1.82061
    A6        2.24063   0.00000   0.00000  -0.00005  -0.00005   2.24058
    A7        2.24540   0.00002   0.00000  -0.00006  -0.00006   2.24534
    A8        1.95415  -0.00008   0.00000  -0.00012  -0.00012   1.95403
    A9        2.08363   0.00006   0.00000   0.00018   0.00018   2.08381
   A10        1.81868   0.00016   0.00000   0.00034   0.00034   1.81902
   A11        1.97980  -0.00009   0.00000  -0.00027  -0.00027   1.97953
   A12        2.22768   0.00010   0.00000   0.00070   0.00070   2.22838
   A13        2.07571  -0.00001   0.00000  -0.00042  -0.00042   2.07528
    D1        0.00000   0.00000   0.00000   0.00000   0.00000   0.00000
    D2        3.14159   0.00000   0.00000   0.00000   0.00000   3.14159
    D3        3.14159   0.00000   0.00000   0.00000   0.00000   3.14159
    D4        0.00000   0.00000   0.00000   0.00000   0.00000   0.00000
    D5        3.14159   0.00000   0.00000   0.00000   0.00000   3.14159
    D6        0.00000   0.00000   0.00000   0.00000   0.00000   0.00000
    D7        0.00000   0.00000   0.00000   0.00000   0.00000   0.00000
    D8        3.14159   0.00000   0.00000   0.00000   0.00000   3.14159
    D9        3.14159   0.00000   0.00000   0.00000   0.00000   3.14159
   D10        0.00000   0.00000   0.00000   0.00000   0.00000   0.00000
   D11        0.00000   0.00000   0.00000   0.00000   0.00000   0.00000
   D12        3.14159   0.00000   0.00000   0.00000   0.00000   3.14159
   D13        0.00000   0.00000   0.00000   0.00000   0.00000   0.00000
   D14        3.14159   0.00000   0.00000   0.00000   0.00000   3.14159
   D15        0.00000   0.00000   0.00000   0.00000   0.00000   0.00000
   D16        3.14159   0.00000   0.00000   0.00000   0.00000   3.14159
         Item               Value     Threshold  Converged?
 Maximum Force            0.000278     0.000450     YES
 RMS     Force            0.000077     0.000300     YES
 Maximum Displacement     0.000836     0.001800     YES
 RMS     Displacement     0.000243     0.001200     YES
 Predicted change in Energy=-3.393970D-07
 Optimization completed.
    -- Stationary point found.
                         ----------------------------
                         !   Optimized Parameters   !
                         ! (Angstroms and Degrees)  !
 ------------------------                            -------------------------
 ! Name  Definition              Value          Derivative Info.             !
 -----------------------------------------------------------------------------
 ! R1    R(1,2)                  1.0783         -DE/DX =    0.               !
 ! R2    R(2,4)                  1.3753         -DE/DX =    0.0003           !
 ! R3    R(2,9)                  1.3512         -DE/DX =   -0.0002           !
 ! R4    R(3,4)                  1.0778         -DE/DX =    0.               !
 ! R5    R(4,6)                  1.408          -DE/DX =    0.               !
 ! R6    R(5,6)                  1.0797         -DE/DX =    0.               !
 ! R7    R(6,7)                  1.3242         -DE/DX =   -0.0001           !
 ! R8    R(7,9)                  1.3356         -DE/DX =    0.0001           !
 ! R9    R(8,9)                  1.0035         -DE/DX =    0.               !
 ! A1    A(1,2,4)              132.0593         -DE/DX =   -0.0001           !
 ! A2    A(1,2,9)              121.8716         -DE/DX =    0.               !
 ! A3    A(4,2,9)              106.0691         -DE/DX =    0.0001           !
 ! A4    A(2,4,3)              127.2919         -DE/DX =    0.0001           !
 ! A5    A(2,4,6)              104.3294         -DE/DX =   -0.0001           !
 ! A6    A(3,4,6)              128.3787         -DE/DX =    0.               !
 ! A7    A(4,6,5)              128.6521         -DE/DX =    0.               !
 ! A8    A(4,6,7)              111.9646         -DE/DX =   -0.0001           !
 ! A9    A(5,6,7)              119.3834         -DE/DX =    0.0001           !
 ! A10   A(6,7,9)              104.2027         -DE/DX =    0.0002           !
 ! A11   A(2,9,7)              113.4343         -DE/DX =   -0.0001           !
 ! A12   A(2,9,8)              127.6365         -DE/DX =    0.0001           !
 ! A13   A(7,9,8)              118.9292         -DE/DX =    0.               !
 ! D1    D(1,2,4,3)              0.             -DE/DX =    0.               !
 ! D2    D(1,2,4,6)            180.             -DE/DX =    0.               !
 ! D3    D(9,2,4,3)            180.             -DE/DX =    0.               !
 ! D4    D(9,2,4,6)              0.             -DE/DX =    0.               !
 ! D5    D(1,2,9,7)            180.             -DE/DX =    0.               !
 ! D6    D(1,2,9,8)              0.             -DE/DX =    0.               !
 ! D7    D(4,2,9,7)              0.             -DE/DX =    0.               !
 ! D8    D(4,2,9,8)            180.             -DE/DX =    0.               !
 ! D9    D(2,4,6,5)            180.             -DE/DX =    0.               !
 ! D10   D(2,4,6,7)              0.             -DE/DX =    0.               !
 ! D11   D(3,4,6,5)              0.             -DE/DX =    0.               !
 ! D12   D(3,4,6,7)            180.             -DE/DX =    0.               !
 ! D13   D(4,6,7,9)              0.             -DE/DX =    0.               !
 ! D14   D(5,6,7,9)            180.             -DE/DX =    0.               !
 ! D15   D(6,7,9,2)              0.             -DE/DX =    0.               !
 ! D16   D(6,7,9,8)            180.             -DE/DX =    0.               !
 -----------------------------------------------------------------------------
 GradGradGradGradGradGradGradGradGradGradGradGradGradGradGradGradGradGrad

 1\1\GINC-FERRUM\Freq\RmPW1PW91\6-311G(d)\C3H4N2\RDJ3\11-Jan-2001\0\\#N
  GEOM=ALLCHECK GUESS=TCHECK RMPW1PW91/6-311G(D) FREQ\\1H pyrazole C3H4
 N2 casno=288131\\0,1\H,-1.8887635546,0.,-1.1680629169\C,-0.9343082982,
 0.,-0.6662848248\H,0.6729607519,0.,-2.1716065882\C,0.3563541297,0.,-1.
 1413812406\H,2.2315698801,0.,0.0959170217\C,1.1546297928,0.,0.01845925
 41\N,0.4238066652,0.,1.1227287245\H,-1.5851189371,0.,1.3499665995\N,-0
 .8367640775,0.,0.6814179543\\Version=IBM-RS6000-G98RevA.6\State=1-A'\H
 F=-226.1924469\RMSD=1.354e-09\RMSF=1.365e-04\Dipole=-0.8170099,0.,-0.4
 054942\DipoleDeriv=-0.0188782,-0.0002479,-0.057236,-0.0000429,0.190962
 6,0.0001478,-0.0427913,-0.0000605,0.076066,0.1488146,0.0003824,-0.1273
 131,-0.0001559,-0.091287,-0.0000539,-0.2875644,-0.0005107,0.2194308,0.
 0983892,-0.0002501,0.0367128,-0.0001072,0.1804979,0.0002378,0.0421925,
 0.0004142,-0.047435,-0.2536017,-0.0001887,-0.002523,0.0001562,-0.24292
 34,-0.0002431,-0.0531783,-0.0006019,-0.0053606,-0.0665337,-0.0001169,-
 0.0062086,0.000101,0.1526787,-0.0000704,-0.0330889,-0.0000609,0.084190
 7,0.2336626,0.0001708,0.1110525,0.0001269,-0.0804514,-0.0000191,0.1945
 163,0.0003889,0.1956062,-0.0058738,0.0000545,-0.2216962,-0.0004244,-0.
 2234009,0.0001646,-0.1027758,-0.0000457,-0.5995113,0.1946827,-0.000125
 4,-0.0333855,-0.0000681,0.3333485,0.0001403,-0.0194273,0.0001647,0.211
 4646,-0.3306614,0.0003212,0.300597,0.0004144,-0.2194247,-0.0003044,0.3
 021161,0.0003122,-0.134451\Polar=50.0831528,0.0075433,21.6668934,-0.17
 78746,-0.0148326,46.2930279\PG=CS [SG(C3H4N2)]\NImag=0\\0.30690413,-0.
 00000209,0.02051866,0.13566511,-0.00000033,0.12321187,-0.30189939,0.00
 000255,-0.11631089,0.87397026,0.00000242,-0.02501898,0.00000064,-0.000
 00366,0.11976290,-0.12628985,-0.00000101,-0.12143062,0.09788473,0.0000
 0030,0.66220167,0.00019062,-0.00000134,-0.00085087,0.00220203,0.000000
 65,0.02604092,0.07672755,-0.00000422,-0.00276702,-0.00000128,0.0000056
 6,-0.00204585,-0.00000594,-0.00000297,0.02179527,0.00056540,0.00000362
 ,-0.00020423,-0.00335526,-0.00000315,0.00032992,-0.09399490,0.00000602
 ,0.35021209,-0.00669391,-0.00000143,0.00905067,-0.35305554,0.00000100,
 0.07648516,-0.08431032,-0.00000252,0.08753441,0.63267142,0.00000385,0.
 00099580,0.00000113,-0.00000515,-0.06418455,0.00000676,0.00000256,-0.0
 2559464,-0.00000400,0.00000267,0.11654902,-0.01528021,-0.00000609,0.01
 294735,0.10405299,0.00000319,-0.14481086,0.08503775,-0.00000933,-0.337
 43779,-0.12199392,0.00000732,0.84416099,-0.00020590,-0.00000252,0.0002
 6200,-0.00085653,0.00000491,-0.00135385,-0.00016037,0.00000017,-0.0005
 7380,-0.00472968,-0.00000210,0.00396540,0.37417579,-0.00000188,0.00085
 986,-0.00000204,0.00000476,0.00451044,-0.00000808,-0.00000440,-0.00185
 757,0.00000600,-0.00000146,0.00078393,-0.00000486,0.00000184,0.0246812
 4,-0.00105722,-0.00000054,0.00105980,-0.00303302,0.00000125,-0.0059480
 0,0.00090073,-0.00000049,0.00010081,-0.02175117,0.00000016,0.00703823,
 0.02213123,0.00000008,0.05652968,-0.00471410,0.00000357,0.00457320,-0.
 05576464,-0.00000316,-0.00002620,0.01358047,0.00000065,0.01237897,-0.1
 8389156,0.00000161,-0.10853563,-0.35337354,-0.00000363,-0.03396415,0.8
 9866574,0.00000140,0.00491709,0.00000173,-0.00000340,0.01168434,0.0000
 0903,0.00000439,-0.00320657,-0.00000441,0.00000150,-0.06623220,0.00000
 509,-0.00000676,-0.03051780,-0.00000120,0.00000615,0.14085131,0.001003
 46,0.00000403,-0.00210803,-0.07126133,-0.00000396,0.03667417,-0.014965
 31,0.00000619,-0.00877062,-0.07393489,-0.00000636,-0.23728202,-0.02589
 784,0.00000068,-0.06161368,-0.01205500,0.00000003,0.62404876,0.0005954
 4,0.00000090,0.00057891,-0.05957380,-0.00000366,-0.05122713,-0.0020056
 8,-0.00000101,-0.00105757,0.02911167,0.00000176,0.04027990,-0.01402999
 ,-0.00000260,0.02862082,-0.18590797,0.00000608,0.14723086,0.52679540,-
 0.00000042,0.00671830,-0.00000033,-0.00000012,0.01752984,-0.00000582,-
 0.00000138,0.00664354,-0.00000230,-0.00000054,0.02086913,-0.00000070,0
 .00001378,-0.00792681,0.00000213,-0.00000898,-0.07417906,-0.00000219,-
 0.00000833,0.10823969,0.00216611,-0.00000012,-0.00579320,-0.02007006,0
 .00000180,-0.06877224,-0.00616871,-0.00000209,-0.00428414,-0.03383638,
 0.00000353,-0.07901564,-0.00090615,-0.00000259,0.00653609,0.11367368,0
 .00000183,-0.31658475,-0.04752767,0.00000227,0.58281478,-0.00022392,-0
 .00000156,0.00043642,0.01073053,0.00000220,-0.00381167,0.00070443,-0.0
 0000156,-0.00012686,0.00188506,0.00000089,-0.00318041,-0.00041214,-0.0
 0000082,0.00147793,-0.00776744,-0.00000063,-0.00545109,-0.02309133,0.0
 0000437,0.02536727,0.30401619,-0.00000205,-0.00153911,-0.00000034,0.00
 000267,-0.00798590,-0.00000165,-0.00000144,0.00233674,0.00000378,-0.00
 000077,0.00315590,-0.00000541,-0.00000166,0.00225386,-0.00000041,0.000
 00298,0.00459490,0.00000222,0.00000081,-0.01268335,0.00000139,-0.00000
 129,0.01313818,-0.00077251,0.00000157,0.00004015,0.02589528,-0.0000019
 5,-0.00616652,0.00125004,0.00000231,0.00017891,-0.00227234,-0.00000174
 ,-0.00707401,-0.00050716,0.00000216,0.00095800,-0.00595426,-0.00000114
 ,0.00089307,-0.01131968,-0.00000262,0.01715899,-0.21038686,0.00000143,
 0.25806221,0.00604704,0.00000191,-0.03340455,-0.11575292,-0.00000070,-
 0.01770211,-0.00692872,0.00000580,-0.00137039,-0.03098714,-0.00000607,
 0.01565413,-0.00040764,0.00000818,0.00667485,-0.12082696,-0.00000873,0
 .05533114,-0.27189376,0.00000163,-0.03269809,-0.28584137,0.00000075,0.
 20406748,0.82659146,0.00000300,-0.00468460,0.00000082,-0.00000331,-0.0
 5425225,0.00000642,0.00000393,0.00469610,-0.00000556,0.00000157,0.0136
 5760,0.00001080,-0.00000767,0.00721286,-0.00000098,0.00000081,0.012088
 00,-0.00000064,0.00000604,-0.06521129,-0.00000603,-0.00000159,-0.00327
 122,-0.00000003,-0.00000278,0.08976479,0.00399971,-0.00000114,-0.00772
 311,-0.01380243,0.00000188,-0.35207754,0.00275035,0.00000461,-0.000124
 94,0.08071847,-0.00000678,-0.05852624,0.00288015,0.00000866,-0.0046609
 5,0.02990942,-0.00001096,-0.03525693,-0.10557844,0.00000956,-0.1320598
 9,0.19567525,-0.00000100,-0.26405080,-0.19655248,-0.00000481,0.8544804
 0\\-0.00002781,0.,0.00005751,0.00012584,0.,-0.00048124,-0.00003818,0.,
 -0.00001620,-0.00016889,0.,0.00022277,-0.00003877,0.,0.00000701,-0.000
 05145,0.,-0.00015039,-0.00002072,0.,0.00019284,-0.00000806,0.,-0.00005
 968,0.00022804,0.,0.00022739\\\@


 TIME IS IN FACT THE HERO OF THE PLOT. THE TIME
 WITH WHICH WE HAVE TO DEAL IS OF THE ORDER OF TWO
 BILLION YEARS...GIVEN SO MUCH TIME, THE "IMPOSSIBLE"
 BECOMES POSSIBLE, THE POSSIBLE PROBABLE, THE PROBABLE
 VIRTUALLY CERTAIN.  ONE HAS ONLY TO WAIT, TIME
 ITSELF PERFORMS THE MIRACLES.
 "ORIGIN OF LIFE" LECTURES, GEORGE WALD, 1954
 Job cpu time:  0 days  0 hours 13 minutes 43.5 seconds.
 File lengths (MBytes):  RWF=   20 Int=    0 D2E=    0 Chk=    3 Scr=    1
 Normal termination of Gaussian 98.
