 Entering Gaussian System, Link 0=g98
 Initial command:
 /usr/local/apps/g98a6/g98/l1.exe /wrk/rdj3/Gau-28842.inp -scrdir=/wrk/rdj3/
 Entering Link 1 = /usr/local/apps/g98a6/g98/l1.exe PID=     23710.
  
 Copyright (c) 1988,1990,1992,1993,1995,1998 Gaussian, Inc.
                  All Rights Reserved.
  
 This is part of the Gaussian(R) 98 program.  It is based on
 the Gaussian 94(TM) system (copyright 1995 Gaussian, Inc.),
 the Gaussian 92(TM) system (copyright 1992 Gaussian, Inc.),
 the Gaussian 90(TM) system (copyright 1990 Gaussian, Inc.),
 the Gaussian 88(TM) system (copyright 1988 Gaussian, Inc.),
 the Gaussian 86(TM) system (copyright 1986 Carnegie Mellon
 University), and the Gaussian 82(TM) system (copyright 1983
 Carnegie Mellon University). Gaussian is a federally registered
 trademark of Gaussian, Inc.
  
 This software contains proprietary and confidential information,
 including trade secrets, belonging to Gaussian, Inc.
  
 This software is provided under written license and may be
 used, copied, transmitted, or stored only in accord with that
 written license.
  
 The following legend is applicable only to US Government
 contracts under DFARS:
  
                    RESTRICTED RIGHTS LEGEND
  
 Use, duplication or disclosure by the US Government is subject
 to restrictions as set forth in subparagraph (c)(1)(ii) of the
 Rights in Technical Data and Computer Software clause at DFARS
 252.227-7013.
  
 Gaussian, Inc.
 Carnegie Office Park, Building 6, Pittsburgh, PA 15106 USA
  
 The following legend is applicable only to US Government
 contracts under FAR:
  
                    RESTRICTED RIGHTS LEGEND
  
 Use, reproduction and disclosure by the US Government is subject
 to restrictions as set forth in subparagraph (c) of the
 Commercial Computer Software - Restricted Rights clause at FAR
 52.227-19.
  
 Gaussian, Inc.
 Carnegie Office Park, Building 6, Pittsburgh, PA 15106 USA
  
  
 ---------------------------------------------------------------
 Warning -- This program may not be used in any manner that
 competes with the business of Gaussian, Inc. or will provide
 assistance to any competitor of Gaussian, Inc.  The licensee
 of this program is prohibited from giving any competitor of
 Gaussian, Inc. access to this program.  By using this program,
 the user acknowledges that Gaussian, Inc. is engaged in the
 business of creating and licensing software in the field of
 computational chemistry and represents and warrants to the
 licensee that it is not a competitor of Gaussian, Inc. and that
 it will not use this program in any manner prohibited above.
 ---------------------------------------------------------------
  

 Cite this work as:
 Gaussian 98, Revision A.6,
 M. J. Frisch, G. W. Trucks, H. B. Schlegel, G. E. Scuseria, 
 M. A. Robb, J. R. Cheeseman, V. G. Zakrzewski, J. A. Montgomery, Jr., 
 R. E. Stratmann, J. C. Burant, S. Dapprich, J. M. Millam, 
 A. D. Daniels, K. N. Kudin, M. C. Strain, O. Farkas, J. Tomasi, 
 V. Barone, M. Cossi, R. Cammi, B. Mennucci, C. Pomelli, C. Adamo, 
 S. Clifford, J. Ochterski, G. A. Petersson, P. Y. Ayala, Q. Cui, 
 K. Morokuma, D. K. Malick, A. D. Rabuck, K. Raghavachari, 
 J. B. Foresman, J. Cioslowski, J. V. Ortiz, B. B. Stefanov, G. Liu, 
 A. Liashenko, P. Piskorz, I. Komaromi, R. Gomperts, R. L. Martin, 
 D. J. Fox, T. Keith, M. A. Al-Laham, C. Y. Peng, A. Nanayakkara, 
 C. Gonzalez, M. Challacombe, P. M. W. Gill, B. Johnson, W. Chen, 
 M. W. Wong, J. L. Andres, C. Gonzalez, M. Head-Gordon, 
 E. S. Replogle, and J. A. Pople, 
 Gaussian, Inc., Pittsburgh PA, 1998.

 **********************************************
 Gaussian 98:  IBM-RS6000-G98RevA.6 19-Oct-1998
                   9-Jan-2003 
 **********************************************
 %mem=36000000
 ----------------
 #CCSD(T)/cc-pVDZ
 ----------------
 1/38=1/1;
 2/17=6,18=5/2;
 3/5=16,11=9,25=1,30=1/1,2,3;
 4//1;
 5/5=2,38=4/2;
 8/6=7,9=120000,10=1/1,4;
 9/5=7,14=2/13;
 6/7=2,8=2,9=2,10=2/1;
 99/5=1,9=1/99;
 ---------------------------------------------------
 1hpyraz single point casno=288131 method=27 basis=5
 ---------------------------------------------------
 Symbolic Z-matrix:
 Charge =  0 Multiplicity = 1
 H                     2.08045   0.72242   0. 
 C                     1.09639   0.3024    0. 
 H                     1.25554  -1.87978   0. 
 C                     0.66281  -0.9897    0. 
 H                    -1.47487  -1.65877   0. 
 C                    -0.74554  -0.87448   0. 
 N                    -1.12786   0.37057   0. 
 H                    -0.04808   2.06666   0. 
 N                     0.        1.07516   0. 
 ------------------------------------------------------------------------
                         Z-MATRIX (ANGSTROMS AND DEGREES)
 CD Cent Atom  N1     Length/X     N2    Alpha/Y     N3     Beta/Z      J
 ------------------------------------------------------------------------
   1   1  H     0   2.080447          0.722417          0.000000
   2   2  C     0   1.096394          0.302400          0.000000
   3   3  H     0   1.255542         -1.879784          0.000000
   4   4  C     0   0.662812         -0.989701          0.000000
   5   5  H     0  -1.474873         -1.658768          0.000000
   6   6  C     0  -0.745544         -0.874478          0.000000
   7   7  N     0  -1.127859          0.370571          0.000000
   8   8  H     0  -0.048078          2.066660          0.000000
   9   9  N     0   0.000000          1.075164          0.000000
 ------------------------------------------------------------------------
                         Z-Matrix orientation:                         
 ---------------------------------------------------------------------
 Center     Atomic     Atomic              Coordinates (Angstroms)
 Number     Number      Type              X           Y           Z
 ---------------------------------------------------------------------
    1          1             0        2.080447    0.722417    0.000000
    2          6             0        1.096394    0.302400    0.000000
    3          1             0        1.255542   -1.879784    0.000000
    4          6             0        0.662812   -0.989701    0.000000
    5          1             0       -1.474873   -1.658768    0.000000
    6          6             0       -0.745544   -0.874478    0.000000
    7          7             0       -1.127859    0.370571    0.000000
    8          1             0       -0.048078    2.066660    0.000000
    9          7             0        0.000000    1.075164    0.000000
 ---------------------------------------------------------------------
                    Distance matrix (angstroms):
                    1          2          3          4          5
     1  H    0.000000
     2  C    1.069941   0.000000
     3  H    2.729820   2.187980   0.000000
     4  C    2.222844   1.362908   1.069381   0.000000
     5  H    4.279059   3.233820   2.739346   2.239944   0.000000
     6  C    3.245967   2.185813   2.239416   1.413062   1.070996
     7  N    3.227541   2.225297   3.277911   2.248742   2.058795
     8  H    2.517461   2.102957   4.156182   3.137946   3.989305
     9  N    2.110140   1.341359   3.210624   2.168637   3.106386
                    6          7          8          9
     6  C    0.000000
     7  N    1.302425   0.000000
     8  H    3.022706   2.010633   0.000000
     9  N    2.087328   1.329856   0.992661   0.000000
                           Interatomic angles:
       H1-C2-H3=108.9427       H1-C2-C4=131.6638       H1-C4-H3=106.7145
       C2-C4-H3=127.7894       H1-H3-H5=102.961        C2-H3-H5= 81.201 
       H1-C4-H5=147.0042       C2-C4-H5=125.9293       H3-C4-H5=106.2813
       H1-C2-C6=170.538        H1-H3-C6= 80.9147       H3-C2-C6= 61.5953
       H1-C4-C6=124.9476       C2-C4-C6=103.8727       H3-C4-C6=128.3379
       C2-C6-H5=165.4964       H3-C6-H5=106.2464       C4-C6-H5=128.2433
       H1-C2-N7=155.1306       H3-C2-N7= 95.9267       H1-C4-N7= 92.4029
       C4-C2-N7= 73.2056       H3-C4-N7=160.8826       C2-N7-H5= 97.9481
       H3-H5-N7= 84.9241       C4-H5-N7= 62.9169       C2-C6-N7= 74.4941
       H3-C6-N7=133.7441       C4-C6-N7=111.7472       H5-C6-N7=120.0095
       H1-C2-H8= 99.8575       H3-H1-H8=104.6852       H3-C2-H8=151.1998
       C4-H1-H8= 82.6492       C4-C2-H8=128.4787       C6-C2-H8= 89.6045
       H1-H8-N7= 90.2081       C2-H8-N7= 65.4534       C4-N7-H8= 94.7398
       H5-N7-H8=157.2216       C6-N7-H8=130.4479       H1-C2-N9=121.709 
       H3-H1-N9= 82.0344       H3-C2-N9=129.3483       H1-N9-C4= 62.5804
       C4-C2-N9=106.6272       H3-C4-N9=164.1357       H5-C4-N9= 89.583 
       H1-N9-C6=101.3037       C2-N9-C6= 75.7498       H3-C6-N9= 95.7472
       C4-C6-N9= 73.7503       H5-C6-N9=158.0064       H1-N9-N7=138.3831
       C2-N9-N7=112.8292       C4-N9-N7= 75.8027       H5-N7-N9=131.6974
       C6-N7-N9=104.9237       H1-N9-H8=102.3993       C2-N9-H8=127.9532
       C4-N9-H8=164.9797       C6-N9-H8=156.297        N7-N9-H8=119.2176
 Stoichiometry    C3H4N2
 Framework group  CS[SG(C3H4N2)]
 Deg. of freedom   15
 Full point group                 CS      NOp   2
 Largest Abelian subgroup         CS      NOp   2
 Largest concise Abelian subgroup C1      NOp   1
                         Standard orientation:                         
 ---------------------------------------------------------------------
 Center     Atomic     Atomic              Coordinates (Angstroms)
 Number     Number      Type              X           Y           Z
 ---------------------------------------------------------------------
    1          1             0        2.080447    0.722417    0.000000
    2          6             0        1.096394    0.302400    0.000000
    3          1             0        1.255542   -1.879784    0.000000
    4          6             0        0.662812   -0.989701    0.000000
    5          1             0       -1.474873   -1.658768    0.000000
    6          6             0       -0.745544   -0.874478    0.000000
    7          7             0       -1.127859    0.370571    0.000000
    8          1             0       -0.048078    2.066660    0.000000
    9          7             0        0.000000    1.075164    0.000000
 ---------------------------------------------------------------------
 Rotational constants (GHZ):      9.8799691      9.6409264      4.8794921
 Isotopes: H-1,C-12,H-1,C-12,H-1,C-12,N-14,H-1,N-14
 Standard basis: CC-pVDZ (5D, 7F)
 There are    66 symmetry adapted basis functions of A'  symmetry.
 There are    24 symmetry adapted basis functions of A"  symmetry.
 Crude estimate of integral set expansion from redundant integrals=1.000.
 Integral buffers will be    262144 words long.
 Raffenetti 1 integral format.
 Two-electron integral symmetry is turned on.
    90 basis functions      203 primitive gaussians
    18 alpha electrons       18 beta electrons
       nuclear repulsion energy       164.9559276626 Hartrees.
 One-electron integrals computed using PRISM.
 NBasis=    90 RedAO= T  NBF=    66    24
 NBsUse=    90 1.00D-04 NBFU=    66    24
 Projected INDO Guess.
 Initial guess orbital symmetries:
       Occupied  (A') (A') (A') (A') (A') (A') (A') (A') (A') (A')
                 (A') (A") (A') (A') (A') (A') (A") (A")
       Virtual   (A") (A') (A') (A") (A') (A') (A') (A') (A') (A')
                 (A') (A') (A') (A') (A') (A') (A') (A') (A') (A')
                 (A') (A') (A') (A') (A') (A') (A') (A') (A') (A')
                 (A') (A') (A') (A') (A') (A') (A') (A') (A') (A')
                 (A') (A') (A') (A') (A') (A') (A') (A') (A') (A')
                 (A') (A') (A') (A") (A") (A") (A") (A") (A") (A")
                 (A") (A") (A") (A") (A") (A") (A") (A") (A") (A")
                 (A") (A")
 Requested convergence on RMS density matrix=1.00D-08 within  64 cycles.
 Requested convergence on MAX density matrix=1.00D-06.
 Keep R1 integrals in memory in canonical form, NReq=    10871361.
 SCF Done:  E(RHF) =  -224.815595078     A.U. after   14 cycles
             Convg  =    0.7358D-08             -V/T =  2.0000
             S**2   =   0.0000
 Range of M.O.s used for correlation:     6    90
 NBasis=    90 NAE=    18 NBE=    18 NFC=     5 NFV=     0
 NROrb=     85 NOA=    13 NOB=    13 NVA=    72 NVB=    72
 Estimate disk for full transformation    78493821 words.
 Spin components of T(2) and E(2):
     alpha-alpha T2 =       0.3455983521D-01 E2=     -0.9712167413D-01
     alpha-beta  T2 =       0.1807838412D+00 E2=     -0.5265637201D+00
     beta-beta   T2 =       0.3455983521D-01 E2=     -0.9712167413D-01
 ANorm=    0.1117990837D+01
 E2=       -0.7208070684D+00 EUMP2=       -0.22553640214598D+03
 Iterations=  50 Convergence= 0.100D-06
 Iteration Nr.   1
 **********************
 MP4(R+Q)=  0.18355838D-01
 E3=       -0.17186067D-01        EUMP3=      -0.22555358821D+03
 E4(DQ)=    0.90798197D-04        UMP4(DQ)=   -0.22555349742D+03
 E4(SDQ)=  -0.58996074D-02        UMP4(SDQ)=  -0.22555948782D+03
 DE(CORR)= -0.71953145D+00        E(CORR)=    -0.22553512652D+03
 NORM(A)=   0.11183323D+01
 Iteration Nr.   2
 **********************
 DE(CORR)= -0.74051923D+00        E(CORR)=    -0.22555611431D+03
 NORM(A)=   0.11283536D+01
 Iteration Nr.   3
 **********************
 DE(CORR)= -0.74192040D+00        E(CORR)=    -0.22555751548D+03
 NORM(A)=   0.11301775D+01
 Iteration Nr.   4
 **********************
 DE(CORR)= -0.74357943D+00        E(CORR)=    -0.22555917451D+03
 NORM(A)=   0.11307288D+01
 Iteration Nr.   5
 **********************
 DE(CORR)= -0.74375594D+00        E(CORR)=    -0.22555935102D+03
 NORM(A)=   0.11309223D+01
 Iteration Nr.   6
 **********************
 DE(CORR)= -0.74377452D+00        E(CORR)=    -0.22555936959D+03
 NORM(A)=   0.11309393D+01
 Iteration Nr.   7
 **********************
 DE(CORR)= -0.74377617D+00        E(CORR)=    -0.22555937125D+03
 NORM(A)=   0.11309499D+01
 Iteration Nr.   8
 **********************
 DE(CORR)= -0.74377231D+00        E(CORR)=    -0.22555936739D+03
 NORM(A)=   0.11309538D+01
 Iteration Nr.   9
 **********************
 DE(CORR)= -0.74377371D+00        E(CORR)=    -0.22555936879D+03
 NORM(A)=   0.11309550D+01
 Iteration Nr.  10
 **********************
 DE(CORR)= -0.74377392D+00        E(CORR)=    -0.22555936900D+03
 NORM(A)=   0.11309560D+01
 Iteration Nr.  11
 **********************
 DE(CORR)= -0.74377445D+00        E(CORR)=    -0.22555936952D+03
 NORM(A)=   0.11309563D+01
 Iteration Nr.  12
 **********************
 DE(CORR)= -0.74377460D+00        E(CORR)=    -0.22555936968D+03
 NORM(A)=   0.11309566D+01
 Iteration Nr.  13
 **********************
 DE(CORR)= -0.74377470D+00        E(CORR)=    -0.22555936977D+03
 NORM(A)=   0.11309567D+01
 Iteration Nr.  14
 **********************
 DE(CORR)= -0.74377471D+00        E(CORR)=    -0.22555936979D+03
 NORM(A)=   0.11309567D+01
 Largest amplitude= 7.27D-02
 Time for triples=      287.83 seconds.
 T4(CCSD)= -0.31038628D-01
 T5(CCSD)=  0.89765460D-03
 CCSD(T)= -0.22558951076D+03

 **********************************************************************

            Population analysis using the SCF density.

 **********************************************************************

 Orbital Symmetries:
       Occupied  (A') (A') (A') (A') (A') (A') (A') (A') (A') (A')
                 (A') (A') (A") (A') (A') (A') (A") (A")
       Virtual   (A") (A') (A') (A') (A") (A') (A') (A') (A') (A')
                 (A') (A') (A") (A') (A') (A") (A') (A") (A') (A')
                 (A') (A') (A') (A") (A') (A') (A') (A") (A") (A')
                 (A') (A") (A') (A') (A") (A") (A') (A") (A') (A')
                 (A') (A") (A') (A') (A") (A') (A') (A") (A') (A")
                 (A") (A') (A') (A') (A') (A") (A') (A') (A") (A')
                 (A') (A') (A") (A') (A") (A') (A') (A') (A') (A')
                 (A') (A')
  The electronic state is 1-A'.
 Alpha  occ. eigenvalues --  -15.63506 -15.57903 -11.27417 -11.24713 -11.21771
 Alpha  occ. eigenvalues --   -1.38744  -1.10405  -1.05343  -0.82354  -0.80435
 Alpha  occ. eigenvalues --   -0.74373  -0.61190  -0.61085  -0.59080  -0.56003
 Alpha  occ. eigenvalues --   -0.45212  -0.36267  -0.34428
 Alpha virt. eigenvalues --    0.17939   0.18184   0.22317   0.23038   0.24007
 Alpha virt. eigenvalues --    0.24907   0.39042   0.39936   0.42313   0.51398
 Alpha virt. eigenvalues --    0.60378   0.63595   0.68433   0.69010   0.73077
 Alpha virt. eigenvalues --    0.73950   0.76194   0.81053   0.81142   0.87582
 Alpha virt. eigenvalues --    0.93177   0.94207   0.96616   1.01534   1.02365
 Alpha virt. eigenvalues --    1.06277   1.08172   1.11251   1.11866   1.18903
 Alpha virt. eigenvalues --    1.23980   1.24987   1.27520   1.34188   1.34395
 Alpha virt. eigenvalues --    1.41372   1.51383   1.56592   1.58741   1.73162
 Alpha virt. eigenvalues --    1.76183   1.77164   1.77466   1.83369   1.90906
 Alpha virt. eigenvalues --    1.91907   1.97673   2.00468   2.02264   2.12238
 Alpha virt. eigenvalues --    2.14673   2.15761   2.16187   2.22043   2.26791
 Alpha virt. eigenvalues --    2.30067   2.38223   2.40696   2.62547   2.65584
 Alpha virt. eigenvalues --    2.67488   2.73130   2.78345   2.86767   2.87390
 Alpha virt. eigenvalues --    2.92118   2.98602   3.07054   3.24882   3.33877
 Alpha virt. eigenvalues --    3.57779   3.81227
          Condensed to atoms (all electrons):
              1          2          3          4          5          6
  1  H    0.586437   0.423409  -0.001676  -0.027834  -0.000121   0.003013
  2  C    0.423409   4.717868  -0.035712   0.536707   0.007683  -0.088973
  3  H   -0.001676  -0.035712   0.612014   0.430649  -0.002794  -0.029583
  4  C   -0.027834   0.536707   0.430649   4.900382  -0.044999   0.523876
  5  H   -0.000121   0.007683  -0.002794  -0.044999   0.601200   0.430668
  6  C    0.003013  -0.088973  -0.029583   0.523876   0.430668   4.571308
  7  N    0.002744  -0.144420   0.005773  -0.035573  -0.020561   0.599500
  8  H   -0.003079  -0.031110  -0.000167   0.007282  -0.000304   0.004744
  9  N   -0.024447   0.417978   0.003905  -0.054364   0.002462  -0.181712
              7          8          9
  1  H    0.002744  -0.003079  -0.024447
  2  C   -0.144420  -0.031110   0.417978
  3  H    0.005773  -0.000167   0.003905
  4  C   -0.035573   0.007282  -0.054364
  5  H   -0.020561  -0.000304   0.002462
  6  C    0.599500   0.004744  -0.181712
  7  N    6.483968  -0.027568   0.371366
  8  H   -0.027568   0.519265   0.407707
  9  N    0.371366   0.407707   6.158621
 Total atomic charges:
              1
  1  H    0.041552
  2  C    0.196571
  3  H    0.017591
  4  C   -0.236126
  5  H    0.026766
  6  C    0.167159
  7  N   -0.235228
  8  H    0.123229
  9  N   -0.101515
 Sum of Mulliken charges=   0.00000
 Atomic charges with hydrogens summed into heavy atoms:
              1
  1  H    0.000000
  2  C    0.238124
  3  H    0.000000
  4  C   -0.218535
  5  H    0.000000
  6  C    0.193925
  7  N   -0.235228
  8  H    0.000000
  9  N    0.021714
 Sum of Mulliken charges=   0.00000
 Electronic spatial extent (au):  <R**2>=   281.1267
 Charge=     0.0000 electrons
 Dipole moment (Debye):
    X=     2.1595    Y=     0.8807    Z=     0.0000  Tot=     2.3322
 Quadrupole moment (Debye-Ang):
   XX=   -29.4726   YY=   -22.1649   ZZ=   -31.9786
   XY=     2.7338   XZ=     0.0000   YZ=     0.0000
 Octapole moment (Debye-Ang**2):
  XXX=     9.0067  YYY=    12.1962  ZZZ=     0.0000  XYY=     0.0965
  XXY=    -1.9156  XXZ=     0.0000  XZZ=    -1.1861  YZZ=     2.4827
  YYZ=     0.0000  XYZ=     0.0000
 Hexadecapole moment (Debye-Ang**3):
 XXXX=  -169.4127 YYYY=  -129.5774 ZZZZ=   -32.9802 XXXY=    10.4769
 XXXZ=     0.0000 YYYX=    -1.0675 YYYZ=     0.0000 ZZZX=     0.0000
 ZZZY=     0.0000 XXYY=   -50.2440 XXZZ=   -37.2800 YYZZ=   -35.9367
 XXYZ=     0.0000 YYXZ=     0.0000 ZZXY=     0.1448
 N-N= 1.649559276626D+02 E-N=-8.555652731351D+02  KE= 2.248268057131D+02
 Symmetry A'   KE= 2.170084926337D+02
 Symmetry A"   KE= 7.818313079375D+00
 1\1\GINC-AURUM\SP\RCCSD(T)-FC\CC-pVDZ\C3H4N2\RDJ3\09-Jan-2003\0\\#CCSD
 (T)/CC-PVDZ\\1hpyraz single point casno=288131 method=27 basis=5\\0,1\
 H,0,2.080447,0.722417,0.\C,0,1.096394,0.3024,0.\H,0,1.255542,-1.879784
 ,0.\C,0,0.662812,-0.989701,0.\H,0,-1.474873,-1.658768,0.\C,0,-0.745544
 ,-0.874478,0.\N,0,-1.127859,0.370571,0.\H,0,-0.048078,2.06666,0.\N,0,0
 .,1.075164,0.\\Version=IBM-RS6000-G98RevA.6\State=1-A'\HF=-224.8155951
 \MP2=-225.5364021\MP3=-225.5535882\MP4D=-225.5718533\MP4DQ=-225.553497
 4\MP4SDQ=-225.5594878\CCSD=-225.5593698\CCSD(T)=-225.5895108\RMSD=7.35
 8e-09\PG=CS [SG(C3H4N2)]\\@


 EDUCATION DOESN'T COST 
           ... IT PAYS!

 -- POSTMARK, UNIV. OF MISSISSIPPI, DEC 78
 Job cpu time:  0 days  0 hours 11 minutes  7.0 seconds.
 File lengths (MBytes):  RWF=  385 Int=    0 D2E=    0 Chk=    6 Scr=    1
 Normal termination of Gaussian 98.
