 Entering Gaussian System, Link 0=g98
 Initial command:
 /usr/local/apps/g98/g98/l1.exe /wrk/rdj3/Gau-4288.inp -scrdir=/wrk/rdj3/
 Entering Link 1 = /usr/local/apps/g98/g98/l1.exe PID=      4034.
  
 Copyright (c) 1988,1990,1992,1993,1995,1998 Gaussian, Inc.
                  All Rights Reserved.
  
 This is part of the Gaussian(R) 98 program.  It is based on
 the Gaussian 94(TM) system (copyright 1995 Gaussian, Inc.),
 the Gaussian 92(TM) system (copyright 1992 Gaussian, Inc.),
 the Gaussian 90(TM) system (copyright 1990 Gaussian, Inc.),
 the Gaussian 88(TM) system (copyright 1988 Gaussian, Inc.),
 the Gaussian 86(TM) system (copyright 1986 Carnegie Mellon
 University), and the Gaussian 82(TM) system (copyright 1983
 Carnegie Mellon University). Gaussian is a federally registered
 trademark of Gaussian, Inc.
  
 This software contains proprietary and confidential information,
 including trade secrets, belonging to Gaussian, Inc.
  
 This software is provided under written license and may be
 used, copied, transmitted, or stored only in accord with that
 written license.
  
 The following legend is applicable only to US Government
 contracts under DFARS:
  
                    RESTRICTED RIGHTS LEGEND
  
 Use, duplication or disclosure by the US Government is subject
 to restrictions as set forth in subparagraph (c)(1)(ii) of the
 Rights in Technical Data and Computer Software clause at DFARS
 252.227-7013.
  
 Gaussian, Inc.
 Carnegie Office Park, Building 6, Pittsburgh, PA 15106 USA
  
 The following legend is applicable only to US Government
 contracts under FAR:
  
                    RESTRICTED RIGHTS LEGEND
  
 Use, reproduction and disclosure by the US Government is subject
 to restrictions as set forth in subparagraph (c) of the
 Commercial Computer Software - Restricted Rights clause at FAR
 52.227-19.
  
 Gaussian, Inc.
 Carnegie Office Park, Building 6, Pittsburgh, PA 15106 USA
  
  
 ---------------------------------------------------------------
 Warning -- This program may not be used in any manner that
 competes with the business of Gaussian, Inc. or will provide
 assistance to any competitor of Gaussian, Inc.  The licensee
 of this program is prohibited from giving any competitor of
 Gaussian, Inc. access to this program.  By using this program,
 the user acknowledges that Gaussian, Inc. is engaged in the
 business of creating and licensing software in the field of
 computational chemistry and represents and warrants to the
 licensee that it is not a competitor of Gaussian, Inc. and that
 it will not use this program in any manner prohibited above.
 ---------------------------------------------------------------
  

 Cite this work as:
 Gaussian 98, Revision A.4,
 M. J. Frisch, G. W. Trucks, H. B. Schlegel, G. E. Scuseria, 
 M. A. Robb, J. R. Cheeseman, V. G. Zakrzewski, J. A. Montgomery, Jr., 
 R. E. Stratmann, J. C. Burant, S. Dapprich, J. M. Millam, 
 A. D. Daniels, K. N. Kudin, M. C. Strain, O. Farkas, J. Tomasi, 
 V. Barone, M. Cossi, R. Cammi, B. Mennucci, C. Pomelli, C. Adamo, 
 S. Clifford, J. Ochterski, G. A. Petersson, P. Y. Ayala, Q. Cui, 
 K. Morokuma, D. K. Malick, A. D. Rabuck, K. Raghavachari, 
 J. B. Foresman, J. Cioslowski, J. V. Ortiz, B. B. Stefanov, G. Liu, 
 A. Liashenko, P. Piskorz, I. Komaromi, R. Gomperts, R. L. Martin, 
 D. J. Fox, T. Keith, M. A. Al-Laham, C. Y. Peng, A. Nanayakkara, 
 C. Gonzalez, M. Challacombe, P. M. W. Gill, B. Johnson, W. Chen, 
 M. W. Wong, J. L. Andres, C. Gonzalez, M. Head-Gordon, 
 E. S. Replogle, and J. A. Pople, 
 Gaussian, Inc., Pittsburgh PA, 1998.

 **********************************************
 Gaussian 98:  IBM-RS6000-G98RevA.4 11-Sep-1998
                  17-Apr-2000 
 **********************************************
 %mem=24000000
 ---------------------------
 #MP2=FULL/6-31+G** opt freq
 ---------------------------
 1/18=20,38=1/1,3;
 2/9=110,17=6,18=5/2;
 3/5=1,6=6,7=111,11=9,25=1,30=1/1,2,3;
 4//1;
 5/5=2,38=4/2;
 8/6=4,23=2/1;
 9/15=2,16=-3/6;
 10/5=1/2;
 6/7=2,8=2,9=2,10=2/1;
 7/12=2/1,2,3,16;
 1/18=20/3(1);
 99//99;
 2/9=110/2;
 3/5=1,6=6,7=111,11=9,25=1,30=1/1,2,3;
 4/5=5,16=2/1;
 5/5=2,38=4/2;
 8/6=4,23=2/1;
 9/15=2,16=-3/6;
 10/5=1/2;
 7/12=2/1,2,3,16;
 1/18=20/3(-8);
 2/9=110/2;
 6/7=2,8=2,9=2,10=2/1;
 99//99;
 -------------------------------
 1H pyrazole C3H4N2 casno=288131
 -------------------------------
 Symbolic Z-matrix:
 Charge =  0 Multiplicity = 1
 H                    -1.9125    0.       -0.75938 
 C                    -1.08438   0.       -0.21875 
 H                     0.43438   0.       -1.63125 
 C                     0.15      0.       -0.68438 
 H                     1.9125    0.        0.37188 
 C                     0.92188   0.        0.375 
 N                     0.18125   0.        1.41875 
 H                    -1.74063   0.        1.63125 
 N                    -1.00313   0.        1.05313 

 GradGradGradGradGradGradGradGradGradGradGradGradGradGradGradGradGradGrad
 Berny optimization.
 Initialization pass.
                         ----------------------------
                         !    Initial Parameters    !
                         ! (Angstroms and Degrees)  !
 ------------------------                            -------------------------
 ! Name  Definition              Value          Derivative Info.             !
 -----------------------------------------------------------------------------
 ! R1    R(1,2)                  0.989          estimate D2E/DX2             !
 ! R2    R(2,4)                  1.3193         estimate D2E/DX2             !
 ! R3    R(2,9)                  1.2745         estimate D2E/DX2             !
 ! R4    R(3,4)                  0.9887         estimate D2E/DX2             !
 ! R5    R(4,6)                  1.3108         estimate D2E/DX2             !
 ! R6    R(5,6)                  0.9906         estimate D2E/DX2             !
 ! R7    R(6,7)                  1.2798         estimate D2E/DX2             !
 ! R8    R(7,9)                  1.2395         estimate D2E/DX2             !
 ! R9    R(8,9)                  0.9371         estimate D2E/DX2             !
 ! A1    A(1,2,4)              126.195          estimate D2E/DX2             !
 ! A2    A(1,2,9)              126.7929         estimate D2E/DX2             !
 ! A3    A(4,2,9)              107.012          estimate D2E/DX2             !
 ! A4    A(2,4,3)              127.3838         estimate D2E/DX2             !
 ! A5    A(2,4,6)              105.4104         estimate D2E/DX2             !
 ! A6    A(3,4,6)              127.2058         estimate D2E/DX2             !
 ! A7    A(4,6,5)              125.8968         estimate D2E/DX2             !
 ! A8    A(4,6,7)              108.5636         estimate D2E/DX2             !
 ! A9    A(5,6,7)              125.5395         estimate D2E/DX2             !
 ! A10   A(6,7,9)              108.203          estimate D2E/DX2             !
 ! A11   A(2,9,7)              110.811          estimate D2E/DX2             !
 ! A12   A(2,9,8)              124.4376         estimate D2E/DX2             !
 ! A13   A(7,9,8)              124.7513         estimate D2E/DX2             !
 ! D1    D(1,2,4,3)              0.             estimate D2E/DX2             !
 ! D2    D(1,2,4,6)            180.             estimate D2E/DX2             !
 ! D3    D(9,2,4,3)            180.             estimate D2E/DX2             !
 ! D4    D(9,2,4,6)              0.             estimate D2E/DX2             !
 ! D5    D(1,2,9,7)            180.             estimate D2E/DX2             !
 ! D6    D(1,2,9,8)              0.             estimate D2E/DX2             !
 ! D7    D(4,2,9,7)              0.             estimate D2E/DX2             !
 ! D8    D(4,2,9,8)            180.             estimate D2E/DX2             !
 ! D9    D(2,4,6,5)            180.             estimate D2E/DX2             !
 ! D10   D(2,4,6,7)              0.             estimate D2E/DX2             !
 ! D11   D(3,4,6,5)              0.             estimate D2E/DX2             !
 ! D12   D(3,4,6,7)            180.             estimate D2E/DX2             !
 ! D13   D(4,6,7,9)              0.             estimate D2E/DX2             !
 ! D14   D(5,6,7,9)            180.             estimate D2E/DX2             !
 ! D15   D(6,7,9,2)              0.             estimate D2E/DX2             !
 ! D16   D(6,7,9,8)            180.             estimate D2E/DX2             !
 -----------------------------------------------------------------------------
 Trust Radius=3.00D-01 FncErr=1.00D-07 GrdErr=1.00D-07
 Number of steps in this run=  48 maximum allowed number of steps= 100.
 GradGradGradGradGradGradGradGradGradGradGradGradGradGradGradGradGradGrad

                          Input orientation:                          
 ---------------------------------------------------------------------
 Center     Atomic     Atomic              Coordinates (Angstroms)
 Number     Number      Type              X           Y           Z
 ---------------------------------------------------------------------
    1          1             0       -1.912500    0.000000   -0.759375
    2          6             0       -1.084375    0.000000   -0.218750
    3          1             0        0.434375    0.000000   -1.631250
    4          6             0        0.150000    0.000000   -0.684375
    5          1             0        1.912500    0.000000    0.371875
    6          6             0        0.921875    0.000000    0.375000
    7          7             0        0.181250    0.000000    1.418750
    8          1             0       -1.740625    0.000000    1.631250
    9          7             0       -1.003125    0.000000    1.053125
 ---------------------------------------------------------------------
                    Distance matrix (angstroms):
                    1          2          3          4          5
     1  H    0.000000
     2  C    0.988972   0.000000
     3  H    2.503595   2.074068   0.000000
     4  C    2.063863   1.319276   0.988656   0.000000
     5  H    3.988778   3.054521   2.489450   2.054768   0.000000
     6  C    3.052947   2.092266   2.064630   1.310750   0.990630
     7  N    3.021261   2.069592   3.060486   2.103357   2.023159
     8  H    2.396796   1.962948   3.921037   2.989412   3.864110
     9  N    2.027836   1.274468   3.045041   2.085331   2.994156
                    6          7          8          9
     6  C    0.000000
     7  N    1.279820   0.000000
     8  H    2.943989   1.933587   0.000000
     9  N    2.040950   1.239526   0.937088   0.000000
 Stoichiometry    C3H4N2
 Framework group  CS[SG(C3H4N2)]
 Deg. of freedom   15
 Full point group                 CS      NOp   2
 Largest Abelian subgroup         CS      NOp   2
 Largest concise Abelian subgroup C1      NOp   1
                         Standard orientation:                         
 ---------------------------------------------------------------------
 Center     Atomic     Atomic              Coordinates (Angstroms)
 Number     Number      Type              X           Y           Z
 ---------------------------------------------------------------------
    1          1             0        1.974407    0.585689    0.000000
    2          6             0        1.028833    0.295936    0.000000
    3          1             0        1.140941   -1.775099    0.000000
    4          6             0        0.595873   -0.950271    0.000000
    5          1             0       -1.344123   -1.627388    0.000000
    6          6             0       -0.712074   -0.864589    0.000000
    7          7             0       -1.039336    0.372682    0.000000
    8          1             0        0.028336    1.984773    0.000000
    9          7             0        0.000000    1.048113    0.000000
 ---------------------------------------------------------------------
 Rotational constants (GHZ):     11.1878032     10.4520048      5.4036973
 Isotopes: H-1,C-12,H-1,C-12,H-1,C-12,N-14,H-1,N-14
 Standard basis: 6-31+G(d,p) (6D, 7F)
 There are    86 symmetry adapted basis functions of A'  symmetry.
 There are    29 symmetry adapted basis functions of A"  symmetry.
 Crude estimate of integral set expansion from redundant integrals=1.000.
 Integral buffers will be    262144 words long.
 Raffenetti 1 integral format.
 Two-electron integral symmetry is turned on.
   115 basis functions      188 primitive gaussians
    18 alpha electrons       18 beta electrons
       nuclear repulsion energy       173.7391879471 Hartrees.
 One-electron integrals computed using PRISM.
 NBasis=   115 RedAO= T  NBF=    86    29
 NBsUse=   115 1.00D-04 NBFU=    86    29
 Projected INDO Guess.
 Initial guess orbital symmetries:
       Occupied  (A') (A') (A') (A') (A') (A') (A') (A') (A') (A')
                 (A') (A") (A') (A') (A') (A") (A') (A")
       Virtual   (A") (A') (A') (A") (A') (A') (A') (A') (A') (A')
                 (A') (A') (A') (A') (A') (A') (A') (A') (A') (A')
                 (A') (A') (A') (A') (A') (A') (A') (A') (A') (A')
                 (A') (A') (A') (A') (A') (A') (A') (A') (A') (A')
                 (A') (A') (A') (A') (A') (A') (A') (A') (A') (A')
                 (A') (A') (A') (A') (A') (A') (A') (A') (A') (A')
                 (A') (A') (A') (A') (A') (A') (A') (A') (A') (A')
                 (A') (A') (A') (A") (A") (A") (A") (A") (A") (A")
                 (A") (A") (A") (A") (A") (A") (A") (A") (A") (A")
                 (A") (A") (A") (A") (A") (A") (A")
 Requested convergence on RMS density matrix=1.00D-08 within  64 cycles.
 Requested convergence on MAX density matrix=1.00D-06.
 Keep R1 integrals in memory in canonical form, NReq=    23069849.
 SCF Done:  E(RHF) =  -224.757188899     A.U. after   14 cycles
             Convg  =    0.5520D-08             -V/T =  1.9942
             S**2   =   0.0000
 Range of M.O.s used for correlation:     1   115
 NBasis=   115 NAE=    18 NBE=    18 NFC=     0 NFV=     0
 NROrb=    115 NOA=    18 NOB=    18 NVA=    97 NVB=    97

 **** Warning!!: The largest alpha MO coefficient is  0.46047981D+02

 Fully direct method using O(ONN) memory.
 JobTyp=1 Pass  1:  I=   1 to  18.
 Spin components of T(2) and E(2):
     alpha-alpha T2 =       0.3257070096D-01 E2=     -0.1005672535D+00
     alpha-beta  T2 =       0.1670877495D+00 E2=     -0.5475316827D+00
     beta-beta   T2 =       0.3257070096D-01 E2=     -0.1005672535D+00
 ANorm=    0.1110058175D+01
 E2 =    -0.7486661897D+00 EUMP2 =    -0.22550585508854D+03
          Differentiating once with respect to electric field.
                with respect to dipole field.
          Differentiating once with respect to nuclear coordinates.
          Store integrals in memory, NReq=    22688349.
          There are   1 degrees of freedom in the 1st order CPHF.
   1 vectors were produced by pass  0.
 AX will form   1 AO Fock derivatives at one time.
   1 vectors were produced by pass  1.
   1 vectors were produced by pass  2.
   1 vectors were produced by pass  3.
   1 vectors were produced by pass  4.
   1 vectors were produced by pass  5.
   1 vectors were produced by pass  6.
   1 vectors were produced by pass  7.
   1 vectors were produced by pass  8.
   1 vectors were produced by pass  9.
   1 vectors were produced by pass 10.
   1 vectors were produced by pass 11.
   1 vectors were produced by pass 12.
   1 vectors were produced by pass 13.
 Inv2:  IOpt= 1 Iter= 1 AM= 3.06D-16 Conv= 1.00D-12.
 Inverted reduced A of dimension  14 with in-core refinement.

 **********************************************************************

            Population analysis using the SCF density.

 **********************************************************************

 Orbital Symmetries:
       Occupied  (A') (A') (A') (A') (A') (A') (A') (A') (A') (A')
                 (A') (A') (A") (A') (A') (A') (A") (A")
       Virtual   (A') (A') (A') (A") (A') (A') (A") (A") (A') (A')
                 (A') (A") (A') (A') (A") (A') (A") (A') (A") (A')
                 (A') (A') (A') (A') (A') (A') (A') (A') (A') (A')
                 (A') (A") (A") (A') (A') (A") (A') (A') (A') (A')
                 (A") (A') (A') (A') (A") (A') (A') (A') (A') (A')
                 (A") (A') (A') (A") (A") (A') (A") (A') (A") (A')
                 (A') (A') (A') (A') (A") (A') (A") (A') (A") (A")
                 (A') (A') (A") (A') (A") (A') (A') (A') (A') (A")
                 (A') (A") (A") (A') (A') (A') (A') (A') (A') (A')
                 (A') (A') (A') (A') (A') (A') (A')
  The electronic state is 1-A'.
 Alpha  occ. eigenvalues --  -15.64684 -15.57153 -11.24171 -11.21837 -11.18610
 Alpha  occ. eigenvalues --   -1.46240  -1.13587  -1.08970  -0.87245  -0.84007
 Alpha  occ. eigenvalues --   -0.77903  -0.65912  -0.65584  -0.61533  -0.57308
 Alpha  occ. eigenvalues --   -0.44439  -0.37921  -0.34797
 Alpha virt. eigenvalues --    0.06130   0.08272   0.09278   0.11466   0.11522
 Alpha virt. eigenvalues --    0.12324   0.13365   0.15388   0.16287   0.17979
 Alpha virt. eigenvalues --    0.19768   0.20850   0.21686   0.23947   0.24575
 Alpha virt. eigenvalues --    0.26217   0.29312   0.30109   0.31931   0.32385
 Alpha virt. eigenvalues --    0.34813   0.39062   0.40833   0.45506   0.46611
 Alpha virt. eigenvalues --    0.46875   0.47863   0.53171   0.63314   0.72866
 Alpha virt. eigenvalues --    0.76183   0.89474   0.92971   0.94766   0.96882
 Alpha virt. eigenvalues --    0.98585   1.02295   1.06368   1.12308   1.14053
 Alpha virt. eigenvalues --    1.16260   1.16615   1.19451   1.22120   1.24370
 Alpha virt. eigenvalues --    1.25019   1.26809   1.30807   1.36375   1.44704
 Alpha virt. eigenvalues --    1.49075   1.53879   1.55822   1.62089   1.64731
 Alpha virt. eigenvalues --    1.64989   1.74802   1.80589   1.82763   1.85630
 Alpha virt. eigenvalues --    2.11687   2.28998   2.29386   2.37284   2.37819
 Alpha virt. eigenvalues --    2.41529   2.50881   2.58214   2.59751   2.62411
 Alpha virt. eigenvalues --    2.68078   2.73785   2.78485   2.86119   2.86128
 Alpha virt. eigenvalues --    2.87477   2.91898   2.97789   3.03228   3.07595
 Alpha virt. eigenvalues --    3.11179   3.19204   3.29735   3.36018   3.49273
 Alpha virt. eigenvalues --    3.50700   3.67846   3.87688   3.88065   4.01082
 Alpha virt. eigenvalues --    4.26651   4.45503   4.53980   4.77537   4.82843
 Alpha virt. eigenvalues --    5.02370   5.43145
          Condensed to atoms (all electrons):
              1          2          3          4          5          6
  1  H    0.479118   0.373616   0.000169   0.010066  -0.000168   0.012793
  2  C    0.373616   4.954814   0.019642   0.600923   0.016126  -0.099822
  3  H    0.000169   0.019642   0.489905   0.285317   0.000349   0.039286
  4  C    0.010066   0.600923   0.285317   5.299616  -0.037413   0.276383
  5  H   -0.000168   0.016126   0.000349  -0.037413   0.507306   0.412701
  6  C    0.012793  -0.099822   0.039286   0.276383   0.412701   4.986226
  7  N   -0.000884  -0.181405   0.001581   0.012519  -0.052713   0.491898
  8  H    0.000399  -0.013540  -0.000054  -0.009960   0.000098   0.005723
  9  N   -0.041079   0.429076   0.007510  -0.283816   0.005621  -0.065126
              7          8          9
  1  H   -0.000884   0.000399  -0.041079
  2  C   -0.181405  -0.013540   0.429076
  3  H    0.001581  -0.000054   0.007510
  4  C    0.012519  -0.009960  -0.283816
  5  H   -0.052713   0.000098   0.005621
  6  C    0.491898   0.005723  -0.065126
  7  N    6.667950  -0.022915   0.376801
  8  H   -0.022915   0.357166   0.350360
  9  N    0.376801   0.350360   6.417774
 Total atomic charges:
              1
  1  H    0.165970
  2  C   -0.099430
  3  H    0.156295
  4  C   -0.153635
  5  H    0.148092
  6  C   -0.060061
  7  N   -0.292833
  8  H    0.332723
  9  N   -0.197121
 Sum of Mulliken charges=   0.00000
 Atomic charges with hydrogens summed into heavy atoms:
              1
  1  H    0.000000
  2  C    0.066540
  3  H    0.000000
  4  C    0.002660
  5  H    0.000000
  6  C    0.088031
  7  N   -0.292833
  8  H    0.000000
  9  N    0.135602
 Sum of Mulliken charges=   0.00000
 Electronic spatial extent (au):  <R**2>=   259.9584
 Charge=     0.0000 electrons
 Dipole moment (Debye):
    X=     2.3285    Y=     0.8886    Z=     0.0000  Tot=     2.4923
 Quadrupole moment (Debye-Ang):
   XX=   -30.4468   YY=   -22.1079   ZZ=   -31.6494
   XY=     2.8754   XZ=     0.0000   YZ=     0.0000
 Octapole moment (Debye-Ang**2):
  XXX=     9.9451  YYY=    11.1961  ZZZ=     0.0000  XYY=     0.5386
  XXY=    -2.6080  XXZ=     0.0000  XZZ=    -0.7038  YZZ=     2.1574
  YYZ=     0.0000  XYZ=     0.0000
 Hexadecapole moment (Debye-Ang**3):
 XXXX=  -156.9593 YYYY=  -121.8937 ZZZZ=   -35.7015 XXXY=     8.5388
 XXXZ=     0.0000 YYYX=     0.9599 YYYZ=     0.0000 ZZZX=     0.0000
 ZZZY=     0.0000 XXYY=   -48.4246 XXZZ=   -35.4638 YYZZ=   -34.6816
 XXYZ=     0.0000 YYXZ=     0.0000 ZZXY=     0.1542
 N-N= 1.737391879471D+02 E-N=-8.736119108586D+02  KE= 2.260572158238D+02
 Symmetry A'   KE= 2.181787855292D+02
 Symmetry A"   KE= 7.878430294613D+00
 ***** Axes restored to original set *****
 -------------------------------------------------------------------
 Center     Atomic                   Forces (Hartrees/Bohr)
 Number     Number              X              Y              Z
 -------------------------------------------------------------------
    1          1          -0.075849394    0.000000000   -0.037757405
    2          6          -0.022439471    0.000000000   -0.059131143
    3          1           0.021191168    0.000000000   -0.081022313
    4          6          -0.008634058    0.000000000   -0.044171662
    5          1           0.081189725    0.000000000    0.011897283
    6          6           0.014901064    0.000000000    0.009986216
    7          7           0.089593968    0.000000000    0.149125008
    8          1          -0.057292379    0.000000000    0.059542004
    9          7          -0.042660623    0.000000000   -0.008467988
 -------------------------------------------------------------------
 Cartesian Forces:  Max     0.149125008 RMS     0.049537816

 GradGradGradGradGradGradGradGradGradGradGradGradGradGradGradGradGradGrad
 Berny optimization.
 Internal  Forces:  Max     0.129596709 RMS     0.048808431
 Search for a local minimum.
 Step number   1 out of a maximum of  48
 All quantities printed in internal units (Hartrees-Bohrs-Radians)
 Second derivative matrix not updated -- first step.
     Eigenvalues ---    0.03204   0.03245   0.03263   0.03273   0.03342
     Eigenvalues ---    0.03375   0.16000   0.16000   0.16000   0.16000
     Eigenvalues ---    0.22000   0.22938   0.49374   0.49681   0.49740
     Eigenvalues ---    0.56490   0.56686   0.60708   0.68179   0.73042
     Eigenvalues ---    0.827791000.000001000.000001000.000001000.00000
     Eigenvalues --- 1000.000001000.000001000.000001000.000001000.00000
     Eigenvalues --- 1000.000001000.000001000.000001000.000001000.00000
     Eigenvalues --- 1000.000001000.000001000.00000
 RFO step:  Lambda=-1.21396227D-01.
 Linear search not attempted -- first point.
 Maximum step size (   0.300) exceeded in Quadratic search.
    -- Step size scaled by   0.719
 Iteration  1 RMS(Cart)=  0.06298504 RMS(Int)=  0.00074490
 Iteration  2 RMS(Cart)=  0.00093110 RMS(Int)=  0.00001615
 Iteration  3 RMS(Cart)=  0.00000061 RMS(Int)=  0.00001614
 Variable       Old X    -DE/DX   Delta X   Delta X   Delta X     New X
                                 (Linear)    (Quad)   (Total)
    R1        1.86889   0.08415   0.00000   0.09787   0.09787   1.96675
    R2        2.49307   0.08355   0.00000   0.07877   0.07874   2.57181
    R3        2.40839   0.11596   0.00000   0.09758   0.09756   2.50596
    R4        1.86829   0.08369   0.00000   0.09724   0.09724   1.96553
    R5        2.47696   0.12753   0.00000   0.11684   0.11684   2.59380
    R6        1.87202   0.08115   0.00000   0.09485   0.09485   1.96686
    R7        2.41851   0.08453   0.00000   0.07148   0.07151   2.49002
    R8        2.34237   0.12960   0.00000   0.09628   0.09629   2.43866
    R9        1.77084   0.08182   0.00000   0.08075   0.08075   1.85159
    A1        2.20252   0.01406   0.00000   0.03461   0.03463   2.23715
    A2        2.21295  -0.00434   0.00000  -0.01241  -0.01238   2.20057
    A3        1.86771  -0.00973   0.00000  -0.02220  -0.02225   1.84546
    A4        2.22327  -0.00389   0.00000  -0.00364  -0.00362   2.21964
    A5        1.83976   0.00216   0.00000  -0.00709  -0.00712   1.83264
    A6        2.22016   0.00173   0.00000   0.01073   0.01074   2.23090
    A7        2.19731   0.00207   0.00000   0.01290   0.01289   2.21020
    A8        1.89479   0.01862   0.00000   0.03232   0.03235   1.92714
    A9        2.19108  -0.02068   0.00000  -0.04523  -0.04524   2.14584
   A10        1.88850  -0.02792   0.00000  -0.04677  -0.04672   1.84178
   A11        1.93402   0.01687   0.00000   0.04374   0.04373   1.97775
   A12        2.17185   0.00176   0.00000   0.00418   0.00418   2.17603
   A13        2.17732  -0.01863   0.00000  -0.04792  -0.04791   2.12941
    D1        0.00000   0.00000   0.00000   0.00000   0.00000   0.00000
    D2        3.14159   0.00000   0.00000   0.00000   0.00000   3.14159
    D3        3.14159   0.00000   0.00000   0.00000   0.00000   3.14159
    D4        0.00000   0.00000   0.00000   0.00000   0.00000   0.00000
    D5        3.14159   0.00000   0.00000   0.00000   0.00000   3.14159
    D6        0.00000   0.00000   0.00000   0.00000   0.00000   0.00000
    D7        0.00000   0.00000   0.00000   0.00000   0.00000   0.00000
    D8        3.14159   0.00000   0.00000   0.00000   0.00000   3.14159
    D9        3.14159   0.00000   0.00000   0.00000   0.00000   3.14159
   D10        0.00000   0.00000   0.00000   0.00000   0.00000   0.00000
   D11        0.00000   0.00000   0.00000   0.00000   0.00000   0.00000
   D12        3.14159   0.00000   0.00000   0.00000   0.00000   3.14159
   D13        0.00000   0.00000   0.00000   0.00000   0.00000   0.00000
   D14        3.14159   0.00000   0.00000   0.00000   0.00000   3.14159
   D15        0.00000   0.00000   0.00000   0.00000   0.00000   0.00000
   D16        3.14159   0.00000   0.00000   0.00000   0.00000   3.14159
         Item               Value     Threshold  Converged?
 Maximum Force            0.129597     0.000450     NO 
 RMS     Force            0.048808     0.000300     NO 
 Maximum Displacement     0.177966     0.001800     NO 
 RMS     Displacement     0.062938     0.001200     NO 
 Predicted change in Energy=-2.591060D-02
 GradGradGradGradGradGradGradGradGradGradGradGradGradGradGradGradGradGrad

                          Input orientation:                          
 ---------------------------------------------------------------------
 Center     Atomic     Atomic              Coordinates (Angstroms)
 Number     Number      Type              X           Y           Z
 ---------------------------------------------------------------------
    1          1             0       -1.808499    0.000000   -1.177806
    2          6             0       -0.920817    0.000000   -0.634478
    3          1             0        0.656241    0.000000   -2.103358
    4          6             0        0.355176    0.000000   -1.107770
    5          1             0        2.189937    0.000000    0.034987
    6          6             0        1.149377    0.000000    0.011703
    7          7             0        0.408183    0.000000    1.101134
    8          1             0       -1.572477    0.000000    1.307798
    9          7             0       -0.814152    0.000000    0.687321
 ---------------------------------------------------------------------
                    Distance matrix (angstroms):
                    1          2          3          4          5
     1  H    0.000000
     2  C    1.040761   0.000000
     3  H    2.632791   2.155162   0.000000
     4  C    2.164808   1.360942   1.040113   0.000000
     5  H    4.178319   3.181976   2.631490   2.161537   0.000000
     6  C    3.188097   2.168699   2.171789   1.372580   1.040820
     7  N    3.179189   2.185999   3.214079   2.209540   2.076371
     8  H    2.496784   2.048681   4.074698   3.090439   3.971876
     9  N    2.113627   1.326095   3.154353   2.142354   3.074100
                    6          7          8          9
     6  C    0.000000
     7  N    1.317660   0.000000
     8  H    3.014689   1.991412   0.000000
     9  N    2.076513   1.290482   0.979820   0.000000
 Stoichiometry    C3H4N2
 Framework group  CS[SG(C3H4N2)]
 Deg. of freedom   15
 Full point group                 CS      NOp   2
 Largest Abelian subgroup         CS      NOp   2
 Largest concise Abelian subgroup C1      NOp   1
                         Standard orientation:                         
 ---------------------------------------------------------------------
 Center     Atomic     Atomic              Coordinates (Angstroms)
 Number     Number      Type              X           Y           Z
 ---------------------------------------------------------------------
    1          1             0        2.069252    0.633799    0.000000
    2          6             0        1.083465    0.300021    0.000000
    3          1             0        1.201566   -1.851902    0.000000
    4          6             0        0.629761   -0.983068    0.000000
    5          1             0       -1.422940   -1.660313    0.000000
    6          6             0       -0.738642   -0.876066    0.000000
    7          7             0       -1.100644    0.390893    0.000000
    8          1             0        0.009129    2.044411    0.000000
    9          7             0        0.000000    1.064633    0.000000
 ---------------------------------------------------------------------
 Rotational constants (GHZ):     10.1063769      9.9382981      5.0108164
 Isotopes: H-1,C-12,H-1,C-12,H-1,C-12,N-14,H-1,N-14
 Standard basis: 6-31+G(d,p) (6D, 7F)
 There are    86 symmetry adapted basis functions of A'  symmetry.
 There are    29 symmetry adapted basis functions of A"  symmetry.
 Crude estimate of integral set expansion from redundant integrals=1.000.
 Integral buffers will be    262144 words long.
 Raffenetti 1 integral format.
 Two-electron integral symmetry is turned on.
   115 basis functions      188 primitive gaussians
    18 alpha electrons       18 beta electrons
       nuclear repulsion energy       167.2121513920 Hartrees.
 One-electron integrals computed using PRISM.
 NBasis=   115 RedAO= T  NBF=    86    29
 NBsUse=   115 1.00D-04 NBFU=    86    29
 Initial guess read from the read-write file:
 Initial guess orbital symmetries:
       Occupied  (A') (A') (A') (A') (A') (A') (A') (A') (A') (A')
                 (A') (A') (A") (A') (A') (A') (A") (A")
       Virtual   (A') (A') (A') (A") (A') (A') (A") (A") (A') (A')
                 (A') (A") (A') (A') (A") (A') (A") (A') (A") (A')
                 (A') (A') (A') (A') (A') (A') (A') (A') (A') (A')
                 (A') (A") (A") (A') (A') (A") (A') (A') (A') (A')
                 (A") (A') (A') (A') (A") (A') (A') (A') (A') (A')
                 (A") (A') (A') (A") (A") (A') (A") (A') (A") (A')
                 (A') (A') (A') (A') (A") (A') (A") (A') (A") (A")
                 (A') (A') (A") (A') (A") (A') (A') (A') (A') (A")
                 (A') (A") (A") (A') (A') (A') (A') (A') (A') (A')
                 (A') (A') (A') (A') (A') (A') (A')
 Requested convergence on RMS density matrix=1.00D-08 within  64 cycles.
 Requested convergence on MAX density matrix=1.00D-06.
 Keep R1 integrals in memory in canonical form, NReq=    23069849.
 SCF Done:  E(RHF) =  -224.804893791     A.U. after   13 cycles
             Convg  =    0.8074D-08             -V/T =  1.9997
             S**2   =   0.0000
 Range of M.O.s used for correlation:     1   115
 NBasis=   115 NAE=    18 NBE=    18 NFC=     0 NFV=     0
 NROrb=    115 NOA=    18 NOB=    18 NVA=    97 NVB=    97

 **** Warning!!: The largest alpha MO coefficient is  0.42030537D+02

 Fully direct method using O(ONN) memory.
 JobTyp=1 Pass  1:  I=   1 to  18.
 Spin components of T(2) and E(2):
     alpha-alpha T2 =       0.3430319259D-01 E2=     -0.1011338808D+00
     alpha-beta  T2 =       0.1784996027D+00 E2=     -0.5565072080D+00
     beta-beta   T2 =       0.3430319259D-01 E2=     -0.1011338808D+00
 ANorm=    0.1116738997D+01
 E2 =    -0.7587749697D+00 EUMP2 =    -0.22556366876028D+03
          Differentiating once with respect to electric field.
                with respect to dipole field.
          Differentiating once with respect to nuclear coordinates.
          Store integrals in memory, NReq=    22688349.
          There are   1 degrees of freedom in the 1st order CPHF.
   1 vectors were produced by pass  0.
 AX will form   1 AO Fock derivatives at one time.
   1 vectors were produced by pass  1.
   1 vectors were produced by pass  2.
   1 vectors were produced by pass  3.
   1 vectors were produced by pass  4.
   1 vectors were produced by pass  5.
   1 vectors were produced by pass  6.
   1 vectors were produced by pass  7.
   1 vectors were produced by pass  8.
   1 vectors were produced by pass  9.
   1 vectors were produced by pass 10.
   1 vectors were produced by pass 11.
   1 vectors were produced by pass 12.
   1 vectors were produced by pass 13.
   1 vectors were produced by pass 14.
 Inv2:  IOpt= 1 Iter= 1 AM= 2.67D-16 Conv= 1.00D-12.
 Inverted reduced A of dimension  15 with in-core refinement.
 ***** Axes restored to original set *****
 -------------------------------------------------------------------
 Center     Atomic                   Forces (Hartrees/Bohr)
 Number     Number              X              Y              Z
 -------------------------------------------------------------------
    1          1          -0.028794534    0.000000000   -0.008619031
    2          6          -0.000241330    0.000000000   -0.024438535
    3          1           0.007690440    0.000000000   -0.028368440
    4          6          -0.000062982    0.000000000   -0.010067785
    5          1           0.028782748    0.000000000    0.007466349
    6          6           0.003591922    0.000000000   -0.008210994
    7          7           0.039255016    0.000000000    0.057702112
    8          1          -0.017246190    0.000000000    0.023094968
    9          7          -0.032975091    0.000000000   -0.008558645
 -------------------------------------------------------------------
 Cartesian Forces:  Max     0.057702112 RMS     0.019524353

 GradGradGradGradGradGradGradGradGradGradGradGradGradGradGradGradGradGrad
 Berny optimization.
 Internal  Forces:  Max     0.054316936 RMS     0.017634324
 Search for a local minimum.
 Step number   2 out of a maximum of  48
 All quantities printed in internal units (Hartrees-Bohrs-Radians)
 Update second derivatives using information from points  1  2
 Trust test= 2.23D+00 RLast= 3.00D-01 DXMaxT set to 4.24D-01
     Eigenvalues ---    0.03204   0.03247   0.03260   0.03273   0.03342
     Eigenvalues ---    0.03374   0.15888   0.16000   0.16000   0.16022
     Eigenvalues ---    0.22022   0.23583   0.49452   0.49711   0.51192
     Eigenvalues ---    0.57150   0.58265   0.61643   0.68354   0.73892
     Eigenvalues ---    0.810541000.000001000.000001000.000001000.00000
     Eigenvalues --- 1000.000001000.000001000.000001000.000001000.00000
     Eigenvalues --- 1000.000001000.000001000.000001000.000001000.00000
     Eigenvalues --- 1000.000001000.000001000.00000
 RFO step:  Lambda=-2.61298796D-03.
 Quartic linear search produced a step of  0.72056.
 Iteration  1 RMS(Cart)=  0.05272148 RMS(Int)=  0.00132742
 Iteration  2 RMS(Cart)=  0.00154607 RMS(Int)=  0.00006446
 Iteration  3 RMS(Cart)=  0.00000244 RMS(Int)=  0.00006443
 Iteration  4 RMS(Cart)=  0.00000000 RMS(Int)=  0.00006443
 Variable       Old X    -DE/DX   Delta X   Delta X   Delta X     New X
                                 (Linear)    (Quad)   (Total)
    R1        1.96675   0.02906   0.07052   0.00085   0.07136   2.03812
    R2        2.57181   0.03042   0.05674   0.00035   0.05697   2.62878
    R3        2.50596   0.03884   0.07030  -0.00634   0.06391   2.56987
    R4        1.96553   0.02938   0.07007   0.00247   0.07254   2.03807
    R5        2.59380   0.03952   0.08419  -0.01778   0.06640   2.66020
    R6        1.96686   0.02894   0.06834   0.00411   0.07245   2.03931
    R7        2.49002   0.03293   0.05153   0.00601   0.05764   2.54765
    R8        2.43866   0.05432   0.06938   0.01464   0.08410   2.52276
    R9        1.85159   0.02797   0.05819  -0.00256   0.05563   1.90722
    A1        2.23715   0.00787   0.02495   0.04808   0.07311   2.31026
    A2        2.20057  -0.00724  -0.00892  -0.06134  -0.07018   2.13039
    A3        1.84546  -0.00063  -0.01603   0.01326  -0.00294   1.84253
    A4        2.21964  -0.00191  -0.00261   0.00029  -0.00225   2.21739
    A5        1.83264   0.00214  -0.00513  -0.00286  -0.00812   1.82452
    A6        2.23090  -0.00023   0.00774   0.00257   0.01038   2.24128
    A7        2.21020   0.00338   0.00929   0.03802   0.04728   2.25748
    A8        1.92714   0.00665   0.02331   0.00356   0.02693   1.95408
    A9        2.14584  -0.01003  -0.03260  -0.04159  -0.07421   2.07163
   A10        1.84178  -0.00964  -0.03366   0.00164  -0.03180   1.80998
   A11        1.97775   0.00148   0.03151  -0.01560   0.01592   1.99367
   A12        2.17603   0.00570   0.00301   0.04798   0.05098   2.22701
   A13        2.12941  -0.00718  -0.03453  -0.03237  -0.06690   2.06250
    D1        0.00000   0.00000   0.00000   0.00000   0.00000   0.00000
    D2        3.14159   0.00000   0.00000   0.00000   0.00000   3.14159
    D3        3.14159   0.00000   0.00000   0.00000   0.00000   3.14159
    D4        0.00000   0.00000   0.00000   0.00000   0.00000   0.00000
    D5        3.14159   0.00000   0.00000   0.00000   0.00000   3.14159
    D6        0.00000   0.00000   0.00000   0.00000   0.00000   0.00000
    D7        0.00000   0.00000   0.00000   0.00000   0.00000   0.00000
    D8        3.14159   0.00000   0.00000   0.00000   0.00000   3.14159
    D9        3.14159   0.00000   0.00000   0.00000   0.00000   3.14159
   D10        0.00000   0.00000   0.00000   0.00000   0.00000   0.00000
   D11        0.00000   0.00000   0.00000   0.00000   0.00000   0.00000
   D12        3.14159   0.00000   0.00000   0.00000   0.00000   3.14159
   D13        0.00000   0.00000   0.00000   0.00000   0.00000   0.00000
   D14        3.14159   0.00000   0.00000   0.00000   0.00000   3.14159
   D15        0.00000   0.00000   0.00000   0.00000   0.00000   0.00000
   D16        3.14159   0.00000   0.00000   0.00000   0.00000   3.14159
         Item               Value     Threshold  Converged?
 Maximum Force            0.054317     0.000450     NO 
 RMS     Force            0.017634     0.000300     NO 
 Maximum Displacement     0.161447     0.001800     NO 
 RMS     Displacement     0.052666     0.001200     NO 
 Predicted change in Energy=-1.587511D-02
 GradGradGradGradGradGradGradGradGradGradGradGradGradGradGradGradGradGrad

                          Input orientation:                          
 ---------------------------------------------------------------------
 Center     Atomic     Atomic              Coordinates (Angstroms)
 Number     Number      Type              X           Y           Z
 ---------------------------------------------------------------------
    1          1             0       -1.897428    0.000000   -1.176728
    2          6             0       -0.941558    0.000000   -0.677200
    3          1             0        0.680746    0.000000   -2.185242
    4          6             0        0.365304    0.000000   -1.153905
    5          1             0        2.239642    0.000000    0.094826
    6          6             0        1.164216    0.000000    0.005151
    7          7             0        0.420862    0.000000    1.129856
    8          1             0       -1.584737    0.000000    1.354813
    9          7             0       -0.835536    0.000000    0.678576
 ---------------------------------------------------------------------
                    Distance matrix (angstroms):
                    1          2          3          4          5
     1  H    0.000000
     2  C    1.078525   0.000000
     3  H    2.768408   2.214963   0.000000
     4  C    2.262848   1.391092   1.078499   0.000000
     5  H    4.328071   3.273540   2.762041   2.252215   0.000000
     6  C    3.281845   2.213570   2.243115   1.407719   1.079158
     7  N    3.270290   2.263104   3.325268   2.284436   2.092665
     8  H    2.550779   2.131374   4.202904   3.177472   4.026592
     9  N    2.137701   1.359915   3.240457   2.190891   3.130093
                    6          7          8          9
     6  C    0.000000
     7  N    1.348160   0.000000
     8  H    3.062406   2.018176   0.000000
     9  N    2.110097   1.334987   1.009257   0.000000
 Stoichiometry    C3H4N2
 Framework group  CS[SG(C3H4N2)]
 Deg. of freedom   15
 Full point group                 CS      NOp   2
 Largest Abelian subgroup         CS      NOp   2
 Largest concise Abelian subgroup C1      NOp   1
                         Standard orientation:                         
 ---------------------------------------------------------------------
 Center     Atomic     Atomic              Coordinates (Angstroms)
 Number     Number      Type              X           Y           Z
 ---------------------------------------------------------------------
    1          1             0        2.108527    0.729438    0.000000
    2          6             0        1.116826    0.305475    0.000000
    3          1             0        1.257751   -1.905000    0.000000
    4          6             0        0.658856   -1.008070    0.000000
    5          1             0       -1.494191   -1.669026    0.000000
    6          6             0       -0.744161   -0.893115    0.000000
    7          7             0       -1.144538    0.394221    0.000000
    8          1             0       -0.049444    2.089451    0.000000
    9          7             0        0.000000    1.081406    0.000000
 ---------------------------------------------------------------------
 Rotational constants (GHZ):      9.6418578      9.3831092      4.7553620
 Isotopes: H-1,C-12,H-1,C-12,H-1,C-12,N-14,H-1,N-14
 Standard basis: 6-31+G(d,p) (6D, 7F)
 There are    86 symmetry adapted basis functions of A'  symmetry.
 There are    29 symmetry adapted basis functions of A"  symmetry.
 Crude estimate of integral set expansion from redundant integrals=1.000.
 Integral buffers will be    262144 words long.
 Raffenetti 1 integral format.
 Two-electron integral symmetry is turned on.
   115 basis functions      188 primitive gaussians
    18 alpha electrons       18 beta electrons
       nuclear repulsion energy       162.8195266008 Hartrees.
 One-electron integrals computed using PRISM.
 NBasis=   115 RedAO= T  NBF=    86    29
 NBsUse=   115 1.00D-04 NBFU=    86    29
 Initial guess read from the read-write file:
 Initial guess orbital symmetries:
       Occupied  (A') (A') (A') (A') (A') (A') (A') (A') (A') (A')
                 (A') (A') (A") (A') (A') (A') (A") (A")
       Virtual   (A') (A') (A') (A') (A") (A') (A") (A") (A') (A')
                 (A') (A") (A') (A") (A') (A') (A") (A') (A") (A')
                 (A') (A') (A') (A') (A') (A') (A') (A') (A') (A')
                 (A') (A") (A') (A") (A') (A") (A') (A') (A') (A')
                 (A') (A") (A') (A') (A') (A") (A') (A') (A') (A')
                 (A') (A") (A') (A") (A') (A") (A") (A') (A") (A')
                 (A') (A') (A') (A') (A") (A') (A") (A') (A") (A')
                 (A") (A') (A") (A") (A') (A') (A') (A') (A') (A")
                 (A') (A") (A") (A') (A') (A') (A') (A') (A') (A')
                 (A') (A') (A') (A') (A') (A') (A')
 Requested convergence on RMS density matrix=1.00D-08 within  64 cycles.
 Requested convergence on MAX density matrix=1.00D-06.
 Keep R1 integrals in memory in canonical form, NReq=    23069849.
 SCF Done:  E(RHF) =  -224.807798874     A.U. after   13 cycles
             Convg  =    0.8038D-08             -V/T =  2.0030
             S**2   =   0.0000
 Range of M.O.s used for correlation:     1   115
 NBasis=   115 NAE=    18 NBE=    18 NFC=     0 NFV=     0
 NROrb=    115 NOA=    18 NOB=    18 NVA=    97 NVB=    97

 **** Warning!!: The largest alpha MO coefficient is  0.40886768D+02

 Fully direct method using O(ONN) memory.
 JobTyp=1 Pass  1:  I=   1 to  18.
 Spin components of T(2) and E(2):
     alpha-alpha T2 =       0.3572221017D-01 E2=     -0.1017920531D+00
     alpha-beta  T2 =       0.1877088085D+00 E2=     -0.5639575639D+00
     beta-beta   T2 =       0.3572221017D-01 E2=     -0.1017920531D+00
 ANorm=    0.1122119971D+01
 E2 =    -0.7675416700D+00 EUMP2 =    -0.22557534054407D+03
          Differentiating once with respect to electric field.
                with respect to dipole field.
          Differentiating once with respect to nuclear coordinates.
          Store integrals in memory, NReq=    22688349.
          There are   1 degrees of freedom in the 1st order CPHF.
   1 vectors were produced by pass  0.
 AX will form   1 AO Fock derivatives at one time.
   1 vectors were produced by pass  1.
   1 vectors were produced by pass  2.
   1 vectors were produced by pass  3.
   1 vectors were produced by pass  4.
   1 vectors were produced by pass  5.
   1 vectors were produced by pass  6.
   1 vectors were produced by pass  7.
   1 vectors were produced by pass  8.
   1 vectors were produced by pass  9.
   1 vectors were produced by pass 10.
   1 vectors were produced by pass 11.
   1 vectors were produced by pass 12.
   1 vectors were produced by pass 13.
   1 vectors were produced by pass 14.
 Inv2:  IOpt= 1 Iter= 1 AM= 4.79D-16 Conv= 1.00D-12.
 Inverted reduced A of dimension  15 with in-core refinement.
 ***** Axes restored to original set *****
 -------------------------------------------------------------------
 Center     Atomic                   Forces (Hartrees/Bohr)
 Number     Number              X              Y              Z
 -------------------------------------------------------------------
    1          1           0.001608368    0.000000000    0.001073929
    2          6           0.002375781    0.000000000   -0.003197690
    3          1          -0.000557956    0.000000000    0.002224111
    4          6          -0.002608205    0.000000000    0.002022780
    5          1          -0.001846141    0.000000000   -0.001058623
    6          6           0.003912700    0.000000000   -0.001066389
    7          7           0.009081117    0.000000000    0.001665559
    8          1           0.000535687    0.000000000   -0.001829681
    9          7          -0.012501351    0.000000000    0.000166004
 -------------------------------------------------------------------
 Cartesian Forces:  Max     0.012501351 RMS     0.003344006

 GradGradGradGradGradGradGradGradGradGradGradGradGradGradGradGradGradGrad
 Berny optimization.
 Internal  Forces:  Max     0.009988057 RMS     0.002040658
 Search for a local minimum.
 Step number   3 out of a maximum of  48
 All quantities printed in internal units (Hartrees-Bohrs-Radians)
 Update second derivatives using information from points  1  2  3
 Trust test= 7.35D-01 RLast= 2.61D-01 DXMaxT set to 4.24D-01
     Eigenvalues ---    0.03203   0.03247   0.03250   0.03273   0.03342
     Eigenvalues ---    0.03372   0.15294   0.16000   0.16004   0.16022
     Eigenvalues ---    0.22062   0.23414   0.47629   0.49525   0.49714
     Eigenvalues ---    0.57411   0.58803   0.59993   0.65904   0.68993
     Eigenvalues ---    0.807281000.000001000.000001000.000001000.00000
     Eigenvalues --- 1000.000001000.000001000.000001000.000001000.00000
     Eigenvalues --- 1000.000001000.000001000.000001000.000001000.00000
     Eigenvalues --- 1000.000001000.000001000.00000
 RFO step:  Lambda=-2.69708321D-04.
 Quartic linear search produced a step of -0.01033.
 Iteration  1 RMS(Cart)=  0.00540608 RMS(Int)=  0.00001490
 Iteration  2 RMS(Cart)=  0.00001605 RMS(Int)=  0.00000281
 Iteration  3 RMS(Cart)=  0.00000000 RMS(Int)=  0.00000281
 Variable       Old X    -DE/DX   Delta X   Delta X   Delta X     New X
                                 (Linear)    (Quad)   (Total)
    R1        2.03812  -0.00192  -0.00074  -0.00228  -0.00302   2.03510
    R2        2.62878  -0.00269  -0.00059  -0.00427  -0.00485   2.62393
    R3        2.56987  -0.00022  -0.00066   0.00167   0.00101   2.57088
    R4        2.03807  -0.00229  -0.00075  -0.00301  -0.00376   2.03431
    R5        2.66020  -0.00106  -0.00069  -0.00113  -0.00182   2.65839
    R6        2.03931  -0.00193  -0.00075  -0.00234  -0.00309   2.03622
    R7        2.54765   0.00059  -0.00060   0.00231   0.00171   2.54936
    R8        2.52276   0.00999  -0.00087   0.01403   0.01316   2.53592
    R9        1.90722  -0.00162  -0.00057  -0.00140  -0.00198   1.90524
    A1        2.31026  -0.00026  -0.00076   0.00115   0.00039   2.31065
    A2        2.13039  -0.00068   0.00072  -0.00286  -0.00214   2.12826
    A3        1.84253   0.00094   0.00003   0.00171   0.00175   1.84428
    A4        2.21739  -0.00151   0.00002  -0.00315  -0.00313   2.21426
    A5        1.82452   0.00326   0.00008   0.00752   0.00760   1.83212
    A6        2.24128  -0.00175  -0.00011  -0.00437  -0.00448   2.23680
    A7        2.25748  -0.00044  -0.00049  -0.00197  -0.00246   2.25502
    A8        1.95408  -0.00095  -0.00028  -0.00598  -0.00626   1.94781
    A9        2.07163   0.00140   0.00077   0.00796   0.00872   2.08035
   A10        1.80998  -0.00041   0.00033   0.00415   0.00447   1.81445
   A11        1.99367  -0.00283  -0.00016  -0.00739  -0.00755   1.98612
   A12        2.22701   0.00046  -0.00053  -0.00152  -0.00205   2.22496
   A13        2.06250   0.00237   0.00069   0.00891   0.00960   2.07211
    D1        0.00000   0.00000   0.00000   0.00000   0.00000   0.00000
    D2        3.14159   0.00000   0.00000   0.00000   0.00000   3.14159
    D3        3.14159   0.00000   0.00000   0.00000   0.00000   3.14159
    D4        0.00000   0.00000   0.00000   0.00000   0.00000   0.00000
    D5        3.14159   0.00000   0.00000   0.00000   0.00000   3.14159
    D6        0.00000   0.00000   0.00000   0.00000   0.00000   0.00000
    D7        0.00000   0.00000   0.00000   0.00000   0.00000   0.00000
    D8        3.14159   0.00000   0.00000   0.00000   0.00000   3.14159
    D9        3.14159   0.00000   0.00000   0.00000   0.00000   3.14159
   D10        0.00000   0.00000   0.00000   0.00000   0.00000   0.00000
   D11        0.00000   0.00000   0.00000   0.00000   0.00000   0.00000
   D12        3.14159   0.00000   0.00000   0.00000   0.00000   3.14159
   D13        0.00000   0.00000   0.00000   0.00000   0.00000   0.00000
   D14        3.14159   0.00000   0.00000   0.00000   0.00000   3.14159
   D15        0.00000   0.00000   0.00000   0.00000   0.00000   0.00000
   D16        3.14159   0.00000   0.00000   0.00000   0.00000   3.14159
         Item               Value     Threshold  Converged?
 Maximum Force            0.009988     0.000450     NO 
 RMS     Force            0.002041     0.000300     NO 
 Maximum Displacement     0.016459     0.001800     NO 
 RMS     Displacement     0.005404     0.001200     NO 
 Predicted change in Energy=-1.360622D-04
 GradGradGradGradGradGradGradGradGradGradGradGradGradGradGradGradGradGrad

                          Input orientation:                          
 ---------------------------------------------------------------------
 Center     Atomic     Atomic              Coordinates (Angstroms)
 Number     Number      Type              X           Y           Z
 ---------------------------------------------------------------------
    1          1             0       -1.896118    0.000000   -1.171354
    2          6             0       -0.942654    0.000000   -0.670678
    3          1             0        0.676997    0.000000   -2.173091
    4          6             0        0.362919    0.000000   -1.143415
    5          1             0        2.241795    0.000000    0.091923
    6          6             0        1.167341    0.000000    0.010651
    7          7             0        0.422332    0.000000    1.135345
    8          1             0       -1.594748    0.000000    1.356967
    9          7             0       -0.842172    0.000000    0.686057
 ---------------------------------------------------------------------
                    Distance matrix (angstroms):
                    1          2          3          4          5
     1  H    0.000000
     2  C    1.076926   0.000000
     3  H    2.761231   2.209188   0.000000
     4  C    2.259210   1.388525   1.076511   0.000000
     5  H    4.326453   3.274489   2.752977   2.248608   0.000000
     6  C    3.283583   2.217270   2.238117   1.406757   1.077524
     7  N    3.270485   2.263826   3.318223   2.279535   2.097421
     8  H    2.546218   2.129922   4.197872   3.175590   4.039728
     9  N    2.135598   1.360451   3.237684   2.190711   3.140676
                    6          7          8          9
     6  C    0.000000
     7  N    1.349064   0.000000
     8  H    3.072735   2.029219   0.000000
     9  N    2.119980   1.341950   1.008212   0.000000
 Stoichiometry    C3H4N2
 Framework group  CS[SG(C3H4N2)]
 Deg. of freedom   15
 Full point group                 CS      NOp   2
 Largest Abelian subgroup         CS      NOp   2
 Largest concise Abelian subgroup C1      NOp   1
                         Standard orientation:                         
 ---------------------------------------------------------------------
 Center     Atomic     Atomic              Coordinates (Angstroms)
 Number     Number      Type              X           Y           Z
 ---------------------------------------------------------------------
    1          1             0        2.106040    0.731890    0.000000
    2          6             0        1.116051    0.307989    0.000000
    3          1             0        1.259924   -1.896509    0.000000
    4          6             0        0.659170   -1.003217    0.000000
    5          1             0       -1.484655   -1.681635    0.000000
    6          6             0       -0.743741   -0.899264    0.000000
    7          7             0       -1.146349    0.388322    0.000000
    8          1             0       -0.045753    2.093145    0.000000
    9          7             0        0.000000    1.085972    0.000000
 ---------------------------------------------------------------------
 Rotational constants (GHZ):      9.5876173      9.4109959      4.7492428
 Isotopes: H-1,C-12,H-1,C-12,H-1,C-12,N-14,H-1,N-14
 Standard basis: 6-31+G(d,p) (6D, 7F)
 There are    86 symmetry adapted basis functions of A'  symmetry.
 There are    29 symmetry adapted basis functions of A"  symmetry.
 Crude estimate of integral set expansion from redundant integrals=1.000.
 Integral buffers will be    262144 words long.
 Raffenetti 1 integral format.
 Two-electron integral symmetry is turned on.
   115 basis functions      188 primitive gaussians
    18 alpha electrons       18 beta electrons
       nuclear repulsion energy       162.7060740068 Hartrees.
 One-electron integrals computed using PRISM.
 NBasis=   115 RedAO= T  NBF=    86    29
 NBsUse=   115 1.00D-04 NBFU=    86    29
 Initial guess read from the read-write file:
 Initial guess orbital symmetries:
       Occupied  (A') (A') (A') (A') (A') (A') (A') (A') (A') (A')
                 (A') (A') (A") (A') (A') (A') (A") (A")
       Virtual   (A') (A') (A') (A') (A") (A') (A") (A") (A') (A')
                 (A") (A') (A') (A") (A') (A') (A") (A') (A") (A')
                 (A') (A') (A') (A') (A') (A') (A') (A') (A') (A')
                 (A') (A') (A") (A") (A') (A") (A') (A') (A') (A')
                 (A') (A') (A") (A') (A') (A") (A') (A') (A') (A')
                 (A') (A') (A") (A') (A") (A") (A") (A") (A') (A')
                 (A') (A') (A') (A') (A') (A") (A") (A') (A') (A")
                 (A") (A') (A") (A') (A") (A') (A') (A') (A") (A')
                 (A") (A') (A") (A') (A') (A') (A') (A') (A') (A')
                 (A') (A') (A') (A') (A') (A') (A')
 Requested convergence on RMS density matrix=1.00D-08 within  64 cycles.
 Requested convergence on MAX density matrix=1.00D-06.
 Keep R1 integrals in memory in canonical form, NReq=    23069849.
 SCF Done:  E(RHF) =  -224.807815327     A.U. after   11 cycles
             Convg  =    0.8292D-08             -V/T =  2.0030
             S**2   =   0.0000
 Range of M.O.s used for correlation:     1   115
 NBasis=   115 NAE=    18 NBE=    18 NFC=     0 NFV=     0
 NROrb=    115 NOA=    18 NOB=    18 NVA=    97 NVB=    97

 **** Warning!!: The largest alpha MO coefficient is  0.40504390D+02

 Fully direct method using O(ONN) memory.
 JobTyp=1 Pass  1:  I=   1 to  18.
 Spin components of T(2) and E(2):
     alpha-alpha T2 =       0.3574024014D-01 E2=     -0.1017857516D+00
     alpha-beta  T2 =       0.1878531885D+00 E2=     -0.5641125457D+00
     beta-beta   T2 =       0.3574024014D-01 E2=     -0.1017857516D+00
 ANorm=    0.1122200369D+01
 E2 =    -0.7676840490D+00 EUMP2 =    -0.22557549937636D+03
          Differentiating once with respect to electric field.
                with respect to dipole field.
          Differentiating once with respect to nuclear coordinates.
          Store integrals in memory, NReq=    22688349.
          There are   1 degrees of freedom in the 1st order CPHF.
   1 vectors were produced by pass  0.
 AX will form   1 AO Fock derivatives at one time.
   1 vectors were produced by pass  1.
   1 vectors were produced by pass  2.
   1 vectors were produced by pass  3.
   1 vectors were produced by pass  4.
   1 vectors were produced by pass  5.
   1 vectors were produced by pass  6.
   1 vectors were produced by pass  7.
   1 vectors were produced by pass  8.
   1 vectors were produced by pass  9.
   1 vectors were produced by pass 10.
   1 vectors were produced by pass 11.
   1 vectors were produced by pass 12.
   1 vectors were produced by pass 13.
   1 vectors were produced by pass 14.
 Inv2:  IOpt= 1 Iter= 1 AM= 4.64D-16 Conv= 1.00D-12.
 Inverted reduced A of dimension  15 with in-core refinement.
 ***** Axes restored to original set *****
 -------------------------------------------------------------------
 Center     Atomic                   Forces (Hartrees/Bohr)
 Number     Number              X              Y              Z
 -------------------------------------------------------------------
    1          1           0.000641229    0.000000000    0.000278865
    2          6           0.001728721    0.000000000   -0.001185346
    3          1          -0.000195173    0.000000000    0.000616931
    4          6          -0.001236432    0.000000000    0.000019151
    5          1          -0.000900232    0.000000000   -0.000103649
    6          6          -0.001543238    0.000000000   -0.000188196
    7          7           0.004931156    0.000000000    0.002582036
    8          1           0.000825277    0.000000000   -0.000368462
    9          7          -0.004251308    0.000000000   -0.001651330
 -------------------------------------------------------------------
 Cartesian Forces:  Max     0.004931156 RMS     0.001523507

 GradGradGradGradGradGradGradGradGradGradGradGradGradGradGradGradGradGrad
 Berny optimization.
 Internal  Forces:  Max     0.003733430 RMS     0.000891862
 Search for a local minimum.
 Step number   4 out of a maximum of  48
 All quantities printed in internal units (Hartrees-Bohrs-Radians)
 Update second derivatives using information from points  1  2  3  4
 Trust test= 1.17D+00 RLast= 2.51D-02 DXMaxT set to 4.24D-01
     Eigenvalues ---    0.03203   0.03247   0.03250   0.03273   0.03342
     Eigenvalues ---    0.03373   0.15241   0.15843   0.16005   0.16198
     Eigenvalues ---    0.22246   0.31778   0.38367   0.47803   0.49573
     Eigenvalues ---    0.49749   0.57602   0.60204   0.63653   0.70060
     Eigenvalues ---    0.748441000.000001000.000001000.000001000.00000
     Eigenvalues --- 1000.000001000.000001000.000001000.000001000.00000
     Eigenvalues --- 1000.000001000.000001000.000001000.000001000.00000
     Eigenvalues --- 1000.000001000.000001000.00000
 RFO step:  Lambda=-7.42892681D-05.
 Quartic linear search produced a step of  0.21202.
 Iteration  1 RMS(Cart)=  0.00270928 RMS(Int)=  0.00000569
 Iteration  2 RMS(Cart)=  0.00000709 RMS(Int)=  0.00000186
 Iteration  3 RMS(Cart)=  0.00000000 RMS(Int)=  0.00000186
 Variable       Old X    -DE/DX   Delta X   Delta X   Delta X     New X
                                 (Linear)    (Quad)   (Total)
    R1        2.03510  -0.00070  -0.00064  -0.00146  -0.00210   2.03299
    R2        2.62393  -0.00229  -0.00103  -0.00499  -0.00602   2.61791
    R3        2.57088   0.00010   0.00021   0.00093   0.00114   2.57202
    R4        2.03431  -0.00065  -0.00080  -0.00138  -0.00218   2.03213
    R5        2.65839  -0.00028  -0.00039  -0.00086  -0.00124   2.65714
    R6        2.03622  -0.00091  -0.00065  -0.00199  -0.00264   2.03358
    R7        2.54936  -0.00059   0.00036  -0.00042  -0.00006   2.54930
    R8        2.53592   0.00373   0.00279   0.00709   0.00988   2.54580
    R9        1.90524  -0.00086  -0.00042  -0.00151  -0.00193   1.90331
    A1        2.31065  -0.00019   0.00008  -0.00026  -0.00018   2.31047
    A2        2.12826  -0.00009  -0.00045  -0.00038  -0.00083   2.12742
    A3        1.84428   0.00028   0.00037   0.00065   0.00101   1.84529
    A4        2.21426  -0.00017  -0.00066   0.00060  -0.00006   2.21420
    A5        1.83212   0.00032   0.00161  -0.00130   0.00031   1.83243
    A6        2.23680  -0.00015  -0.00095   0.00070  -0.00025   2.23655
    A7        2.25502  -0.00078  -0.00052  -0.00350  -0.00402   2.25100
    A8        1.94781   0.00149  -0.00133   0.00631   0.00499   1.95280
    A9        2.08035  -0.00071   0.00185  -0.00282  -0.00097   2.07938
   A10        1.81445  -0.00211   0.00095  -0.00763  -0.00667   1.80778
   A11        1.98612   0.00002  -0.00160   0.00197   0.00036   1.98648
   A12        2.22496   0.00025  -0.00043   0.00090   0.00047   2.22543
   A13        2.07211  -0.00027   0.00204  -0.00287  -0.00083   2.07127
    D1        0.00000   0.00000   0.00000   0.00000   0.00000   0.00000
    D2        3.14159   0.00000   0.00000   0.00000   0.00000   3.14159
    D3        3.14159   0.00000   0.00000   0.00000   0.00000   3.14159
    D4        0.00000   0.00000   0.00000   0.00000   0.00000   0.00000
    D5        3.14159   0.00000   0.00000   0.00000   0.00000   3.14159
    D6        0.00000   0.00000   0.00000   0.00000   0.00000   0.00000
    D7        0.00000   0.00000   0.00000   0.00000   0.00000   0.00000
    D8        3.14159   0.00000   0.00000   0.00000   0.00000   3.14159
    D9        3.14159   0.00000   0.00000   0.00000   0.00000   3.14159
   D10        0.00000   0.00000   0.00000   0.00000   0.00000   0.00000
   D11        0.00000   0.00000   0.00000   0.00000   0.00000   0.00000
   D12        3.14159   0.00000   0.00000   0.00000   0.00000   3.14159
   D13        0.00000   0.00000   0.00000   0.00000   0.00000   0.00000
   D14        3.14159   0.00000   0.00000   0.00000   0.00000   3.14159
   D15        0.00000   0.00000   0.00000   0.00000   0.00000   0.00000
   D16        3.14159   0.00000   0.00000   0.00000   0.00000   3.14159
         Item               Value     Threshold  Converged?
 Maximum Force            0.003733     0.000450     NO 
 RMS     Force            0.000892     0.000300     NO 
 Maximum Displacement     0.007601     0.001800     NO 
 RMS     Displacement     0.002709     0.001200     NO 
 Predicted change in Energy=-4.218818D-05
 GradGradGradGradGradGradGradGradGradGradGradGradGradGradGradGradGradGrad

                          Input orientation:                          
 ---------------------------------------------------------------------
 Center     Atomic     Atomic              Coordinates (Angstroms)
 Number     Number      Type              X           Y           Z
 ---------------------------------------------------------------------
    1          1             0       -1.893619    0.000000   -1.173404
    2          6             0       -0.941508    0.000000   -0.672548
    3          1             0        0.675582    0.000000   -2.171898
    4          6             0        0.361332    0.000000   -1.143481
    5          1             0        2.238454    0.000000    0.087359
    6          6             0        1.165096    0.000000    0.010244
    7          7             0        0.425449    0.000000    1.138434
    8          1             0       -1.595657    0.000000    1.354351
    9          7             0       -0.843109    0.000000    0.684946
 ---------------------------------------------------------------------
                    Distance matrix (angstroms):
                    1          2          3          4          5
     1  H    0.000000
     2  C    1.075813   0.000000
     3  H    2.756408   2.205227   0.000000
     4  C    2.255150   1.385341   1.075358   0.000000
     5  H    4.320134   3.269498   2.747146   2.244672   0.000000
     6  C    3.279751   2.214495   2.236374   1.406100   1.076124
     7  N    3.274550   2.268971   3.319769   2.282815   2.095649
     8  H    2.545256   2.129843   4.194396   3.173164   4.038029
     9  N    2.134723   1.361056   3.235426   2.189480   3.138971
                    6          7          8          9
     6  C    0.000000
     7  N    1.349033   0.000000
     8  H    3.070567   2.032607   0.000000
     9  N    2.118516   1.347179   1.007190   0.000000
 Stoichiometry    C3H4N2
 Framework group  CS[SG(C3H4N2)]
 Deg. of freedom   15
 Full point group                 CS      NOp   2
 Largest Abelian subgroup         CS      NOp   2
 Largest concise Abelian subgroup C1      NOp   1
                         Standard orientation:                         
 ---------------------------------------------------------------------
 Center     Atomic     Atomic              Coordinates (Angstroms)
 Number     Number      Type              X           Y           Z
 ---------------------------------------------------------------------
    1          1             0        2.104997    0.731052    0.000000
    2          6             0        1.116191    0.307217    0.000000
    3          1             0        1.261744   -1.893202    0.000000
    4          6             0        0.661085   -1.001236    0.000000
    5          1             0       -1.477387   -1.683504    0.000000
    6          6             0       -0.741261   -0.898545    0.000000
    7          7             0       -1.151390    0.386633    0.000000
    8          1             0       -0.045720    2.092208    0.000000
    9          7             0        0.000000    1.086056    0.000000
 ---------------------------------------------------------------------
 Rotational constants (GHZ):      9.6050273      9.3883418      4.7477243
 Isotopes: H-1,C-12,H-1,C-12,H-1,C-12,N-14,H-1,N-14
 Standard basis: 6-31+G(d,p) (6D, 7F)
 There are    86 symmetry adapted basis functions of A'  symmetry.
 There are    29 symmetry adapted basis functions of A"  symmetry.
 Crude estimate of integral set expansion from redundant integrals=1.000.
 Integral buffers will be    262144 words long.
 Raffenetti 1 integral format.
 Two-electron integral symmetry is turned on.
   115 basis functions      188 primitive gaussians
    18 alpha electrons       18 beta electrons
       nuclear repulsion energy       162.6759545531 Hartrees.
 One-electron integrals computed using PRISM.
 NBasis=   115 RedAO= T  NBF=    86    29
 NBsUse=   115 1.00D-04 NBFU=    86    29
 Initial guess read from the read-write file:
 Initial guess orbital symmetries:
       Occupied  (A') (A') (A') (A') (A') (A') (A') (A') (A') (A')
                 (A') (A') (A") (A') (A') (A') (A") (A")
       Virtual   (A') (A') (A') (A') (A") (A') (A") (A") (A') (A')
                 (A") (A') (A') (A") (A') (A') (A") (A') (A") (A')
                 (A') (A') (A') (A') (A') (A') (A') (A') (A') (A')
                 (A') (A') (A") (A") (A') (A") (A') (A') (A') (A')
                 (A') (A') (A") (A') (A') (A") (A') (A') (A') (A')
                 (A') (A') (A") (A') (A") (A") (A") (A") (A') (A')
                 (A') (A') (A') (A') (A') (A") (A") (A') (A') (A")
                 (A") (A') (A") (A') (A") (A') (A') (A') (A") (A')
                 (A") (A') (A") (A') (A') (A') (A') (A') (A') (A')
                 (A') (A') (A') (A') (A') (A') (A')
 Requested convergence on RMS density matrix=1.00D-08 within  64 cycles.
 Requested convergence on MAX density matrix=1.00D-06.
 Keep R1 integrals in memory in canonical form, NReq=    23069849.
 SCF Done:  E(RHF) =  -224.807755444     A.U. after   12 cycles
             Convg  =    0.3682D-08             -V/T =  2.0030
             S**2   =   0.0000
 Range of M.O.s used for correlation:     1   115
 NBasis=   115 NAE=    18 NBE=    18 NFC=     0 NFV=     0
 NROrb=    115 NOA=    18 NOB=    18 NVA=    97 NVB=    97

 **** Warning!!: The largest alpha MO coefficient is  0.40854001D+02

 Fully direct method using O(ONN) memory.
 JobTyp=1 Pass  1:  I=   1 to  18.
 Spin components of T(2) and E(2):
     alpha-alpha T2 =       0.3574242543D-01 E2=     -0.1017848752D+00
     alpha-beta  T2 =       0.1878930535D+00 E2=     -0.5642139274D+00
     beta-beta   T2 =       0.3574242543D-01 E2=     -0.1017848752D+00
 ANorm=    0.1122220078D+01
 E2 =    -0.7677836778D+00 EUMP2 =    -0.22557553912142D+03
          Differentiating once with respect to electric field.
                with respect to dipole field.
          Differentiating once with respect to nuclear coordinates.
          Store integrals in memory, NReq=    22688349.
          There are   1 degrees of freedom in the 1st order CPHF.
   1 vectors were produced by pass  0.
 AX will form   1 AO Fock derivatives at one time.
   1 vectors were produced by pass  1.
   1 vectors were produced by pass  2.
   1 vectors were produced by pass  3.
   1 vectors were produced by pass  4.
   1 vectors were produced by pass  5.
   1 vectors were produced by pass  6.
   1 vectors were produced by pass  7.
   1 vectors were produced by pass  8.
   1 vectors were produced by pass  9.
   1 vectors were produced by pass 10.
   1 vectors were produced by pass 11.
   1 vectors were produced by pass 12.
   1 vectors were produced by pass 13.
   1 vectors were produced by pass 14.
 Inv2:  IOpt= 1 Iter= 1 AM= 4.18D-16 Conv= 1.00D-12.
 Inverted reduced A of dimension  15 with in-core refinement.
 ***** Axes restored to original set *****
 -------------------------------------------------------------------
 Center     Atomic                   Forces (Hartrees/Bohr)
 Number     Number              X              Y              Z
 -------------------------------------------------------------------
    1          1          -0.000151242    0.000000000   -0.000046986
    2          6           0.000266282    0.000000000    0.001096346
    3          1           0.000169342    0.000000000   -0.000146526
    4          6           0.000336042    0.000000000   -0.000211395
    5          1           0.000249705    0.000000000    0.000084986
    6          6          -0.000449820    0.000000000    0.000338685
    7          7           0.000618559    0.000000000   -0.000684801
    8          1           0.000125458    0.000000000    0.000262488
    9          7          -0.001164327    0.000000000   -0.000692797
 -------------------------------------------------------------------
 Cartesian Forces:  Max     0.001164327 RMS     0.000415629

 GradGradGradGradGradGradGradGradGradGradGradGradGradGradGradGradGradGrad
 Berny optimization.
 Internal  Forces:  Max     0.000620703 RMS     0.000233613
 Search for a local minimum.
 Step number   5 out of a maximum of  48
 All quantities printed in internal units (Hartrees-Bohrs-Radians)
 Update second derivatives using information from points  1  2  3  4  5

 Trust test= 9.42D-01 RLast= 1.57D-02 DXMaxT set to 4.24D-01
     Eigenvalues ---    0.03203   0.03247   0.03250   0.03273   0.03342
     Eigenvalues ---    0.03372   0.15230   0.15594   0.16019   0.16501
     Eigenvalues ---    0.21429   0.33007   0.39046   0.47871   0.49571
     Eigenvalues ---    0.49747   0.57977   0.60208   0.63432   0.70074
     Eigenvalues ---    0.744101000.000001000.000001000.000001000.00000
     Eigenvalues --- 1000.000001000.000001000.000001000.000001000.00000
     Eigenvalues --- 1000.000001000.000001000.000001000.000001000.00000
     Eigenvalues --- 1000.000001000.000001000.00000
 RFO step:  Lambda=-4.84929801D-06.
 Quartic linear search produced a step of -0.05204.
 Iteration  1 RMS(Cart)=  0.00069568 RMS(Int)=  0.00000052
 Iteration  2 RMS(Cart)=  0.00000053 RMS(Int)=  0.00000020
 Variable       Old X    -DE/DX   Delta X   Delta X   Delta X     New X
                                 (Linear)    (Quad)   (Total)
    R1        2.03299   0.00016   0.00011   0.00017   0.00028   2.03327
    R2        2.61791   0.00057   0.00031   0.00034   0.00065   2.61856
    R3        2.57202  -0.00062  -0.00006  -0.00059  -0.00065   2.57137
    R4        2.03213   0.00019   0.00011   0.00023   0.00034   2.03247
    R5        2.65714  -0.00013   0.00006  -0.00023  -0.00017   2.65698
    R6        2.03358   0.00026   0.00014   0.00030   0.00044   2.03402
    R7        2.54930  -0.00052   0.00000  -0.00068  -0.00067   2.54863
    R8        2.54580   0.00040  -0.00051   0.00150   0.00099   2.54678
    R9        1.90331   0.00008   0.00010  -0.00001   0.00009   1.90340
    A1        2.31047  -0.00010   0.00001  -0.00046  -0.00045   2.31002
    A2        2.12742  -0.00016   0.00004  -0.00091  -0.00087   2.12656
    A3        1.84529   0.00026  -0.00005   0.00137   0.00132   1.84661
    A4        2.21420   0.00021   0.00000   0.00107   0.00107   2.21528
    A5        1.83243  -0.00018  -0.00002  -0.00071  -0.00072   1.83171
    A6        2.23655  -0.00003   0.00001  -0.00037  -0.00035   2.23620
    A7        2.25100   0.00010   0.00021   0.00018   0.00039   2.25139
    A8        1.95280  -0.00007  -0.00026   0.00026   0.00000   1.95280
    A9        2.07938  -0.00003   0.00005  -0.00044  -0.00039   2.07899
   A10        1.80778   0.00042   0.00035   0.00069   0.00104   1.80882
   A11        1.98648  -0.00042  -0.00002  -0.00162  -0.00164   1.98484
   A12        2.22543   0.00048  -0.00002   0.00254   0.00251   2.22794
   A13        2.07127  -0.00006   0.00004  -0.00092  -0.00087   2.07040
    D1        0.00000   0.00000   0.00000   0.00000   0.00000   0.00000
    D2        3.14159   0.00000   0.00000   0.00000   0.00000   3.14159
    D3        3.14159   0.00000   0.00000   0.00000   0.00000   3.14159
    D4        0.00000   0.00000   0.00000   0.00000   0.00000   0.00000
    D5        3.14159   0.00000   0.00000   0.00000   0.00000   3.14159
    D6        0.00000   0.00000   0.00000   0.00000   0.00000   0.00000
    D7        0.00000   0.00000   0.00000   0.00000   0.00000   0.00000
    D8        3.14159   0.00000   0.00000   0.00000   0.00000   3.14159
    D9        3.14159   0.00000   0.00000   0.00000   0.00000   3.14159
   D10        0.00000   0.00000   0.00000   0.00000   0.00000   0.00000
   D11        0.00000   0.00000   0.00000   0.00000   0.00000   0.00000
   D12        3.14159   0.00000   0.00000   0.00000   0.00000   3.14159
   D13        0.00000   0.00000   0.00000   0.00000   0.00000   0.00000
   D14        3.14159   0.00000   0.00000   0.00000   0.00000   3.14159
   D15        0.00000   0.00000   0.00000   0.00000   0.00000   0.00000
   D16        3.14159   0.00000   0.00000   0.00000   0.00000   3.14159
         Item               Value     Threshold  Converged?
 Maximum Force            0.000621     0.000450     NO 
 RMS     Force            0.000234     0.000300     YES
 Maximum Displacement     0.002424     0.001800     NO 
 RMS     Displacement     0.000696     0.001200     YES
 Predicted change in Energy=-2.544890D-06
 GradGradGradGradGradGradGradGradGradGradGradGradGradGradGradGradGradGrad

                          Input orientation:                          
 ---------------------------------------------------------------------
 Center     Atomic     Atomic              Coordinates (Angstroms)
 Number     Number      Type              X           Y           Z
 ---------------------------------------------------------------------
    1          1             0       -1.893930    0.000000   -1.173893
    2          6             0       -0.941677    0.000000   -0.672991
    3          1             0        0.676182    0.000000   -2.173059
    4          6             0        0.361262    0.000000   -1.144659
    5          1             0        2.238231    0.000000    0.087005
    6          6             0        1.164692    0.000000    0.009191
    7          7             0        0.424959    0.000000    1.136899
    8          1             0       -1.595916    0.000000    1.354930
    9          7             0       -0.844449    0.000000    0.684241
 ---------------------------------------------------------------------
                    Distance matrix (angstroms):
                    1          2          3          4          5
     1  H    0.000000
     2  C    1.075959   0.000000
     3  H    2.757500   2.206280   0.000000
     4  C    2.255382   1.385685   1.075538   0.000000
     5  H    4.320257   3.269467   2.747342   2.244996   0.000000
     6  C    3.279460   2.214083   2.236260   1.406012   1.076356
     7  N    3.273684   2.267906   3.319478   2.282447   2.095288
     8  H    2.546322   2.130843   4.196324   3.174664   4.038355
     9  N    2.134027   1.360711   3.236740   2.190575   3.140001
                    6          7          8          9
     6  C    0.000000
     7  N    1.348676   0.000000
     8  H    3.071150   2.032603   0.000000
     9  N    2.119514   1.347701   1.007236   0.000000
 Stoichiometry    C3H4N2
 Framework group  CS[SG(C3H4N2)]
 Deg. of freedom   15
 Full point group                 CS      NOp   2
 Largest Abelian subgroup         CS      NOp   2
 Largest concise Abelian subgroup C1      NOp   1
                         Standard orientation:                         
 ---------------------------------------------------------------------
 Center     Atomic     Atomic              Coordinates (Angstroms)
 Number     Number      Type              X           Y           Z
 ---------------------------------------------------------------------
    1          1             0        2.104305    0.731941    0.000000
    2          6             0        1.115523    0.307677    0.000000
    3          1             0        1.261923   -1.893741    0.000000
    4          6             0        0.661386   -1.001476    0.000000
    5          1             0       -1.477391   -1.683857    0.000000
    6          6             0       -0.740883   -0.898938    0.000000
    7          7             0       -1.151035    0.385859    0.000000
    8          1             0       -0.047752    2.092974    0.000000
    9          7             0        0.000000    1.086870    0.000000
 ---------------------------------------------------------------------
 Rotational constants (GHZ):      9.5991216      9.3925238      4.7473495
 Isotopes: H-1,C-12,H-1,C-12,H-1,C-12,N-14,H-1,N-14
 Standard basis: 6-31+G(d,p) (6D, 7F)
 There are    86 symmetry adapted basis functions of A'  symmetry.
 There are    29 symmetry adapted basis functions of A"  symmetry.
 Crude estimate of integral set expansion from redundant integrals=1.000.
 Integral buffers will be    262144 words long.
 Raffenetti 1 integral format.
 Two-electron integral symmetry is turned on.
[...]
 Red. masses --     2.7522                 2.9150                 1.0906
 Frc consts  --     3.7451                 4.2397                 7.1469
 IR Inten    --     7.4918                 5.5360                 0.9943
 Raman Activ --     0.0000                 0.0000                 0.0000
 Depolar     --     0.0000                 0.0000                 0.0000
 Atom AN      X      Y      Z        X      Y      Z        X      Y      Z
   1   1     0.01  -0.28   0.00     0.34  -0.34   0.00    -0.36  -0.15   0.00
   2   6    -0.17   0.18   0.00     0.04   0.26   0.00     0.03   0.01   0.00
   3   1    -0.11  -0.19   0.00     0.31  -0.02   0.00     0.32  -0.48   0.00
   4   6     0.06  -0.06   0.00    -0.06  -0.22   0.00    -0.03   0.04   0.00
   5   1    -0.01   0.00   0.00     0.35  -0.25   0.00     0.49   0.52   0.00
   6   6    -0.01   0.01   0.00    -0.10   0.15   0.00    -0.04  -0.05   0.00
   7   7    -0.08   0.02   0.00     0.05  -0.08   0.00     0.00   0.00   0.00
   8   1    -0.84  -0.16   0.00     0.56  -0.02   0.00     0.00   0.01   0.00
   9   7     0.25  -0.09   0.00    -0.07  -0.04   0.00     0.00   0.00   0.00
                    19                     20                     21
                    A'                     A'                     A'
 Frequencies --  3343.5853              3360.6278              3729.8231
 Red. masses --     1.0962                 1.1079                 1.0828
 Frc consts  --     7.2205                 7.3721                 8.8755
 IR Inten    --     1.1118                 0.1149               101.2107
 Raman Activ --     0.0000                 0.0000                 0.0000
 Depolar     --     0.0000                 0.0000                 0.0000
 Atom AN      X      Y      Z        X      Y      Z        X      Y      Z
   1   1     0.68   0.29   0.00    -0.50  -0.22   0.00     0.02   0.00   0.00
   2   6    -0.06  -0.03   0.00     0.05   0.02   0.00     0.00   0.00   0.00
   3   1    -0.15   0.21   0.00    -0.43   0.64   0.00     0.00   0.00   0.00
   4   6     0.02  -0.02   0.00     0.04  -0.06   0.00     0.00   0.00   0.00
   5   1     0.42   0.45   0.00     0.23   0.24   0.00     0.00   0.00   0.00
   6   6    -0.04  -0.04   0.00    -0.02  -0.02   0.00     0.00   0.00   0.00
   7   7     0.00   0.00   0.00     0.00   0.00   0.00     0.00   0.00   0.00
   8   1     0.00  -0.01   0.00     0.00   0.01   0.00    -0.05   1.00   0.00
   9   7     0.00   0.00   0.00     0.00   0.00   0.00     0.01  -0.08   0.00

 -------------------
 - Thermochemistry -
 -------------------
 Temperature   298.150 Kelvin.  Pressure   1.00000 Atm.
 Atom  1 has atomic number  1 and mass   1.00783
 Atom  2 has atomic number  6 and mass  12.00000
 Atom  3 has atomic number  1 and mass   1.00783
 Atom  4 has atomic number  6 and mass  12.00000
 Atom  5 has atomic number  1 and mass   1.00783
 Atom  6 has atomic number  6 and mass  12.00000
 Atom  7 has atomic number  7 and mass  14.00307
 Atom  8 has atomic number  1 and mass   1.00783
 Atom  9 has atomic number  7 and mass  14.00307
 Molecular mass:    68.03745 amu.
 Principal axes and moments of inertia in atomic units:
                           1         2         3
     EIGENVALUES --   188.01107 192.14656 380.15764
           X            0.87823   0.47825   0.00000
           Y           -0.47825   0.87823   0.00000
           Z            0.00000   0.00000   1.00000
 THIS MOLECULE IS AN ASYMMETRIC TOP.
 ROTATIONAL SYMMETRY NUMBER  1.
 ROTATIONAL TEMPERATURES (KELVIN)      0.46068     0.45077     0.22784
 ROTATIONAL CONSTANTS (GHZ)            9.59912     9.39252     4.74735
 Zero-point vibrational energy     188639.1 (Joules/Mol)
                                   45.08582 (Kcal/Mol)
 WARNING-- EXPLICIT CONSIDERATION OF   2 DEGREES OF FREEDOM AS
           VIBRATIONS MAY CAUSE SIGNIFICANT ERROR
 VIBRATIONAL TEMPERATURES:    721.05   863.44   978.93  1033.16  1131.49
          (KELVIN)           1189.76  1318.95  1349.22  1547.27  1556.82
                             1689.11  1723.63  1877.94  2007.22  2130.36
                             2186.54  2260.56  4798.26  4810.65  4835.17
                             5366.35
 
 Zero-point correction=                           0.071849 (Hartree/Particle)
 Thermal correction to Energy=                    0.075664
 Thermal correction to Enthalpy=                  0.076608
 Thermal correction to Gibbs Free Energy=         0.045543
 Sum of electronic and zero-point Energies=           -225.503693
 Sum of electronic and thermal Energies=              -225.499878
 Sum of electronic and thermal Enthalpies=            -225.498934
 Sum of electronic and thermal Free Energies=         -225.529999
 
                     E (Thermal)             CV                S
                      KCAL/MOL        CAL/MOL-KELVIN    CAL/MOL-KELVIN
 TOTAL                   47.480             13.599             65.381
 ELECTRONIC               0.000              0.000              0.000
 TRANSLATIONAL            0.889              2.981             38.570
 ROTATIONAL               0.889              2.981             24.133
 VIBRATIONAL             45.702              7.638              2.677
 VIBRATION  1             0.857              1.247              0.655
 VIBRATION  2             0.958              1.032              0.449
                       Q            LOG10(Q)             LN(Q)
 TOTAL BOT       0.112644D-20        -20.948294        -48.235229
 TOTAL V=0       0.125792D+13         12.099652         27.860478
 VIB (BOT)       0.121726D-32        -32.914615        -75.788703
 VIB (BOT)  1    0.327615D+00         -0.484636         -1.115917
 VIB (BOT)  2    0.248787D+00         -0.604173         -1.391159
 VIB (V=0)       0.135935D+01          0.133330          0.307004
 VIB (V=0)  1    0.109777D+01          0.040512          0.093283
 VIB (V=0)  2    0.105848D+01          0.024681          0.056830
 ELECTRONIC      0.100000D+01          0.000000          0.000000
 TRANSLATIONAL   0.220588D+08          7.343582         16.909224
 ROTATIONAL      0.419507D+05          4.622739         10.644250
 ***** Axes restored to original set *****
 -------------------------------------------------------------------
 Center     Atomic                   Forces (Hartrees/Bohr)
 Number     Number              X              Y              Z
 -------------------------------------------------------------------
    1          1          -0.000051565    0.000000000   -0.000071405
    2          6          -0.000105704    0.000000000    0.000458058
    3          1           0.000017895    0.000000000   -0.000034848
    4          6           0.000044574    0.000000000   -0.000047199
    5          1           0.000082903    0.000000000    0.000044804
    6          6          -0.000316713    0.000000000    0.000323533
    7          7           0.000330236    0.000000000   -0.000146707
    8          1           0.000069956    0.000000000    0.000073322
    9          7          -0.000071583    0.000000000   -0.000599559
 -------------------------------------------------------------------
 Cartesian Forces:  Max     0.000599559 RMS     0.000187952

 GradGradGradGradGradGradGradGradGradGradGradGradGradGradGradGradGradGrad
 Berny optimization.
 Internal  Forces:  Max     0.000394614 RMS     0.000101497
 Search for a local minimum.
 Step number   1 out of a maximum of  48
 All quantities printed in internal units (Hartrees-Bohrs-Radians)
 Second derivative matrix not updated -- analytic derivatives used.
     Eigenvalues ---    0.00645   0.00959   0.01429   0.02607   0.05266
     Eigenvalues ---    0.05725   0.09615   0.10659   0.11261   0.12079
     Eigenvalues ---    0.23049   0.28075   0.35912   0.38243   0.39338
     Eigenvalues ---    0.39430   0.39929   0.45375   0.49122   0.50063
     Eigenvalues ---    0.553671000.000001000.000001000.000001000.00000
     Eigenvalues --- 1000.000001000.000001000.000001000.000001000.00000
     Eigenvalues --- 1000.000001000.000001000.000001000.000001000.00000
     Eigenvalues --- 1000.000001000.000001000.00000
 Angle between quadratic step and forces=  33.06 degrees.
 Linear search not attempted -- first point.
 Iteration  1 RMS(Cart)=  0.00030168 RMS(Int)=  0.00000013
 Iteration  2 RMS(Cart)=  0.00000012 RMS(Int)=  0.00000000
 Variable       Old X    -DE/DX   Delta X   Delta X   Delta X     New X
                                 (Linear)    (Quad)   (Total)
    R1        2.03327   0.00008   0.00000   0.00019   0.00019   2.03346
    R2        2.61856   0.00009   0.00000   0.00032   0.00032   2.61888
    R3        2.57137  -0.00036   0.00000  -0.00088  -0.00088   2.57049
    R4        2.03247   0.00004   0.00000   0.00009   0.00009   2.03256
    R5        2.65698   0.00007   0.00000   0.00019   0.00019   2.65717
    R6        2.03402   0.00009   0.00000   0.00024   0.00024   2.03426
    R7        2.54863  -0.00039   0.00000  -0.00083  -0.00083   2.54780
    R8        2.54678   0.00012   0.00000   0.00042   0.00042   2.54720
    R9        1.90340   0.00000   0.00000  -0.00001  -0.00001   1.90339
    A1        2.31002   0.00000   0.00000  -0.00045  -0.00045   2.30957
    A2        2.12656   0.00008   0.00000   0.00052   0.00052   2.12707
    A3        1.84661  -0.00009   0.00000  -0.00007  -0.00007   1.84654
    A4        2.21528   0.00002   0.00000   0.00015   0.00015   2.21543
    A5        1.83171  -0.00003   0.00000  -0.00021  -0.00021   1.83150
    A6        2.23620   0.00001   0.00000   0.00006   0.00006   2.23625
    A7        2.25139   0.00002   0.00000   0.00007   0.00007   2.25146
    A8        1.95280   0.00003   0.00000   0.00019   0.00019   1.95298
    A9        2.07899  -0.00006   0.00000  -0.00025  -0.00025   2.07874
   A10        1.80882  -0.00004   0.00000  -0.00014  -0.00014   1.80868
   A11        1.98484   0.00012   0.00000   0.00023   0.00023   1.98507
   A12        2.22794   0.00004   0.00000   0.00077   0.00077   2.22871
   A13        2.07040  -0.00016   0.00000  -0.00100  -0.00100   2.06940
    D1        0.00000   0.00000   0.00000   0.00000   0.00000   0.00000
    D2        3.14159   0.00000   0.00000   0.00000   0.00000   3.14159
    D3        3.14159   0.00000   0.00000   0.00000   0.00000   3.14159
    D4        0.00000   0.00000   0.00000   0.00000   0.00000   0.00000
    D5        3.14159   0.00000   0.00000   0.00000   0.00000   3.14159
    D6        0.00000   0.00000   0.00000   0.00000   0.00000   0.00000
    D7        0.00000   0.00000   0.00000   0.00000   0.00000   0.00000
    D8        3.14159   0.00000   0.00000   0.00000   0.00000   3.14159
    D9        3.14159   0.00000   0.00000   0.00000   0.00000   3.14159
   D10        0.00000   0.00000   0.00000   0.00000   0.00000   0.00000
   D11        0.00000   0.00000   0.00000   0.00000   0.00000   0.00000
   D12        3.14159   0.00000   0.00000   0.00000   0.00000   3.14159
   D13        0.00000   0.00000   0.00000   0.00000   0.00000   0.00000
   D14        3.14159   0.00000   0.00000   0.00000   0.00000   3.14159
   D15        0.00000   0.00000   0.00000   0.00000   0.00000   0.00000
   D16        3.14159   0.00000   0.00000   0.00000   0.00000   3.14159
         Item               Value     Threshold  Converged?
 Maximum Force            0.000395     0.000450     YES
 RMS     Force            0.000101     0.000300     YES
 Maximum Displacement     0.001064     0.001800     YES
 RMS     Displacement     0.000302     0.001200     YES
 Predicted change in Energy=-5.378515D-07
 Optimization completed.
    -- Stationary point found.
                         ----------------------------
                         !   Optimized Parameters   !
                         ! (Angstroms and Degrees)  !
 ------------------------                            -------------------------
 ! Name  Definition              Value          Derivative Info.             !
 -----------------------------------------------------------------------------
 ! R1    R(1,2)                  1.076          -DE/DX =    0.0001           !
 ! R2    R(2,4)                  1.3857         -DE/DX =    0.0001           !
 ! R3    R(2,9)                  1.3607         -DE/DX =   -0.0004           !
 ! R4    R(3,4)                  1.0755         -DE/DX =    0.               !
 ! R5    R(4,6)                  1.406          -DE/DX =    0.0001           !
 ! R6    R(5,6)                  1.0764         -DE/DX =    0.0001           !
 ! R7    R(6,7)                  1.3487         -DE/DX =   -0.0004           !
 ! R8    R(7,9)                  1.3477         -DE/DX =    0.0001           !
 ! R9    R(8,9)                  1.0072         -DE/DX =    0.               !
 ! A1    A(1,2,4)              132.3544         -DE/DX =    0.               !
 ! A2    A(1,2,9)              121.8427         -DE/DX =    0.0001           !
 ! A3    A(4,2,9)              105.8029         -DE/DX =   -0.0001           !
 ! A4    A(2,4,3)              126.9262         -DE/DX =    0.               !
 ! A5    A(2,4,6)              104.9492         -DE/DX =    0.               !
 ! A6    A(3,4,6)              128.1246         -DE/DX =    0.               !
 ! A7    A(4,6,5)              128.9953         -DE/DX =    0.               !
 ! A8    A(4,6,7)              111.8871         -DE/DX =    0.               !
 ! A9    A(5,6,7)              119.1176         -DE/DX =   -0.0001           !
 ! A10   A(6,7,9)              103.6376         -DE/DX =    0.               !
 ! A11   A(2,9,7)              113.7232         -DE/DX =    0.0001           !
 ! A12   A(2,9,8)              127.6516         -DE/DX =    0.               !
 ! A13   A(7,9,8)              118.6252         -DE/DX =   -0.0002           !
 ! D1    D(1,2,4,3)              0.             -DE/DX =    0.               !
 ! D2    D(1,2,4,6)            180.             -DE/DX =    0.               !
 ! D3    D(9,2,4,3)            180.             -DE/DX =    0.               !
 ! D4    D(9,2,4,6)              0.             -DE/DX =    0.               !
 ! D5    D(1,2,9,7)            180.             -DE/DX =    0.               !
 ! D6    D(1,2,9,8)              0.             -DE/DX =    0.               !
 ! D7    D(4,2,9,7)              0.             -DE/DX =    0.               !
 ! D8    D(4,2,9,8)            180.             -DE/DX =    0.               !
 ! D9    D(2,4,6,5)            180.             -DE/DX =    0.               !
 ! D10   D(2,4,6,7)              0.             -DE/DX =    0.               !
 ! D11   D(3,4,6,5)              0.             -DE/DX =    0.               !
 ! D12   D(3,4,6,7)            180.             -DE/DX =    0.               !
 ! D13   D(4,6,7,9)              0.             -DE/DX =    0.               !
 ! D14   D(5,6,7,9)            180.             -DE/DX =    0.               !
 ! D15   D(6,7,9,2)              0.             -DE/DX =    0.               !
 ! D16   D(6,7,9,8)            180.             -DE/DX =    0.               !
 -----------------------------------------------------------------------------
 GradGradGradGradGradGradGradGradGradGradGradGradGradGradGradGradGradGrad

 1\1\GINC-FERRUM\Freq\RMP2-FU\6-31+G(d,p)\C3H4N2\RDJ3\17-Apr-2000\0\\#N
  GEOM=ALLCHECK GUESS=TCHECK RMP2(FULL)/6-31+G(D,P) FREQ\\1H pyrazole C
 3H4N2 casno=288131\\0,1\H,-1.8937577046,0.,-1.1736766372\C,-0.94150499
 95,0.,-0.6727749257\H,0.6763541975,0.,-2.1728430123\C,0.3614347856,0.,
 -1.1444428971\H,2.2384033337,0.,0.0872216638\C,1.1648638943,0.,0.00940
 78964\N,0.4251315141,0.,1.1371153625\H,-1.5957435222,0.,1.3551461798\N
 ,-0.8442769978,0.,0.6844576895\\Version=IBM-RS6000-G98RevA.4\State=1-A
 '\HF=-224.8077835\MP2=-225.575542\RMSD=1.016e-09\RMSF=1.880e-04\Dipole
 =-0.8356123,0.,-0.4848644\DipoleDeriv=0.0033474,0.,-0.0377309,0.,0.215
 1898,0.,-0.0286242,0.,0.0690339,0.075129,0.,-0.1977187,0.,-0.1466526,0
 .,-0.2852853,0.,0.2353402,0.0947105,0.,0.0254874,0.,0.1932144,0.,0.028
 8552,0.,-0.0211184,-0.1712037,0.,0.0594471,0.,-0.2192439,0.,-0.0451015
 ,0.,-0.0712681,-0.0285467,0.,-0.0044587,0.,0.1696137,0.,-0.0227688,0.,
 0.0750676,0.1399872,0.,0.0536376,0.,-0.1240154,0.,0.2077773,0.,0.16989
 76,0.0402674,0.,-0.1047671,0.,-0.2292391,0.,-0.1145552,0.,-0.4658331,0
 .2294356,0.,-0.0652931,0.,0.3230661,0.,-0.0484699,0.,0.2369863,-0.3831
 267,0.,0.2713964,0.,-0.181933,0.,0.3081724,0.,-0.2281059\Polar=53.5556
 778,0.,31.2336144,0.7022955,0.,51.787385\PG=CS [SG(C3H4N2)]\NImag=0\\0
 .31823278,0.,0.01781891,0.14079093,0.,0.12722155,-0.31444503,0.,-0.122
 75940,0.87494194,0.,-0.01816954,0.,0.,0.09139185,-0.13286073,0.,-0.125
 22337,0.09287277,0.,0.67370334,0.00041985,0.,-0.00085556,0.00246784,0.
 ,0.02637133,0.07913866,0.,-0.00195160,0.,0.,-0.00543443,0.,0.,0.020260
 84,0.00038432,0.,-0.00008769,-0.00468712,0.,0.00053922,-0.09723609,0.,
 0.36350480,-0.00639233,0.,0.01012074,-0.35147690,0.,0.09360638,-0.0865
 8518,0.,0.09171866,0.64787426,0.,-0.00278370,0.,0.,-0.04270323,0.,0.,-
 0.02030865,0.,0.,0.08925646,-0.01549474,0.,0.01320729,0.10113376,0.,-0
 .14092138,0.08887117,0.,-0.35215945,-0.11116300,0.,0.86242689,-0.00016
 266,0.,0.00028462,-0.00041897,0.,-0.00082433,-0.00007724,0.,-0.0003361
 9,-0.00423563,0.,0.00446421,0.39021536,0.,0.00096154,0.,0.,0.00580190,
 0.,0.,-0.00125801,0.,0.,-0.00280282,0.,0.,0.02245222,-0.00109705,0.,0.
 00118502,-0.00326591,0.,-0.00599741,0.00087125,0.,0.00031629,-0.022876
 79,0.,0.00681510,0.02338996,0.,0.05795962,-0.00443579,0.,0.00507997,-0
 .05415595,0.,-0.00464589,0.01325300,0.,0.01285094,-0.19185212,0.,-0.11
 667793,-0.37242381,0.,-0.03459527,0.89755801,0.,0.00556318,0.,0.,0.001
 91170,0.,0.,-0.00630966,0.,0.,-0.04566933,0.,0.,-0.02470576,0.,0.,0.11
 486432,0.00080023,0.,-0.00237036,-0.06146847,0.,0.01879533,-0.01622772
 ,0.,-0.00878491,-0.09580941,0.,-0.25166191,-0.02512773,0.,-0.06174354,
 0.02167771,0.,0.61035972,0.00054316,0.,0.00004744,-0.05531898,0.,-0.04
 143053,-0.00206835,0.,-0.00096945,0.02403615,0.,0.02995881,-0.01188608
 ,0.,0.02895208,-0.17491439,0.,0.14021594,0.52772847,0.,0.00650268,0.,0
 .,0.01643751,0.,0.,0.00730234,0.,0.,0.01538065,0.,0.,-0.00866189,0.,0.
 ,-0.06355412,0.,0.,0.09717617,0.00266354,0.,-0.00589331,-0.02386445,0.
 ,-0.05124259,-0.00626201,0.,-0.00362446,-0.02280589,0.,-0.07626895,-0.
 00404873,0.,0.00583520,0.08792735,0.,-0.27988608,-0.02714508,0.,0.5327
 8802,-0.00028479,0.,0.00041815,0.01004697,0.,-0.00726405,0.00079943,0.
 ,-0.00009380,0.00213101,0.,-0.00347400,-0.00041300,0.,0.00152833,-0.00
 739063,0.,-0.00591627,-0.02059190,0.,0.02575550,0.30436322,0.,-0.00118
 357,0.,0.,-0.00935845,0.,0.,0.00216048,0.,0.,0.00393976,0.,0.,0.002340
 03,0.,0.,0.00411449,0.,0.,-0.01282004,0.,0.,0.01254990,-0.00051371,0.,
 0.00025255,0.02589542,0.,-0.00436695,0.00129785,0.,0.00022242,-0.00264
 706,0.,-0.00727381,-0.00056761,0.,0.00102797,-0.00640970,0.,0.00128637
 ,-0.01471387,0.,0.01432328,-0.21204235,0.,0.25678815,0.00652481,0.,-0.
 03312689,-0.11164093,0.,-0.02582495,-0.00734802,0.,-0.00163126,-0.0334
 9927,0.,0.02238172,-0.00059797,0.,0.00709341,-0.10563833,0.,0.04185572
 ,-0.28752807,0.,-0.03222022,-0.28866029,0.,0.20970103,0.82838807,0.,-0
 .00675789,0.,0.,-0.03987731,0.,0.,0.00553868,0.,0.,0.00569086,0.,0.,0.
 00587280,0.,0.,0.01378518,0.,0.,-0.05776330,0.,0.,-0.00174260,0.,0.,0.
 07525358,0.00532722,0.,-0.00829167,-0.00385659,0.,-0.36528618,0.003169
 77,0.,0.00007378,0.05985638,0.,-0.05416378,0.00276580,0.,-0.00539826,0
 .03479282,0.,-0.02599463,-0.11491534,0.,-0.13603111,0.20108851,0.,-0.2
 6225997,-0.18822856,0.,0.85735182\\0.00005156,0.,0.00007140,0.00010570
 ,0.,-0.00045806,-0.00001789,0.,0.00003485,-0.00004457,0.,0.00004720,-0
 .00008290,0.,-0.00004480,0.00031671,0.,-0.00032353,-0.00033024,0.,0.00
 014671,-0.00006996,0.,-0.00007332,0.00007158,0.,0.00059956\\\@


 MOST BUREAUCRACIES FUNCTION LIKE A SEPTIC TANK.
 THE LARGE CHUNKS RISE TO THE TOP.
 Job cpu time:  0 days  1 hours 17 minutes 28.4 seconds.
 File lengths (MBytes):  RWF= 1025 Int=    0 D2E=    0 Chk=    4 Scr=    1
 Normal termination of Gaussian 98.
