 Entering Gaussian System, Link 0=g98
 Initial command:
 /usr/local/apps/g98/g98/l1.exe /wrk/Gau-8092.inp -scrdir=/wrk/
 Entering Link 1 = /usr/local/apps/g98/g98/l1.exe PID=     19424.
  
 Copyright (c) 1988,1990,1992,1993,1995,1998 Gaussian, Inc.
                  All Rights Reserved.
  
 This is part of the Gaussian(R) 98 program.  It is based on
 the Gaussian 94(TM) system (copyright 1995 Gaussian, Inc.),
 the Gaussian 92(TM) system (copyright 1992 Gaussian, Inc.),
 the Gaussian 90(TM) system (copyright 1990 Gaussian, Inc.),
 the Gaussian 88(TM) system (copyright 1988 Gaussian, Inc.),
 the Gaussian 86(TM) system (copyright 1986 Carnegie Mellon
 University), and the Gaussian 82(TM) system (copyright 1983
 Carnegie Mellon University). Gaussian is a federally registered
 trademark of Gaussian, Inc.
  
 This software contains proprietary and confidential information,
 including trade secrets, belonging to Gaussian, Inc.
  
 This software is provided under written license and may be
 used, copied, transmitted, or stored only in accord with that
 written license.
  
 The following legend is applicable only to US Government
 contracts under DFARS:
  
                    RESTRICTED RIGHTS LEGEND
  
 Use, duplication or disclosure by the US Government is subject
 to restrictions as set forth in subparagraph (c)(1)(ii) of the
 Rights in Technical Data and Computer Software clause at DFARS
 252.227-7013.
  
 Gaussian, Inc.
 Carnegie Office Park, Building 6, Pittsburgh, PA 15106 USA
  
 The following legend is applicable only to US Government
 contracts under FAR:
  
                    RESTRICTED RIGHTS LEGEND
  
 Use, reproduction and disclosure by the US Government is subject
 to restrictions as set forth in subparagraph (c) of the
 Commercial Computer Software - Restricted Rights clause at FAR
 52.227-19.
  
 Gaussian, Inc.
 Carnegie Office Park, Building 6, Pittsburgh, PA 15106 USA
  
  
 ---------------------------------------------------------------
 Warning -- This program may not be used in any manner that
 competes with the business of Gaussian, Inc. or will provide
 assistance to any competitor of Gaussian, Inc.  The licensee
 of this program is prohibited from giving any competitor of
 Gaussian, Inc. access to this program.  By using this program,
 the user acknowledges that Gaussian, Inc. is engaged in the
 business of creating and licensing software in the field of
 computational chemistry and represents and warrants to the
 licensee that it is not a competitor of Gaussian, Inc. and that
 it will not use this program in any manner prohibited above.
 ---------------------------------------------------------------
  

 Cite this work as:
 Gaussian 98, Revision A.7,
 M. J. Frisch, G. W. Trucks, H. B. Schlegel, G. E. Scuseria, 
 M. A. Robb, J. R. Cheeseman, V. G. Zakrzewski, J. A. Montgomery, Jr., 
 R. E. Stratmann, J. C. Burant, S. Dapprich, J. M. Millam, 
 A. D. Daniels, K. N. Kudin, M. C. Strain, O. Farkas, J. Tomasi, 
 V. Barone, M. Cossi, R. Cammi, B. Mennucci, C. Pomelli, C. Adamo, 
 S. Clifford, J. Ochterski, G. A. Petersson, P. Y. Ayala, Q. Cui, 
 K. Morokuma, D. K. Malick, A. D. Rabuck, K. Raghavachari, 
 J. B. Foresman, J. Cioslowski, J. V. Ortiz, A. G. Baboul, 
 B. B. Stefanov, G. Liu, A. Liashenko, P. Piskorz, I. Komaromi, 
 R. Gomperts, R. L. Martin, D. J. Fox, T. Keith, M. A. Al-Laham, 
 C. Y. Peng, A. Nanayakkara, C. Gonzalez, M. Challacombe, 
 P. M. W. Gill, B. Johnson, W. Chen, M. W. Wong, J. L. Andres, 
 C. Gonzalez, M. Head-Gordon, E. S. Replogle, and J. A. Pople, 
 Gaussian, Inc., Pittsburgh PA, 1998.

 **********************************************
 Gaussian 98:  IBM-RS6000-G98RevA.7 11-Apr-1999
                  22-Dec-2000 
 **********************************************
 %NProcl=2
 Will use up to    2 processors via Linda.
 %mem=24000000
 ---------------------
 #MP2/LANL2DZ opt freq
 ---------------------
 1/18=20,38=1/1,3;
 2/9=110,17=6,18=5/2;
 3/5=6,6=3,11=9,16=1,25=1,30=1/1,2,3;
 4/11=1/1;
 5/5=2,38=4/2;
 8/6=4,10=1/1;
 9/15=2,16=-3/6;
 10/5=1/2;
 6/7=2,8=2,9=2,10=2/1;
 7/12=2/1,2,3,16;
 1/18=20/3(1);
 99//99;
 2/9=110/2;
 3/5=6,6=3,11=9,16=1,25=1,30=1/1,2,3;
 4/5=5,11=1,16=2/1;
 5/5=2,38=4/2;
 8/6=4,10=1/1;
 9/15=2,16=-3/6;
 10/5=1/2;
 7/12=2/1,2,3,16;
 1/18=20/3(-8);
 2/9=110/2;
 6/7=2,8=2,9=2,10=2/1;
 99//99;
 -------------------------------
 1H pyrazole C3H4N2 casno=288131
 -------------------------------
 Symbolic Z-matrix:
 Charge =  0 Multiplicity = 1
 H                    -1.9125    0.       -0.75938 
 C                    -1.08438   0.       -0.21875 
 H                     0.43438   0.       -1.63125 
 C                     0.15      0.       -0.68438 
 H                     1.9125    0.        0.37188 
 C                     0.92188   0.        0.375 
 N                     0.18125   0.        1.41875 
 H                    -1.74063   0.        1.63125 
 N                    -1.00313   0.        1.05313 

 GradGradGradGradGradGradGradGradGradGradGradGradGradGradGradGradGradGrad
 Berny optimization.
 Initialization pass.
                         ----------------------------
                         !    Initial Parameters    !
                         ! (Angstroms and Degrees)  !
 ------------------------                            -------------------------
 ! Name  Definition              Value          Derivative Info.             !
 -----------------------------------------------------------------------------
 ! R1    R(1,2)                  0.989          estimate D2E/DX2             !
 ! R2    R(2,4)                  1.3193         estimate D2E/DX2             !
 ! R3    R(2,9)                  1.2745         estimate D2E/DX2             !
 ! R4    R(3,4)                  0.9887         estimate D2E/DX2             !
 ! R5    R(4,6)                  1.3108         estimate D2E/DX2             !
 ! R6    R(5,6)                  0.9906         estimate D2E/DX2             !
 ! R7    R(6,7)                  1.2798         estimate D2E/DX2             !
 ! R8    R(7,9)                  1.2395         estimate D2E/DX2             !
 ! R9    R(8,9)                  0.9371         estimate D2E/DX2             !
 ! A1    A(1,2,4)              126.195          estimate D2E/DX2             !
 ! A2    A(1,2,9)              126.7929         estimate D2E/DX2             !
 ! A3    A(4,2,9)              107.012          estimate D2E/DX2             !
 ! A4    A(2,4,3)              127.3838         estimate D2E/DX2             !
 ! A5    A(2,4,6)              105.4104         estimate D2E/DX2             !
 ! A6    A(3,4,6)              127.2058         estimate D2E/DX2             !
 ! A7    A(4,6,5)              125.8968         estimate D2E/DX2             !
 ! A8    A(4,6,7)              108.5636         estimate D2E/DX2             !
 ! A9    A(5,6,7)              125.5395         estimate D2E/DX2             !
 ! A10   A(6,7,9)              108.203          estimate D2E/DX2             !
 ! A11   A(2,9,7)              110.811          estimate D2E/DX2             !
 ! A12   A(2,9,8)              124.4376         estimate D2E/DX2             !
 ! A13   A(7,9,8)              124.7513         estimate D2E/DX2             !
 ! D1    D(1,2,4,3)              0.             estimate D2E/DX2             !
 ! D2    D(1,2,4,6)            180.             estimate D2E/DX2             !
 ! D3    D(9,2,4,3)            180.             estimate D2E/DX2             !
 ! D4    D(9,2,4,6)              0.             estimate D2E/DX2             !
 ! D5    D(1,2,9,7)            180.             estimate D2E/DX2             !
 ! D6    D(1,2,9,8)              0.             estimate D2E/DX2             !
 ! D7    D(4,2,9,7)              0.             estimate D2E/DX2             !
 ! D8    D(4,2,9,8)            180.             estimate D2E/DX2             !
 ! D9    D(2,4,6,5)            180.             estimate D2E/DX2             !
 ! D10   D(2,4,6,7)              0.             estimate D2E/DX2             !
 ! D11   D(3,4,6,5)              0.             estimate D2E/DX2             !
 ! D12   D(3,4,6,7)            180.             estimate D2E/DX2             !
 ! D13   D(4,6,7,9)              0.             estimate D2E/DX2             !
 ! D14   D(5,6,7,9)            180.             estimate D2E/DX2             !
 ! D15   D(6,7,9,2)              0.             estimate D2E/DX2             !
 ! D16   D(6,7,9,8)            180.             estimate D2E/DX2             !
 -----------------------------------------------------------------------------
 Trust Radius=3.00D-01 FncErr=1.00D-07 GrdErr=1.00D-07
 Number of steps in this run=  48 maximum allowed number of steps= 100.
 GradGradGradGradGradGradGradGradGradGradGradGradGradGradGradGradGradGrad

                          Input orientation:                          
 ---------------------------------------------------------------------
 Center     Atomic     Atomic              Coordinates (Angstroms)
 Number     Number      Type              X           Y           Z
 ---------------------------------------------------------------------
    1          1             0       -1.912500     .000000    -.759375
    2          6             0       -1.084375     .000000    -.218750
    3          1             0         .434375     .000000   -1.631250
    4          6             0         .150000     .000000    -.684375
    5          1             0        1.912500     .000000     .371875
    6          6             0         .921875     .000000     .375000
    7          7             0         .181250     .000000    1.418750
    8          1             0       -1.740625     .000000    1.631250
    9          7             0       -1.003125     .000000    1.053125
 ---------------------------------------------------------------------
                    Distance matrix (angstroms):
                    1          2          3          4          5
     1  H     .000000
     2  C     .988972    .000000
     3  H    2.503595   2.074068    .000000
     4  C    2.063863   1.319276    .988656    .000000
     5  H    3.988778   3.054521   2.489450   2.054768    .000000
     6  C    3.052947   2.092266   2.064630   1.310750    .990630
     7  N    3.021261   2.069592   3.060486   2.103357   2.023159
     8  H    2.396796   1.962948   3.921037   2.989412   3.864110
     9  N    2.027836   1.274468   3.045041   2.085331   2.994156
                    6          7          8          9
     6  C     .000000
     7  N    1.279820    .000000
     8  H    2.943989   1.933587    .000000
     9  N    2.040950   1.239526    .937088    .000000
 Stoichiometry    C3H4N2
 Framework group  CS[SG(C3H4N2)]
 Deg. of freedom   15
 Full point group                 CS      NOp   2
 Largest Abelian subgroup         CS      NOp   2
 Largest concise Abelian subgroup C1      NOp   1
                         Standard orientation:                         
 ---------------------------------------------------------------------
 Center     Atomic     Atomic              Coordinates (Angstroms)
 Number     Number      Type              X           Y           Z
 ---------------------------------------------------------------------
    1          1             0        1.974407     .585689     .000000
    2          6             0        1.028833     .295936     .000000
    3          1             0        1.140941   -1.775099     .000000
    4          6             0         .595873    -.950271     .000000
    5          1             0       -1.344123   -1.627388     .000000
    6          6             0        -.712074    -.864589     .000000
    7          7             0       -1.039336     .372682     .000000
    8          1             0         .028336    1.984773     .000000
    9          7             0         .000000    1.048113     .000000
 ---------------------------------------------------------------------
 Rotational constants (GHZ):     11.1878032     10.4520048      5.4036973
 Isotopes: H-1,C-12,H-1,C-12,H-1,C-12,N-14,H-1,N-14
 Standard basis: LANL2DZ (5D, 7F)
 There are    43 symmetry adapted basis functions of A'  symmetry.
 There are    10 symmetry adapted basis functions of A"  symmetry.
 Crude estimate of integral set expansion from redundant integrals=1.000.
 Integral buffers will be    262144 words long.
 Raffenetti 1 integral format.
 Two-electron integral symmetry is turned on.
    53 basis functions      141 primitive gaussians
    18 alpha electrons       18 beta electrons
       nuclear repulsion energy       173.7391879471 Hartrees.
 One-electron integrals computed using PRISM.
   1 Symmetry operations used in ECPInt.
 ECPInt:  NShTT=     561 NPrTT=    4338 LenC2=     562 LenP2D=    3506.
 LDataN:  DoStor=F MaxTD1= 2 Len=   12
 LDataN:  DoStor=T MaxTD1= 2 Len=   12
 NBasis=    53 RedAO= T  NBF=    43    10
 NBsUse=    53 1.00D-04 NBFU=    43    10
 Projected Huckel Guess.
 Initial guess orbital symmetries:
       Occupied  (A') (A') (A') (A') (A') (A') (A') (A') (A') (A')
                 (A') (A") (A') (A') (A') (A') (A") (A")
       Virtual   (A") (A") (A') (A') (A') (A') (A') (A') (A') (A')
                 (A') (A') (A') (A') (A') (A') (A') (A') (A') (A')
                 (A') (A') (A') (A') (A') (A') (A') (A') (A') (A')
                 (A") (A") (A") (A") (A")
 Requested convergence on RMS density matrix=1.00D-08 within  64 cycles.
 Requested convergence on MAX density matrix=1.00D-06.
 Keep R1 integrals in memory in canonical form, NReq=     1438540.
 SCF Done:  E(RHF) =  -224.655143686     A.U. after   14 cycles
             Convg  =     .4476D-08             -V/T =  1.9903
             S**2   =    .0000
 Range of M.O.s used for correlation:     6    53
 NBasis=    53 NAE=    18 NBE=    18 NFC=     5 NFV=     0
 NROrb=     48 NOA=    13 NOB=    13 NVA=    35 NVB=    35
 Fully direct method using O(ONN) memory.
 JobTyp=1 Pass  1:  I=   6 to  18.
 Spin components of T(2) and E(2):
     alpha-alpha T2 =        .2179539548D-01 E2=      -.5412972138D-01
     alpha-beta  T2 =        .1229801614D+00 E2=      -.3164998039D+00
     beta-beta   T2 =        .2179539548D-01 E2=      -.5412972138D-01
 ANorm=     .1080079142D+01
 E2 =     -.4247592466D+00 EUMP2 =     -.22507990293278D+03
          Differentiating once with respect to electric field.
                with respect to dipole field.
          Differentiating once with respect to nuclear coordinates.
          Store integrals in memory, NReq=     1434943.
          There are   1 degrees of freedom in the 1st order CPHF.
   1 vectors were produced by pass  0.
 AX will form   1 AO Fock derivatives at one time.
   1 vectors were produced by pass  1.
   1 vectors were produced by pass  2.
   1 vectors were produced by pass  3.
   1 vectors were produced by pass  4.
   1 vectors were produced by pass  5.
   1 vectors were produced by pass  6.
   1 vectors were produced by pass  7.
   1 vectors were produced by pass  8.
   1 vectors were produced by pass  9.
   1 vectors were produced by pass 10.
   1 vectors were produced by pass 11.
   1 vectors were produced by pass 12.
 Inv2:  IOpt= 1 Iter= 1 AM= 3.61D-16 Conv= 1.00D-12.
 Inverted reduced A of dimension  13 with in-core refinement.

 **********************************************************************

            Population analysis using the SCF density.

 **********************************************************************

 Orbital Symmetries:
       Occupied  (A') (A') (A') (A') (A') (A') (A') (A') (A') (A')
                 (A') (A") (A') (A') (A') (A') (A") (A")
       Virtual   (A") (A') (A") (A') (A') (A') (A') (A') (A') (A")
                 (A') (A") (A') (A') (A") (A') (A') (A') (A') (A")
                 (A') (A") (A') (A') (A') (A') (A') (A') (A') (A')
                 (A') (A') (A') (A') (A')
  The electronic state is 1-A'.
 Alpha  occ. eigenvalues --  -15.64094 -15.57593 -11.25535 -11.23067 -11.19991
 Alpha  occ. eigenvalues --   -1.48866  -1.14968  -1.10312   -.87960   -.84512
 Alpha  occ. eigenvalues --    -.78358   -.66584   -.66567   -.61651   -.57994
 Alpha  occ. eigenvalues --    -.43830   -.39010   -.35339
 Alpha virt. eigenvalues --     .18277    .22543    .23895    .27869    .29096
 Alpha virt. eigenvalues --     .33117    .34916    .41515    .42751    .46674
 Alpha virt. eigenvalues --     .50611    .53199    .56778    .58344    .61804
 Alpha virt. eigenvalues --     .62143    .63494    .71941    .75272    .75395
 Alpha virt. eigenvalues --     .84713    .85026    .97265    .99683   1.08708
 Alpha virt. eigenvalues --    1.11291   1.15553   1.22516   1.30106   1.40938
 Alpha virt. eigenvalues --    1.54609   1.56865   1.62423   1.84020   1.90827
          Condensed to atoms (all electrons):
              1          2          3          4          5          6
  1  H     .396675    .361584   -.000660   -.015363   -.000024    .005669
  2  C     .361584   5.329434   -.028681    .627287    .004802   -.147456
  3  H    -.000660   -.028681    .401629    .376126   -.000384   -.016085
  4  C    -.015363    .627287    .376126   5.096162   -.037540    .503421
  5  H    -.000024    .004802   -.000384   -.037540    .402758    .382035
  6  C     .005669   -.147456   -.016085    .503421    .382035   5.108473
  7  N     .003499   -.202347    .006434   -.088500   -.022610    .680684
  8  H     .002190   -.079541    .000091    .006732    .000020    .002068
  9  N    -.019953    .361964    .007342   -.142342    .007807   -.246945
              7          8          9
  1  H     .003499    .002190   -.019953
  2  C    -.202347   -.079541    .361964
  3  H     .006434    .000091    .007342
  4  C    -.088500    .006732   -.142342
  5  H    -.022610    .000020    .007807
  6  C     .680684    .002068   -.246945
  7  N    6.495913   -.042491    .277046
  8  H    -.042491    .397030    .322250
  9  N     .277046    .322250   6.675666
 Total atomic charges:
              1
  1  H     .266383
  2  C    -.227046
  3  H     .254188
  4  C    -.325982
  5  H     .263136
  6  C    -.271865
  7  N    -.107628
  8  H     .391650
  9  N    -.242837
 Sum of Mulliken charges=    .00000
 Atomic charges with hydrogens summed into heavy atoms:
              1
  1  H     .000000
  2  C     .039337
  3  H     .000000
  4  C    -.071794
  5  H     .000000
  6  C    -.008729
  7  N    -.107628
  8  H     .000000
  9  N     .148814
 Sum of Mulliken charges=    .00000
 Electronic spatial extent (au):  <R**2>=   260.4931
 Charge=      .0000 electrons
 Dipole moment (Debye):
    X=     2.5078    Y=      .9129    Z=      .0000  Tot=     2.6688
 Quadrupole moment (Debye-Ang):
   XX=   -31.0102   YY=   -22.2295   ZZ=   -31.6835
   XY=     3.0161   XZ=      .0000   YZ=      .0000
 Octapole moment (Debye-Ang**2):
  XXX=    10.3776  YYY=    10.9298  ZZZ=      .0000  XYY=      .7329
  XXY=    -2.7976  XXZ=      .0000  XZZ=     -.8850  YZZ=     2.2500
  YYZ=      .0000  XYZ=      .0000
 Hexadecapole moment (Debye-Ang**3):
 XXXX=  -153.9249 YYYY=  -118.8754 ZZZZ=   -34.0345 XXXY=     8.7989
 XXXZ=      .0000 YYYX=      .4419 YYYZ=      .0000 ZZZX=      .0000
 ZZZY=      .0000 XXYY=   -46.8061 XXZZ=   -34.4744 YYZZ=   -33.9650
 XXYZ=      .0000 YYXZ=      .0000 ZZXY=     -.0243
 N-N= 1.737391879471D+02 E-N=-8.739280707000D+02  KE= 2.268640659213D+02
 Symmetry A'   KE= 2.187595184121D+02
 Symmetry A"   KE= 8.104547509204D+00
   2 Symmetry operations used in ECPInt.
 ECPInt:  NShTT=     561 NPrTT=    4338 LenC2=     562 LenP2D=    3506.
 LDataN:  DoStor=F MaxTD1= 3 Len=   28
 LDataN:  DoStor=T MaxTD1= 3 Len=   28
 ***** Axes restored to original set *****
 -------------------------------------------------------------------
 Center     Atomic                   Forces (Hartrees/Bohr)
 Number     Number              X              Y              Z
 -------------------------------------------------------------------
    1          1           -.079478730     .000000000    -.040920660
    2          6           -.055979028     .000000000    -.084851409
    3          1            .023100801     .000000000    -.086248157
    4          6           -.001354242     .000000000    -.079479472
    5          1            .086467871     .000000000     .012154105
    6          6            .060010895     .000000000     .008176560
    7          7            .117958204     .000000000     .195637000
    8          1           -.059947596     .000000000     .063584710
    9          7           -.090778175     .000000000     .011947324
 -------------------------------------------------------------------
 Cartesian Forces:  Max      .195637000 RMS      .064439662

 GradGradGradGradGradGradGradGradGradGradGradGradGradGradGradGradGradGrad
 Berny optimization.
 Internal  Forces:  Max      .183015692 RMS      .062655203
 Search for a local minimum.
 Step number   1 out of a maximum of  48
 All quantities printed in internal units (Hartrees-Bohrs-Radians)
 Second derivative matrix not updated -- first step.
     Eigenvalues ---     .03204    .03245    .03263    .03273    .03342
     Eigenvalues ---     .03375    .16000    .16000    .16000    .16000
     Eigenvalues ---     .22000    .22938    .49374    .49681    .49740
     Eigenvalues ---     .56490    .56686    .60708    .68179    .73042
     Eigenvalues ---     .827791000.000001000.000001000.000001000.00000
     Eigenvalues --- 1000.000001000.000001000.000001000.000001000.00000
     Eigenvalues --- 1000.000001000.000001000.000001000.000001000.00000
     Eigenvalues --- 1000.000001000.000001000.00000
 RFO step:  Lambda=-1.77629180D-01.
 Linear search not attempted -- first point.
 Maximum step size (    .300) exceeded in Quadratic search.
    -- Step size scaled by    .639
 Iteration  1 RMS(Cart)=   .06411493 RMS(Int)=   .00055178
 Iteration  2 RMS(Cart)=   .00065938 RMS(Int)=   .00001970
 Iteration  3 RMS(Cart)=   .00000030 RMS(Int)=   .00001969
 Variable       Old X    -DE/DX   Delta X   Delta X   Delta X     New X
                                 (Linear)    (Quad)   (Total)
    R1        1.86889    .08892    .00000    .08426    .08426   1.95315
    R2        2.49307    .12159    .00000    .09443    .09439   2.58746
    R3        2.40839    .15536    .00000    .10911    .10909   2.51749
    R4        1.86829    .08925    .00000    .08450    .08450   1.95279
    R5        2.47696    .16793    .00000    .12712    .12712   2.60408
    R6        1.87202    .08643    .00000    .08227    .08227   1.95429
    R7        2.41851    .12349    .00000    .08739    .08742   2.50593
    R8        2.34237    .18302    .00000    .11458    .11460   2.45697
    R9        1.77084    .08641    .00000    .07037    .07037   1.84121
    A1        2.20252    .01350    .00000    .02543    .02546   2.22798
    A2        2.21295   -.00366    .00000   -.00705   -.00703   2.20593
    A3        1.86771   -.00984    .00000   -.01838   -.01843   1.84928
    A4        2.22327   -.00637    .00000   -.00447   -.00444   2.21882
    A5        1.83976    .00774    .00000   -.00056   -.00060   1.83916
    A6        2.22016   -.00136    .00000    .00503    .00505   2.22521
    A7        2.19731    .00312    .00000    .01163    .01162   2.20894
    A8        1.89479    .01703    .00000    .02077    .02079   1.91558
    A9        2.19108   -.02015    .00000   -.03240   -.03241   2.15867
   A10        1.88850   -.02896    .00000   -.03358   -.03351   1.85499
   A11        1.93402    .01403    .00000    .03175    .03175   1.96577
   A12        2.17185    .00455    .00000    .00601    .00601   2.17786
   A13        2.17732   -.01858    .00000   -.03776   -.03776   2.13956
    D1         .00000    .00000    .00000    .00000    .00000    .00000
    D2        3.14159    .00000    .00000    .00000    .00000   3.14159
    D3        3.14159    .00000    .00000    .00000    .00000   3.14159
    D4         .00000    .00000    .00000    .00000    .00000    .00000
    D5        3.14159    .00000    .00000    .00000    .00000   3.14159
    D6         .00000    .00000    .00000    .00000    .00000    .00000
    D7         .00000    .00000    .00000    .00000    .00000    .00000
    D8        3.14159    .00000    .00000    .00000    .00000   3.14159
    D9        3.14159    .00000    .00000    .00000    .00000   3.14159
   D10         .00000    .00000    .00000    .00000    .00000    .00000
   D11         .00000    .00000    .00000    .00000    .00000    .00000
   D12        3.14159    .00000    .00000    .00000    .00000   3.14159
   D13         .00000    .00000    .00000    .00000    .00000    .00000
   D14        3.14159    .00000    .00000    .00000    .00000   3.14159
   D15         .00000    .00000    .00000    .00000    .00000    .00000
   D16        3.14159    .00000    .00000    .00000    .00000   3.14159
         Item               Value     Threshold  Converged?
 Maximum Force             .183016      .000450     NO 
 RMS     Force             .062655      .000300     NO 
 Maximum Displacement      .167657      .001800     NO 
 RMS     Displacement      .064062      .001200     NO 
 Predicted change in Energy=-2.828350D-02
 GradGradGradGradGradGradGradGradGradGradGradGradGradGradGradGradGradGrad

                          Input orientation:                          
 ---------------------------------------------------------------------
 Center     Atomic     Atomic              Coordinates (Angstroms)
 Number     Number      Type              X           Y           Z
 ---------------------------------------------------------------------
    1          1             0       -1.803043     .000000   -1.181720
    2          6             0        -.926778     .000000    -.633624
    3          1             0         .656053     .000000   -2.098345
    4          6             0         .357231     .000000   -1.109123
    5          1             0        2.195346     .000000     .025622
    6          6             0        1.161296     .000000     .009990
    7          7             0         .409270     .000000    1.102210
    8          1             0       -1.581014     .000000    1.309811
    9          7             0        -.825391     .000000     .694710
 ---------------------------------------------------------------------
                    Distance matrix (angstroms):
                    1          2          3          4          5
     1  H     .000000
     2  C    1.033562    .000000
     3  H    2.624377   2.156562    .000000
     4  C    2.161494   1.369225   1.033371    .000000
     5  H    4.176696   3.190965   2.623101   2.160165    .000000
     6  C    3.194915   2.185015   2.168028   1.378018   1.034168
     7  N    3.179727   2.190466   3.210055   2.211944   2.085451
     8  H    2.501405   2.050601   4.076763   3.099683   3.988738
     9  N    2.115843   1.332197   3.161618   2.156944   3.093950
                    6          7          8          9
     6  C     .000000
     7  N    1.326080    .000000
     8  H    3.034765   2.001082    .000000
     9  N    2.101373   1.300171    .974328    .000000
 Stoichiometry    C3H4N2
 Framework group  CS[SG(C3H4N2)]
 Deg. of freedom   15
 Full point group                 CS      NOp   2
 Largest Abelian subgroup         CS      NOp   2
 Largest concise Abelian subgroup C1      NOp   1
                         Standard orientation:                         
 ---------------------------------------------------------------------
 Center     Atomic     Atomic              Coordinates (Angstroms)
 Number     Number      Type              X           Y           Z
 ---------------------------------------------------------------------
    1          1             0        2.068075     .629792     .000000
    2          6             0        1.086537     .306013     .000000
    3          1             0        1.201747   -1.847470     .000000
    4          6             0         .631791    -.985492     .000000
    5          1             0       -1.415628   -1.674247     .000000
    6          6             0        -.742834    -.888850     .000000
    7          7             0       -1.102411     .387548     .000000
    8          1             0         .009718    2.051128     .000000
    9          7             0         .000000    1.076848     .000000
 ---------------------------------------------------------------------
 Rotational constants (GHZ):     10.0411911      9.8140987      4.9631731
 Isotopes: H-1,C-12,H-1,C-12,H-1,C-12,N-14,H-1,N-14
 Standard basis: LANL2DZ (5D, 7F)
 There are    43 symmetry adapted basis functions of A'  symmetry.
 There are    10 symmetry adapted basis functions of A"  symmetry.
 Crude estimate of integral set expansion from redundant integrals=1.000.
 Integral buffers will be    262144 words long.
 Raffenetti 1 integral format.
 Two-electron integral symmetry is turned on.
    53 basis functions      141 primitive gaussians
    18 alpha electrons       18 beta electrons
       nuclear repulsion energy       166.4880445520 Hartrees.
 One-electron integrals computed using PRISM.
   1 Symmetry operations used in ECPInt.
 ECPInt:  NShTT=     561 NPrTT=    4338 LenC2=     562 LenP2D=    3465.
 LDataN:  DoStor=F MaxTD1= 2 Len=   12
 LDataN:  DoStor=T MaxTD1= 2 Len=   12
 NBasis=    53 RedAO= T  NBF=    43    10
 NBsUse=    53 1.00D-04 NBFU=    43    10
 Initial guess read from the read-write file:
 Initial guess orbital symmetries:
       Occupied  (A') (A') (A') (A') (A') (A') (A') (A') (A') (A')
                 (A') (A") (A') (A') (A') (A') (A") (A")
       Virtual   (A") (A') (A") (A') (A') (A') (A') (A') (A') (A")
                 (A') (A") (A') (A') (A") (A') (A') (A') (A') (A")
                 (A') (A") (A') (A') (A') (A') (A') (A') (A') (A')
                 (A') (A') (A') (A') (A')
 Requested convergence on RMS density matrix=1.00D-08 within  64 cycles.
 Requested convergence on MAX density matrix=1.00D-06.
 Keep R1 integrals in memory in canonical form, NReq=     1438540.
 SCF Done:  E(RHF) =  -224.711752041     A.U. after   14 cycles
             Convg  =     .2061D-08             -V/T =  1.9960
             S**2   =    .0000
 Range of M.O.s used for correlation:     6    53
 NBasis=    53 NAE=    18 NBE=    18 NFC=     5 NFV=     0
 NROrb=     48 NOA=    13 NOB=    13 NVA=    35 NVB=    35
 Fully direct method using O(ONN) memory.
 JobTyp=1 Pass  1:  I=   6 to  18.
 Spin components of T(2) and E(2):
     alpha-alpha T2 =        .2420920034D-01 E2=      -.5719945836D-01
     alpha-beta  T2 =        .1373449713D+00 E2=      -.3349261724D+00
     beta-beta   T2 =        .2420920034D-01 E2=      -.5719945836D-01
 ANorm=     .1088927625D+01
 E2 =     -.4493250891D+00 EUMP2 =     -.22516107713011D+03
          Differentiating once with respect to electric field.
                with respect to dipole field.
          Differentiating once with respect to nuclear coordinates.
          Store integrals in memory, NReq=     1434943.
          There are   1 degrees of freedom in the 1st order CPHF.
   1 vectors were produced by pass  0.
 AX will form   1 AO Fock derivatives at one time.
   1 vectors were produced by pass  1.
   1 vectors were produced by pass  2.
   1 vectors were produced by pass  3.
   1 vectors were produced by pass  4.
   1 vectors were produced by pass  5.
   1 vectors were produced by pass  6.
   1 vectors were produced by pass  7.
   1 vectors were produced by pass  8.
   1 vectors were produced by pass  9.
   1 vectors were produced by pass 10.
   1 vectors were produced by pass 11.
   1 vectors were produced by pass 12.
   1 vectors were produced by pass 13.
 Inv2:  IOpt= 1 Iter= 1 AM= 6.29D-16 Conv= 1.00D-12.
 Inverted reduced A of dimension  14 with in-core refinement.
   2 Symmetry operations used in ECPInt.
 ECPInt:  NShTT=     561 NPrTT=    4338 LenC2=     562 LenP2D=    3465.
 LDataN:  DoStor=F MaxTD1= 3 Len=   28
 LDataN:  DoStor=T MaxTD1= 3 Len=   28
 ***** Axes restored to original set *****
 -------------------------------------------------------------------
 Center     Atomic                   Forces (Hartrees/Bohr)
 Number     Number              X              Y              Z
 -------------------------------------------------------------------
    1          1           -.039406376     .000000000    -.015534146
    2          6           -.015104732     .000000000    -.040223093
    3          1            .011357595     .000000000    -.041109440
    4          6            .001269420     .000000000    -.026791421
    5          1            .040956911     .000000000     .008907024
    6          6            .021174465     .000000000    -.010576932
    7          7            .060015767     .000000000     .096185552
    8          1           -.024791793     .000000000     .031800374
    9          7           -.055471256     .000000000    -.002657917
 -------------------------------------------------------------------
 Cartesian Forces:  Max      .096185552 RMS      .031066954

 GradGradGradGradGradGradGradGradGradGradGradGradGradGradGradGradGradGrad
 Berny optimization.
 Internal  Forces:  Max      .089983510 RMS      .028761351
 Search for a local minimum.
 Step number   2 out of a maximum of  48
 All quantities printed in internal units (Hartrees-Bohrs-Radians)
 Update second derivatives using information from points  1  2
 Trust test= 2.87D+00 RLast= 3.00D-01 DXMaxT set to 4.24D-01
     Eigenvalues ---     .03204    .03246    .03261    .03273    .03342
     Eigenvalues ---     .03375    .15943    .16000    .16000    .16014
     Eigenvalues ---     .22035    .23243    .49452    .49710    .50438
     Eigenvalues ---     .57278    .58656    .61497    .68123    .75956
     Eigenvalues ---     .812611000.000001000.000001000.000001000.00000
     Eigenvalues --- 1000.000001000.000001000.000001000.000001000.00000
     Eigenvalues --- 1000.000001000.000001000.000001000.000001000.00000
     Eigenvalues --- 1000.000001000.000001000.00000
 RFO step:  Lambda=-5.01943641D-03.
 Quartic linear search produced a step of  1.21583.
 Iteration  1 RMS(Cart)=   .08585705 RMS(Int)=   .00249735
 Iteration  2 RMS(Cart)=   .00315195 RMS(Int)=   .00019346
 Iteration  3 RMS(Cart)=   .00000860 RMS(Int)=   .00019330
 Iteration  4 RMS(Cart)=   .00000000 RMS(Int)=   .00019330
 Variable       Old X    -DE/DX   Delta X   Delta X   Delta X     New X
                                 (Linear)    (Quad)   (Total)
    R1        1.95315    .04165    .10245    .01230    .11475   2.06790
    R2        2.58746    .05378    .11476   -.00781    .10663   2.69409
    R3        2.51749    .06790    .13264   -.01218    .12036   2.63785
    R4        1.95279    .04264    .10274    .01599    .11872   2.07151
    R5        2.60408    .06868    .15455   -.03016    .12432   2.72839
    R6        1.95429    .04109    .10003    .01492    .11495   2.06924
    R7        2.50593    .05968    .10629    .00759    .11414   2.62006
    R8        2.45697    .08998    .13934    .00980    .14938   2.60635
    R9        1.84121    .03930    .08556    .00082    .08639   1.92760
    A1        2.22798    .00840    .03095    .05759    .08877   2.31675
    A2        2.20593   -.00669   -.00854   -.06920   -.07751   2.12842
    A3        1.84928   -.00171   -.02241    .01161   -.01126   1.83802
    A4        2.21882   -.00324   -.00540    .00155   -.00363   2.21519
    A5        1.83916    .00449   -.00073   -.00756   -.00874   1.83041
    A6        2.22521   -.00125    .00614    .00601    .01237   2.23758
    A7        2.20894    .00362    .01413    .04889    .06296   2.27190
    A8        1.91558    .00896    .02528    .01684    .04224   1.95782
    A9        2.15867   -.01258   -.03941   -.06573   -.10520   2.05347
   A10        1.85499   -.01472   -.04074   -.01613   -.05617   1.79882
   A11        1.96577    .00298    .03860   -.00476    .03394   1.99971
   A12        2.17786    .00680    .00731    .06266    .06992   2.24777
   A13        2.13956   -.00979   -.04591   -.05790   -.10386   2.03570
    D1         .00000    .00000    .00000    .00000    .00000    .00000
    D2        3.14159    .00000    .00000    .00000    .00000   3.14159
    D3        3.14159    .00000    .00000    .00000    .00000   3.14159
    D4         .00000    .00000    .00000    .00000    .00000    .00000
    D5        3.14159    .00000    .00000    .00000    .00000   3.14159
    D6         .00000    .00000    .00000    .00000    .00000    .00000
    D7         .00000    .00000    .00000    .00000    .00000    .00000
    D8        3.14159    .00000    .00000    .00000    .00000   3.14159
    D9        3.14159    .00000    .00000    .00000    .00000   3.14159
   D10         .00000    .00000    .00000    .00000    .00000    .00000
   D11         .00000    .00000    .00000    .00000    .00000    .00000
   D12        3.14159    .00000    .00000    .00000    .00000   3.14159
   D13         .00000    .00000    .00000    .00000    .00000    .00000
   D14        3.14159    .00000    .00000    .00000    .00000   3.14159
   D15         .00000    .00000    .00000    .00000    .00000    .00000
   D16        3.14159    .00000    .00000    .00000    .00000   3.14159
         Item               Value     Threshold  Converged?
 Maximum Force             .089984      .000450     NO 
 RMS     Force             .028761      .000300     NO 
 Maximum Displacement      .251870      .001800     NO 
 RMS     Displacement      .085705      .001200     NO 
 Predicted change in Energy=-4.792618D-02
 GradGradGradGradGradGradGradGradGradGradGradGradGradGradGradGradGradGrad

                          Input orientation:                          
 ---------------------------------------------------------------------
 Center     Atomic     Atomic              Coordinates (Angstroms)
 Number     Number      Type              X           Y           Z
 ---------------------------------------------------------------------
    1          1             0       -1.939243     .000000   -1.202635
    2          6             0        -.968220     .000000    -.698081
    3          1             0         .695769     .000000   -2.228720
    4          6             0         .373118     .000000   -1.181083
    5          1             0        2.284566     .000000     .111040
    6          6             0        1.194597     .000000     .006241
    7          7             0         .436488     .000000    1.167100
    8          1             0       -1.601474     .000000    1.392833
    9          7             0        -.858878     .000000     .693520
 ---------------------------------------------------------------------
                    Distance matrix (angstroms):
                    1          2          3          4          5
     1  H     .000000
     2  C    1.094285    .000000
     3  H    2.827745   2.260910    .000000
     4  C    2.312462   1.425650   1.096197    .000000
     5  H    4.423382   3.351909   2.828207   2.307209    .000000
     6  C    3.358919   2.274609   2.289952   1.443803   1.094996
     7  N    3.355554   2.334974   3.405705   2.349038   2.128534
     8  H    2.617353   2.184704   4.288702   3.244080   4.091980
     9  N    2.182336   1.395890   3.310048   2.243201   3.196956
                    6          7          8          9
     6  C     .000000
     7  N    1.386479    .000000
     8  H    3.121001   2.050425    .000000
     9  N    2.165436   1.379221   1.020042    .000000
 Stoichiometry    C3H4N2
 Framework group  CS[SG(C3H4N2)]
 Deg. of freedom   15
 Full point group                 CS      NOp   2
 Largest Abelian subgroup         CS      NOp   2
 Largest concise Abelian subgroup C1      NOp   1
                         Standard orientation:                         
 ---------------------------------------------------------------------
 Center     Atomic     Atomic              Coordinates (Angstroms)
 Number     Number      Type              X           Y           Z
 ---------------------------------------------------------------------
    1          1             0        2.153453     .754226     .000000
    2          6             0        1.150219     .317213     .000000
    3          1             0        1.292368   -1.939224     .000000
    4          6             0         .681331   -1.029124     .000000
    5          1             0       -1.525809   -1.701244     .000000
    6          6             0        -.758357    -.920198     .000000
    7          7             0       -1.183304     .399553     .000000
    8          1             0        -.076048    2.125306     .000000
    9          7             0         .000000    1.108103     .000000
 ---------------------------------------------------------------------
 Rotational constants (GHZ):      9.1844533      8.8786358      4.5144779
 Isotopes: H-1,C-12,H-1,C-12,H-1,C-12,N-14,H-1,N-14
 Standard basis: LANL2DZ (5D, 7F)
 There are    43 symmetry adapted basis functions of A'  symmetry.
 There are    10 symmetry adapted basis functions of A"  symmetry.
 Crude estimate of integral set expansion from redundant integrals=1.000.
 Integral buffers will be    262144 words long.
 Raffenetti 1 integral format.
 Two-electron integral symmetry is turned on.
    53 basis functions      141 primitive gaussians
    18 alpha electrons       18 beta electrons
       nuclear repulsion energy       158.7097114353 Hartrees.
 One-electron integrals computed using PRISM.
   1 Symmetry operations used in ECPInt.
 ECPInt:  NShTT=     561 NPrTT=    4338 LenC2=     562 LenP2D=    3424.
 LDataN:  DoStor=F MaxTD1= 2 Len=   12
 LDataN:  DoStor=T MaxTD1= 2 Len=   12
 NBasis=    53 RedAO= T  NBF=    43    10
 NBsUse=    53 1.00D-04 NBFU=    43    10
 Initial guess read from the read-write file:
 Initial guess orbital symmetries:
       Occupied  (A') (A') (A') (A') (A') (A') (A') (A') (A') (A')
                 (A') (A') (A") (A') (A') (A') (A") (A")
       Virtual   (A") (A") (A') (A') (A') (A') (A') (A') (A') (A")
                 (A') (A") (A') (A') (A') (A") (A') (A') (A') (A")
                 (A') (A") (A') (A') (A') (A') (A') (A') (A') (A')
                 (A') (A') (A') (A') (A')
 Requested convergence on RMS density matrix=1.00D-08 within  64 cycles.
 Requested convergence on MAX density matrix=1.00D-06.
 Keep R1 integrals in memory in canonical form, NReq=     1438540.
 SCF Done:  E(RHF) =  -224.709407621     A.U. after   14 cycles
             Convg  =     .4787D-08             -V/T =  2.0014
             S**2   =    .0000
 Range of M.O.s used for correlation:     6    53
 NBasis=    53 NAE=    18 NBE=    18 NFC=     5 NFV=     0
 NROrb=     48 NOA=    13 NOB=    13 NVA=    35 NVB=    35
 Fully direct method using O(ONN) memory.
 JobTyp=1 Pass  1:  I=   6 to  18.
 Spin components of T(2) and E(2):
     alpha-alpha T2 =        .2756598871D-01 E2=      -.6129474213D-01
     alpha-beta  T2 =        .1570905308D+00 E2=      -.3587277153D+00
     beta-beta   T2 =        .2756598871D-01 E2=      -.6129474213D-01
 ANorm=     .1101009768D+01
 E2 =     -.4813171996D+00 EUMP2 =     -.22519072482023D+03
          Differentiating once with respect to electric field.
                with respect to dipole field.
          Differentiating once with respect to nuclear coordinates.
          Store integrals in memory, NReq=     1434943.
          There are   1 degrees of freedom in the 1st order CPHF.
   1 vectors were produced by pass  0.
 AX will form   1 AO Fock derivatives at one time.
   1 vectors were produced by pass  1.
   1 vectors were produced by pass  2.
   1 vectors were produced by pass  3.
   1 vectors were produced by pass  4.
   1 vectors were produced by pass  5.
   1 vectors were produced by pass  6.
   1 vectors were produced by pass  7.
   1 vectors were produced by pass  8.
   1 vectors were produced by pass  9.
   1 vectors were produced by pass 10.
   1 vectors were produced by pass 11.
   1 vectors were produced by pass 12.
   1 vectors were produced by pass 13.
 Inv2:  IOpt= 1 Iter= 1 AM= 3.44D-16 Conv= 1.00D-12.
 Inverted reduced A of dimension  14 with in-core refinement.
   2 Symmetry operations used in ECPInt.
 ECPInt:  NShTT=     561 NPrTT=    4338 LenC2=     562 LenP2D=    3424.
 LDataN:  DoStor=F MaxTD1= 3 Len=   28
 LDataN:  DoStor=T MaxTD1= 3 Len=   28
 ***** Axes restored to original set *****
 -------------------------------------------------------------------
 Center     Atomic                   Forces (Hartrees/Bohr)
 Number     Number              X              Y              Z
 -------------------------------------------------------------------
    1          1            .006047355     .000000000     .002569911
    2          6            .000956105     .000000000    -.003639333
    3          1           -.001662911     .000000000     .007073737
    4          6           -.002708601     .000000000     .000973821
    5          1           -.005960484     .000000000    -.002728684
    6          6            .012569627     .000000000    -.003544017
    7          7            .013126725     .000000000     .000436961
    8          1            .001084510     .000000000    -.005949850
    9          7           -.023452326     .000000000     .004807453
 -------------------------------------------------------------------
 Cartesian Forces:  Max      .023452326 RMS      .006423776

 GradGradGradGradGradGradGradGradGradGradGradGradGradGradGradGradGradGrad
 Berny optimization.
 Internal  Forces:  Max      .016831442 RMS      .004238525
 Search for a local minimum.
 Step number   3 out of a maximum of  48
 All quantities printed in internal units (Hartrees-Bohrs-Radians)
 Update second derivatives using information from points  2  3
 Trust test= 6.19D-01 RLast= 4.19D-01 DXMaxT set to 4.24D-01
     Eigenvalues ---     .03203    .03247    .03250    .03273    .03342
     Eigenvalues ---     .03372    .15604    .16000    .16003    .16039
     Eigenvalues ---     .22071    .23311    .46338    .49502    .49713
     Eigenvalues ---     .57772    .58210    .59216    .63605    .69330
     Eigenvalues ---     .805411000.000001000.000001000.000001000.00000
     Eigenvalues --- 1000.000001000.000001000.000001000.000001000.00000
     Eigenvalues --- 1000.000001000.000001000.000001000.000001000.00000
     Eigenvalues --- 1000.000001000.000001000.00000
 RFO step:  Lambda=-1.39247713D-03.
 Quartic linear search produced a step of  -.04853.
 Iteration  1 RMS(Cart)=   .01512833 RMS(Int)=   .00011700
 Iteration  2 RMS(Cart)=   .00013409 RMS(Int)=   .00001862
 Iteration  3 RMS(Cart)=   .00000001 RMS(Int)=   .00001862
 Variable       Old X    -DE/DX   Delta X   Delta X   Delta X     New X
                                 (Linear)    (Quad)   (Total)
    R1        2.06790   -.00655   -.00557   -.00695   -.01252   2.05538
    R2        2.69409   -.00321   -.00517   -.00128   -.00643   2.68766
    R3        2.63785   -.00157   -.00584    .00529   -.00053   2.63732
    R4        2.07151   -.00725   -.00576   -.00814   -.01390   2.05761
    R5        2.72839   -.00371   -.00603   -.00021   -.00626   2.72213
    R6        2.06924   -.00619   -.00558   -.00639   -.01197   2.05728
    R7        2.62006    .00308   -.00554    .01056    .00499   2.62505
    R8        2.60635    .01683   -.00725    .02791    .02066   2.62701
    R9        1.92760   -.00487   -.00419   -.00315   -.00734   1.92026
    A1        2.31675   -.00203   -.00431   -.00526   -.00959   2.30715
    A2        2.12842   -.00098    .00376   -.00277    .00097   2.12939
    A3        1.83802    .00300    .00055    .00802    .00863   1.84664
    A4        2.21519   -.00249    .00018   -.00438   -.00422   2.21098
    A5        1.83041    .00600    .00042    .01429    .01474   1.84515
    A6        2.23758   -.00351   -.00060   -.00991   -.01052   2.22706
    A7        2.27190   -.00034   -.00306   -.00237   -.00540   2.26650
    A8        1.95782   -.00376   -.00205   -.01747   -.01955   1.93826
    A9        2.05347    .00410    .00511    .01983    .02496   2.07842
   A10        1.79882    .00198    .00273    .01712    .01979   1.81861
   A11        1.99971   -.00722   -.00165   -.02198   -.02360   1.97611
   A12        2.24777    .00015   -.00339   -.00736   -.01077   2.23701
   A13        2.03570    .00707    .00504    .02934    .03437   2.07007
    D1         .00000    .00000    .00000    .00000    .00000    .00000
    D2        3.14159    .00000    .00000    .00000    .00000   3.14159
    D3        3.14159    .00000    .00000    .00000    .00000   3.14159
    D4         .00000    .00000    .00000    .00000    .00000    .00000
    D5        3.14159    .00000    .00000    .00000    .00000   3.14159
    D6         .00000    .00000    .00000    .00000    .00000    .00000
    D7         .00000    .00000    .00000    .00000    .00000    .00000
    D8        3.14159    .00000    .00000    .00000    .00000   3.14159
    D9        3.14159    .00000    .00000    .00000    .00000   3.14159
   D10         .00000    .00000    .00000    .00000    .00000    .00000
   D11         .00000    .00000    .00000    .00000    .00000    .00000
   D12        3.14159    .00000    .00000    .00000    .00000   3.14159
   D13         .00000    .00000    .00000    .00000    .00000    .00000
   D14        3.14159    .00000    .00000    .00000    .00000   3.14159
   D15         .00000    .00000    .00000    .00000    .00000    .00000
   D16        3.14159    .00000    .00000    .00000    .00000   3.14159
         Item               Value     Threshold  Converged?
 Maximum Force             .016831      .000450     NO 
 RMS     Force             .004239      .000300     NO 
 Maximum Displacement      .045106      .001800     NO 
 RMS     Displacement      .015095      .001200     NO 
 Predicted change in Energy=-7.744077D-04
 GradGradGradGradGradGradGradGradGradGradGradGradGradGradGradGradGradGrad

                          Input orientation:                          
 ---------------------------------------------------------------------
 Center     Atomic     Atomic              Coordinates (Angstroms)
 Number     Number      Type              X           Y           Z
 ---------------------------------------------------------------------
    1          1             0       -1.927871     .000000   -1.199122
    2          6             0        -.968404     .000000    -.686843
    3          1             0         .688277     .000000   -2.207979
    4          6             0         .370505     .000000   -1.166539
    5          1             0        2.290991     .000000     .091294
    6          6             0        1.205580     .000000     .007200
    7          7             0         .438569     .000000    1.165363
    8          1             0       -1.627561     .000000    1.386487
    9          7             0        -.873328     .000000     .705525
 ---------------------------------------------------------------------
                    Distance matrix (angstroms):
                    1          2          3          4          5
     1  H     .000000
     2  C    1.087661    .000000
     3  H    2.803930   2.249099    .000000
     4  C    2.298607   1.422247   1.088842    .000000
     5  H    4.411799   3.350993   2.802740   2.295737    .000000
     6  C    3.357637   2.282083   2.274779   1.440490   1.088664
     7  N    3.345269   2.325993   3.382572   2.332896   2.141283
     8  H    2.602990   2.175588   4.275896   3.241945   4.127054
     9  N    2.177095   1.395611   3.305619   2.247609   3.223383
                    6          7          8          9
     6  C     .000000
     7  N    1.389118    .000000
     8  H    3.151050   2.077929    .000000
     9  N    2.193061   1.390153   1.016157    .000000
 Stoichiometry    C3H4N2
 Framework group  CS[SG(C3H4N2)]
 Deg. of freedom   15
 Full point group                 CS      NOp   2
 Largest Abelian subgroup         CS      NOp   2
 Largest concise Abelian subgroup C1      NOp   1
                         Standard orientation:                         
 ---------------------------------------------------------------------
 Center     Atomic     Atomic              Coordinates (Angstroms)
 Number     Number      Type              X           Y           Z
 ---------------------------------------------------------------------
    1          1             0        2.145077     .749710     .000000
    2          6             0        1.144555     .323140     .000000
    3          1             0        1.291541   -1.921152     .000000
    4          6             0         .679189   -1.020818     .000000
    5          1             0       -1.504601   -1.728963     .000000
    6          6             0        -.758796    -.935891     .000000
    7          7             0       -1.180543     .387656     .000000
    8          1             0        -.057908    2.136221     .000000
    9          7             0         .000000    1.121716     .000000
 ---------------------------------------------------------------------
 Rotational constants (GHZ):      9.0507012      8.9803435      4.5076925
 Isotopes: H-1,C-12,H-1,C-12,H-1,C-12,N-14,H-1,N-14
 Standard basis: LANL2DZ (5D, 7F)
 There are    43 symmetry adapted basis functions of A'  symmetry.
 There are    10 symmetry adapted basis functions of A"  symmetry.
 Crude estimate of integral set expansion from redundant integrals=1.000.
 Integral buffers will be    262144 words long.
 Raffenetti 1 integral format.
 Two-electron integral symmetry is turned on.
    53 basis functions      141 primitive gaussians
    18 alpha electrons       18 beta electrons
       nuclear repulsion energy       158.5970412652 Hartrees.
 One-electron integrals computed using PRISM.
   1 Symmetry operations used in ECPInt.
 ECPInt:  NShTT=     561 NPrTT=    4338 LenC2=     562 LenP2D=    3419.
 LDataN:  DoStor=F MaxTD1= 2 Len=   12
 LDataN:  DoStor=T MaxTD1= 2 Len=   12
 NBasis=    53 RedAO= T  NBF=    43    10
 NBsUse=    53 1.00D-04 NBFU=    43    10
 Initial guess read from the read-write file:
 Initial guess orbital symmetries:
       Occupied  (A') (A') (A') (A') (A') (A') (A') (A') (A') (A')
                 (A') (A') (A") (A') (A') (A') (A") (A")
       Virtual   (A") (A") (A') (A') (A') (A') (A') (A') (A') (A")
                 (A') (A') (A") (A') (A') (A") (A') (A') (A') (A")
                 (A') (A') (A") (A') (A') (A') (A') (A') (A') (A')
                 (A') (A') (A') (A') (A')
 Requested convergence on RMS density matrix=1.00D-08 within  64 cycles.
 Requested convergence on MAX density matrix=1.00D-06.
 Keep R1 integrals in memory in canonical form, NReq=     1438540.
 SCF Done:  E(RHF) =  -224.710579362     A.U. after   12 cycles
             Convg  =     .7974D-08             -V/T =  2.0014
             S**2   =    .0000
 Range of M.O.s used for correlation:     6    53
 NBasis=    53 NAE=    18 NBE=    18 NFC=     5 NFV=     0
 NROrb=     48 NOA=    13 NOB=    13 NVA=    35 NVB=    35
 Fully direct method using O(ONN) memory.
 JobTyp=1 Pass  1:  I=   6 to  18.
 Spin components of T(2) and E(2):
     alpha-alpha T2 =        .2755990451D-01 E2=      -.6124075867D-01
     alpha-beta  T2 =        .1569692643D+00 E2=      -.3583756705D+00
     beta-beta   T2 =        .2755990451D-01 E2=      -.6124075867D-01
 ANorm=     .1100949169D+01
 E2 =     -.4808571879D+00 EUMP2 =     -.22519143654949D+03
          Differentiating once with respect to electric field.
                with respect to dipole field.
          Differentiating once with respect to nuclear coordinates.
          Store integrals in memory, NReq=     1434943.
          There are   1 degrees of freedom in the 1st order CPHF.
   1 vectors were produced by pass  0.
 AX will form   1 AO Fock derivatives at one time.
   1 vectors were produced by pass  1.
   1 vectors were produced by pass  2.
   1 vectors were produced by pass  3.
   1 vectors were produced by pass  4.
   1 vectors were produced by pass  5.
   1 vectors were produced by pass  6.
   1 vectors were produced by pass  7.
   1 vectors were produced by pass  8.
   1 vectors were produced by pass  9.
   1 vectors were produced by pass 10.
   1 vectors were produced by pass 11.
   1 vectors were produced by pass 12.
   1 vectors were produced by pass 13.
 Inv2:  IOpt= 1 Iter= 1 AM= 3.47D-16 Conv= 1.00D-12.
 Inverted reduced A of dimension  14 with in-core refinement.
   2 Symmetry operations used in ECPInt.
 ECPInt:  NShTT=     561 NPrTT=    4338 LenC2=     562 LenP2D=    3419.
 LDataN:  DoStor=F MaxTD1= 3 Len=   28
 LDataN:  DoStor=T MaxTD1= 3 Len=   28
 ***** Axes restored to original set *****
 -------------------------------------------------------------------
 Center     Atomic                   Forces (Hartrees/Bohr)
 Number     Number              X              Y              Z
 -------------------------------------------------------------------
    1          1            .001778895     .000000000     .000446509
    2          6            .002010191     .000000000    -.003106910
    3          1           -.000699244     .000000000     .001665727
    4          6           -.002528316     .000000000    -.000521166
    5          1           -.002332113     .000000000     .000106250
    6          6           -.003744878     .000000000    -.001579244
    7          7            .009658774     .000000000     .008341303
    8          1            .001871193     .000000000    -.000759820
    9          7           -.006014501     .000000000    -.004592648
 -------------------------------------------------------------------
 Cartesian Forces:  Max      .009658774 RMS      .003180775

 GradGradGradGradGradGradGradGradGradGradGradGradGradGradGradGradGradGrad
 Berny optimization.
 Internal  Forces:  Max      .007044738 RMS      .002109457
 Search for a local minimum.
 Step number   4 out of a maximum of  48
 All quantities printed in internal units (Hartrees-Bohrs-Radians)
 Update second derivatives using information from points  2  3  4
 Trust test= 9.19D-01 RLast= 6.98D-02 DXMaxT set to 4.24D-01
     Eigenvalues ---     .03203    .03246    .03250    .03273    .03342
     Eigenvalues ---     .03372    .14850    .15999    .16000    .16121
     Eigenvalues ---     .22084    .35884    .40737    .48557    .49564
     Eigenvalues ---     .49739    .58066    .59674    .61918    .70879
     Eigenvalues ---     .760991000.000001000.000001000.000001000.00000
     Eigenvalues --- 1000.000001000.000001000.000001000.000001000.00000
     Eigenvalues --- 1000.000001000.000001000.000001000.000001000.00000
     Eigenvalues --- 1000.000001000.000001000.00000
 RFO step:  Lambda=-3.87935236D-04.
 Quartic linear search produced a step of  -.04994.
 Iteration  1 RMS(Cart)=   .00596508 RMS(Int)=   .00002707
 Iteration  2 RMS(Cart)=   .00003450 RMS(Int)=   .00001128
 Iteration  3 RMS(Cart)=   .00000000 RMS(Int)=   .00001128
 Variable       Old X    -DE/DX   Delta X   Delta X   Delta X     New X
                                 (Linear)    (Quad)   (Total)
    R1        2.05538   -.00178    .00063   -.00648   -.00586   2.04953
    R2        2.68766   -.00545    .00032   -.01040   -.01009   2.67757
    R3        2.63732    .00065    .00003    .00199    .00200   2.63932
    R4        2.05761   -.00180    .00069   -.00692   -.00623   2.05139
    R5        2.72213   -.00028    .00031   -.00233   -.00201   2.72012
    R6        2.05728   -.00232    .00060   -.00736   -.00676   2.05052
    R7        2.62505   -.00034   -.00025    .00228    .00205   2.62710
    R8        2.62701    .00704   -.00103    .01631    .01529   2.64230
    R9        1.92026   -.00190    .00037   -.00464   -.00428   1.91598
    A1        2.30715   -.00033    .00048   -.00341   -.00292   2.30423
    A2        2.12939    .00058   -.00005    .00375    .00371   2.13310
    A3        1.84664   -.00025   -.00043   -.00033   -.00080   1.84585
    A4        2.21098   -.00040    .00021   -.00066   -.00045   2.21053
    A5        1.84515    .00041   -.00074    .00095    .00020   1.84535
    A6        2.22706   -.00002    .00053   -.00028    .00025   2.22731
    A7        2.26650   -.00178    .00027   -.00710   -.00684   2.25966
    A8        1.93826    .00415    .00098    .00965    .01064   1.94891
    A9        2.07842   -.00237   -.00125   -.00255   -.00381   2.07462
   A10        1.81861   -.00633   -.00099   -.01465   -.01560   1.80301
   A11        1.97611    .00201    .00118    .00439    .00555   1.98166
   A12        2.23701   -.00034    .00054   -.00462   -.00408   2.23293
   A13        2.07007   -.00167   -.00172    .00023   -.00148   2.06859
    D1         .00000    .00000    .00000    .00000    .00000    .00000
    D2        3.14159    .00000    .00000    .00000    .00000   3.14159
    D3        3.14159    .00000    .00000    .00000    .00000   3.14159
    D4         .00000    .00000    .00000    .00000    .00000    .00000
    D5        3.14159    .00000    .00000    .00000    .00000   3.14159
    D6         .00000    .00000    .00000    .00000    .00000    .00000
    D7         .00000    .00000    .00000    .00000    .00000    .00000
    D8        3.14159    .00000    .00000    .00000    .00000   3.14159
    D9        3.14159    .00000    .00000    .00000    .00000   3.14159
   D10         .00000    .00000    .00000    .00000    .00000    .00000
   D11         .00000    .00000    .00000    .00000    .00000    .00000
   D12        3.14159    .00000    .00000    .00000    .00000   3.14159
   D13         .00000    .00000    .00000    .00000    .00000    .00000
   D14        3.14159    .00000    .00000    .00000    .00000   3.14159
   D15         .00000    .00000    .00000    .00000    .00000    .00000
   D16        3.14159    .00000    .00000    .00000    .00000   3.14159
         Item               Value     Threshold  Converged?
 Maximum Force             .007045      .000450     NO 
 RMS     Force             .002109      .000300     NO 
 Maximum Displacement      .018051      .001800     NO 
 RMS     Displacement      .005967      .001200     NO 
 Predicted change in Energy=-1.958197D-04
 GradGradGradGradGradGradGradGradGradGradGradGradGradGradGradGradGradGrad

                          Input orientation:                          
 ---------------------------------------------------------------------
 Center     Atomic     Atomic              Coordinates (Angstroms)
 Number     Number      Type              X           Y           Z
 ---------------------------------------------------------------------
    1          1             0       -1.922202     .000000   -1.205170
    2          6             0        -.967365     .000000    -.690816
    3          1             0         .684046     .000000   -2.205853
    4          6             0         .366890     .000000   -1.167669
    5          1             0        2.283012     .000000     .082738
    6          6             0        1.200664     .000000     .005689
    7          7             0         .444755     .000000    1.172421
    8          1             0       -1.627499     .000000    1.378989
    9          7             0        -.872194     .000000     .702606
 ---------------------------------------------------------------------
                    Distance matrix (angstroms):
                    1          2          3          4          5
     1  H     .000000
     2  C    1.084562    .000000
     3  H    2.791755   2.241092    .000000
     4  C    2.289399   1.416907   1.085547    .000000
     5  H    4.398015   3.341158   2.791835   2.288022    .000000
     6  C    3.349399   2.277162   2.271081   1.439427   1.085087
     7  N    3.354911   2.337891   3.386737   2.341385   2.136959
     8  H    2.600909   2.172526   4.265481   3.234665   4.119753
     9  N    2.177642   1.396668   3.298638   2.243492   3.215519
                    6          7          8          9
     6  C     .000000
     7  N    1.390202    .000000
     8  H    3.143956   2.082525    .000000
     9  N    2.186878   1.398243   1.013894    .000000
 Stoichiometry    C3H4N2
 Framework group  CS[SG(C3H4N2)]
 Deg. of freedom   15
 Full point group                 CS      NOp   2
 Largest Abelian subgroup         CS      NOp   2
 Largest concise Abelian subgroup C1      NOp   1
                         Standard orientation:                         
 ---------------------------------------------------------------------
 Center     Atomic     Atomic              Coordinates (Angstroms)
 Number     Number      Type              X           Y           Z
 ---------------------------------------------------------------------
    1          1             0        2.144974     .743751     .000000
    2          6             0        1.146074     .321288     .000000
    3          1             0        1.293403   -1.914956     .000000
    4          6             0         .682484   -1.017632     .000000
    5          1             0       -1.492217   -1.728774     .000000
    6          6             0        -.754458    -.933082     .000000
    7          7             0       -1.190897     .386835     .000000
    8          1             0        -.054481    2.131961     .000000
    9          7             0         .000000    1.119533     .000000
 ---------------------------------------------------------------------
 Rotational constants (GHZ):      9.1043736      8.9215508      4.5060175
 Isotopes: H-1,C-12,H-1,C-12,H-1,C-12,N-14,H-1,N-14
 Standard basis: LANL2DZ (5D, 7F)
 There are    43 symmetry adapted basis functions of A'  symmetry.
 There are    10 symmetry adapted basis functions of A"  symmetry.
 Crude estimate of integral set expansion from redundant integrals=1.000.
 Integral buffers will be    262144 words long.
 Raffenetti 1 integral format.
 Two-electron integral symmetry is turned on.
    53 basis functions      141 primitive gaussians
    18 alpha electrons       18 beta electrons
       nuclear repulsion energy       158.5730725540 Hartrees.
 One-electron integrals computed using PRISM.
   1 Symmetry operations used in ECPInt.
 ECPInt:  NShTT=     561 NPrTT=    4338 LenC2=     562 LenP2D=    3419.
 LDataN:  DoStor=F MaxTD1= 2 Len=   12
 LDataN:  DoStor=T MaxTD1= 2 Len=   12
 NBasis=    53 RedAO= T  NBF=    43    10
 NBsUse=    53 1.00D-04 NBFU=    43    10
 Initial guess read from the read-write file:
 Initial guess orbital symmetries:
       Occupied  (A') (A') (A') (A') (A') (A') (A') (A') (A') (A')
                 (A') (A') (A") (A') (A') (A') (A") (A")
       Virtual   (A") (A") (A') (A') (A') (A') (A') (A') (A') (A")
                 (A') (A') (A") (A') (A') (A") (A') (A') (A') (A")
                 (A') (A') (A") (A') (A') (A') (A') (A') (A') (A')
                 (A') (A') (A') (A') (A')
 Requested convergence on RMS density matrix=1.00D-08 within  64 cycles.
 Requested convergence on MAX density matrix=1.00D-06.
 Keep R1 integrals in memory in canonical form, NReq=     1438540.
 SCF Done:  E(RHF) =  -224.710691800     A.U. after   13 cycles
             Convg  =     .3805D-08             -V/T =  2.0014
             S**2   =    .0000
 Range of M.O.s used for correlation:     6    53
 NBasis=    53 NAE=    18 NBE=    18 NFC=     5 NFV=     0
 NROrb=     48 NOA=    13 NOB=    13 NVA=    35 NVB=    35
 Fully direct method using O(ONN) memory.
 JobTyp=1 Pass  1:  I=   6 to  18.
 Spin components of T(2) and E(2):
     alpha-alpha T2 =        .2758455306D-01 E2=      -.6126623363D-01
     alpha-beta  T2 =        .1570382674D+00 E2=      -.3584313161D+00
     beta-beta   T2 =        .2758455306D-01 E2=      -.6126623363D-01
 ANorm=     .1101002894D+01
 E2 =     -.4809637834D+00 EUMP2 =     -.22519165558320D+03
          Differentiating once with respect to electric field.
                with respect to dipole field.
          Differentiating once with respect to nuclear coordinates.
          Store integrals in memory, NReq=     1434943.
          There are   1 degrees of freedom in the 1st order CPHF.
   1 vectors were produced by pass  0.
 AX will form   1 AO Fock derivatives at one time.
   1 vectors were produced by pass  1.
   1 vectors were produced by pass  2.
   1 vectors were produced by pass  3.
   1 vectors were produced by pass  4.
   1 vectors were produced by pass  5.
   1 vectors were produced by pass  6.
   1 vectors were produced by pass  7.
   1 vectors were produced by pass  8.
   1 vectors were produced by pass  9.
   1 vectors were produced by pass 10.
   1 vectors were produced by pass 11.
   1 vectors were produced by pass 12.
   1 vectors were produced by pass 13.
 Inv2:  IOpt= 1 Iter= 1 AM= 3.51D-16 Conv= 1.00D-12.
 Inverted reduced A of dimension  14 with in-core refinement.
   2 Symmetry operations used in ECPInt.
 ECPInt:  NShTT=     561 NPrTT=    4338 LenC2=     562 LenP2D=    3419.
 LDataN:  DoStor=F MaxTD1= 3 Len=   28
 LDataN:  DoStor=T MaxTD1= 3 Len=   28
 ***** Axes restored to original set *****
 -------------------------------------------------------------------
 Center     Atomic                   Forces (Hartrees/Bohr)
 Number     Number              X              Y              Z
 -------------------------------------------------------------------
    1          1           -.000451000     .000000000    -.000007666
    2          6            .002016499     .000000000     .000901313
    3          1            .000310809     .000000000    -.000394711
    4          6           -.000323339     .000000000     .000692734
    5          1            .000493325     .000000000     .000299080
    6          6           -.001703725     .000000000    -.000679052
    7          7            .003622486     .000000000     .001146853
    8          1            .000330204     .000000000     .000866743
    9          7           -.004295259     .000000000    -.002825294
 -------------------------------------------------------------------
 Cartesian Forces:  Max      .004295259 RMS      .001379010

 GradGradGradGradGradGradGradGradGradGradGradGradGradGradGradGradGradGrad
 Berny optimization.
 Internal  Forces:  Max      .003045726 RMS      .000631217
 Search for a local minimum.
 Step number   5 out of a maximum of  48
 All quantities printed in internal units (Hartrees-Bohrs-Radians)
 Update second derivatives using information from points  2  3  4  5
 Trust test= 1.12D+00 RLast= 3.12D-02 DXMaxT set to 4.24D-01
     Eigenvalues ---     .03203    .03247    .03251    .03273    .03342
     Eigenvalues ---     .03372    .15583    .15999    .16030    .16693
     Eigenvalues ---     .21596    .34106    .35848    .47655    .49561
     Eigenvalues ---     .49719    .58238    .60072    .62462    .70656
     Eigenvalues ---     .760011000.000001000.000001000.000001000.00000
     Eigenvalues --- 1000.000001000.000001000.000001000.000001000.00000
     Eigenvalues --- 1000.000001000.000001000.000001000.000001000.00000
     Eigenvalues --- 1000.000001000.000001000.00000
 RFO step:  Lambda=-3.86080809D-05.
 Quartic linear search produced a step of   .13441.
 Iteration  1 RMS(Cart)=   .00145633 RMS(Int)=   .00000319
 Iteration  2 RMS(Cart)=   .00000338 RMS(Int)=   .00000144
 Iteration  3 RMS(Cart)=   .00000000 RMS(Int)=   .00000144
 Variable       Old X    -DE/DX   Delta X   Delta X   Delta X     New X
                                 (Linear)    (Quad)   (Total)
    R1        2.04953    .00040   -.00079    .00098    .00019   2.04971
    R2        2.67757   -.00035   -.00136   -.00056   -.00192   2.67564
    R3        2.63932   -.00085    .00027   -.00059   -.00032   2.63900
    R4        2.05139    .00047   -.00084    .00108    .00025   2.05163
    R5        2.72012   -.00057   -.00027   -.00103   -.00130   2.71882
    R6        2.05052    .00051   -.00091    .00129    .00039   2.05090
    R7        2.62710   -.00047    .00028    .00015    .00043   2.62753
    R8        2.64230    .00305    .00205    .00595    .00801   2.65030
    R9        1.91598    .00033   -.00057    .00077    .00019   1.91618
    A1        2.30423   -.00008   -.00039    .00029   -.00010   2.30413
    A2        2.13310   -.00050    .00050   -.00319   -.00269   2.13041
    A3        1.84585    .00058   -.00011    .00291    .00280   1.84864
    A4        2.21053    .00013   -.00006    .00181    .00175   2.21228
    A5        1.84535    .00011    .00003   -.00068   -.00065   1.84469
    A6        2.22731   -.00024    .00003   -.00113   -.00110   2.22621
    A7        2.25966   -.00002   -.00092    .00106    .00014   2.25980
    A8        1.94891    .00057    .00143    .00109    .00252   1.95143
    A9        2.07462   -.00056   -.00051   -.00215   -.00266   2.07196
   A10        1.80301   -.00060   -.00210   -.00009   -.00218   1.80083
   A11        1.98166   -.00066    .00075   -.00323   -.00248   1.97918
   A12        2.23293    .00116   -.00055    .00686    .00631   2.23924
   A13        2.06859   -.00050   -.00020   -.00363   -.00383   2.06477
    D1         .00000    .00000    .00000    .00000    .00000    .00000
    D2        3.14159    .00000    .00000    .00000    .00000   3.14159
    D3        3.14159    .00000    .00000    .00000    .00000   3.14159
    D4         .00000    .00000    .00000    .00000    .00000    .00000
    D5        3.14159    .00000    .00000    .00000    .00000   3.14159
    D6         .00000    .00000    .00000    .00000    .00000    .00000
    D7         .00000    .00000    .00000    .00000    .00000    .00000
    D8        3.14159    .00000    .00000    .00000    .00000   3.14159
    D9        3.14159    .00000    .00000    .00000    .00000   3.14159
   D10         .00000    .00000    .00000    .00000    .00000    .00000
   D11         .00000    .00000    .00000    .00000    .00000    .00000
   D12        3.14159    .00000    .00000    .00000    .00000   3.14159
   D13         .00000    .00000    .00000    .00000    .00000    .00000
   D14        3.14159    .00000    .00000    .00000    .00000   3.14159
   D15         .00000    .00000    .00000    .00000    .00000    .00000
   D16        3.14159    .00000    .00000    .00000    .00000   3.14159
         Item               Value     Threshold  Converged?
 Maximum Force             .003046      .000450     NO 
 RMS     Force             .000631      .000300     NO 
 Maximum Displacement      .004773      .001800     NO 
 RMS     Displacement      .001455      .001200     NO 
 Predicted change in Energy=-2.242020D-05
 GradGradGradGradGradGradGradGradGradGradGradGradGradGradGradGradGradGrad

                          Input orientation:                          
 ---------------------------------------------------------------------
 Center     Atomic     Atomic              Coordinates (Angstroms)
 Number     Number      Type              X           Y           Z
 ---------------------------------------------------------------------
    1          1             0       -1.922206     .000000   -1.207165
    2          6             0        -.967167     .000000    -.692973
    3          1             0         .684656     .000000   -2.207769
    4          6             0         .365976     .000000   -1.169915
    5          1             0        2.281478     .000000     .080725
    6          6             0        1.198963     .000000     .003156
    7          7             0         .445491     .000000    1.171735
    8          1             0       -1.628236     .000000    1.379854
    9          7             0        -.875454     .000000     .700509
 ---------------------------------------------------------------------
                    Distance matrix (angstroms):
                    1          2          3          4          5
     1  H     .000000
     2  C    1.084662    .000000
     3  H    2.792300   2.241233    .000000
     4  C    2.288485   1.415890   1.085678    .000000
     5  H    4.396547   3.339507   2.790528   2.287630    .000000
     6  C    3.347622   2.275240   2.269957   1.438737   1.085291
     7  N    3.356361   2.339389   3.387956   2.343000   2.135685
     8  H    2.603668   2.175689   4.268549   3.237006   4.119903
     9  N    2.175985   1.396498   3.300307   2.244914   3.217197
                    6          7          8          9
     6  C     .000000
     7  N    1.390430    .000000
     8  H    3.144575   2.084145    .000000
     9  N    2.188495   1.402480   1.013997    .000000
 Stoichiometry    C3H4N2
 Framework group  CS[SG(C3H4N2)]
 Deg. of freedom   15
 Full point group                 CS      NOp   2
 Largest Abelian subgroup         CS      NOp   2
 Largest concise Abelian subgroup C1      NOp   1
                         Standard orientation:                         
 ---------------------------------------------------------------------
 Center     Atomic     Atomic              Coordinates (Angstroms)
 Number     Number      Type              X           Y           Z
 ---------------------------------------------------------------------
    1          1             0        2.143412     .746086     .000000
    2          6             0        1.145138     .321891     .000000
    3          1             0        1.295320   -1.914305     .000000
    4          6             0         .684287   -1.016900     .000000
    5          1             0       -1.489156   -1.730620     .000000
    6          6             0        -.752062    -.934035     .000000
    7          7             0       -1.193413     .384489     .000000
    8          1             0        -.059863    2.133409     .000000
    9          7             0         .000000    1.121181     .000000
 ---------------------------------------------------------------------
 Rotational constants (GHZ):      9.0982068      8.9144869      4.5027050
 Isotopes: H-1,C-12,H-1,C-12,H-1,C-12,N-14,H-1,N-14
 Standard basis: LANL2DZ (5D, 7F)
 There are    43 symmetry adapted basis functions of A'  symmetry.
 There are    10 symmetry adapted basis functions of A"  symmetry.
 Crude estimate of integral set expansion from redundant integrals=1.000.
 Integral buffers will be    262144 words long.
 Raffenetti 1 integral format.
 Two-electron integral symmetry is turned on.
    53 basis functions      141 primitive gaussians
    18 alpha electrons       18 beta electrons
       nuclear repulsion energy       158.5094839263 Hartrees.
 One-electron integrals computed using PRISM.
   1 Symmetry operations used in ECPInt.
 ECPInt:  NShTT=     561 NPrTT=    4338 LenC2=     562 LenP2D=    3418.
 LDataN:  DoStor=F MaxTD1= 2 Len=   12
 LDataN:  DoStor=T MaxTD1= 2 Len=   12
 NBasis=    53 RedAO= T  NBF=    43    10
 NBsUse=    53 1.00D-04 NBFU=    43    10
 Initial guess read from the read-write file:
 Initial guess orbital symmetries:
       Occupied  (A') (A') (A') (A') (A') (A') (A') (A') (A') (A')
                 (A') (A') (A") (A') (A') (A') (A") (A")
       Virtual   (A") (A") (A') (A') (A') (A') (A') (A') (A') (A")
                 (A') (A') (A") (A') (A') (A") (A') (A') (A') (A")
                 (A') (A') (A") (A') (A') (A') (A') (A') (A') (A')
                 (A') (A') (A') (A') (A')
 Requested convergence on RMS density matrix=1.00D-08 within  64 cycles.
 Requested convergence on MAX density matrix=1.00D-06.
 Keep R1 integrals in memory in canonical form, NReq=     1438540.
 SCF Done:  E(RHF) =  -224.710484765     A.U. after   12 cycles
             Convg  =     .1578D-08             -V/T =  2.0014
             S**2   =    .0000
 Range of M.O.s used for correlation:     6    53
 NBasis=    53 NAE=    18 NBE=    18 NFC=     5 NFV=     0
 NROrb=     48 NOA=    13 NOB=    13 NVA=    35 NVB=    35
 Fully direct method using O(ONN) memory.
 JobTyp=1 Pass  1:  I=   6 to  18.
 Spin components of T(2) and E(2):
     alpha-alpha T2 =        .2761142528D-01 E2=      -.6129547686D-01
     alpha-beta  T2 =        .1571951143D+00 E2=      -.3586081608D+00
     beta-beta   T2 =        .2761142528D-01 E2=      -.6129547686D-01
 ANorm=     .1101098526D+01
 E2 =     -.4811991145D+00 EUMP2 =     -.22519168387949D+03
          Differentiating once with respect to electric field.
                with respect to dipole field.
          Differentiating once with respect to nuclear coordinates.
[...]
                    16                     17                     18
                    A'                     A'                     A'
 Frequencies --  1437.5328              1513.4166              3268.0803
 Red. masses --     2.4492                 2.0203                 1.0907
 Frc consts  --     2.9820                 2.7264                 6.8633
 IR Inten    --    15.8183                13.5131                 1.5349
 Raman Activ --      .0000                  .0000                  .0000
 Depolar     --      .0000                  .0000                  .0000
 Atom AN      X      Y      Z        X      Y      Z        X      Y      Z
   1   1      .12   -.33    .00     -.28    .27    .00      .39    .16    .00
   2   6     -.11    .21    .00     -.05   -.19    .00     -.03   -.01    .00
   3   1      .05   -.14    .00     -.25   -.02    .00     -.42    .62    .00
   4   6      .01   -.14    .00      .06    .15    .00      .04   -.05    .00
   5   1      .10   -.04    .00     -.24    .18    .00     -.34   -.37    .00
   6   6      .00    .06    .00      .06   -.09    .00      .03    .03    .00
   7   7     -.06    .02    .00     -.04    .06    .00      .00    .00    .00
   8   1     -.83   -.17    .00     -.77   -.03    .00      .00   -.01    .00
   9   7      .18   -.08    .00      .09    .02    .00      .00    .00    .00
                    19                     20                     21
                    A'                     A'                     A'
 Frequencies --  3284.5697              3302.6618              3687.2331
 Red. masses --     1.0979                 1.1105                 1.0840
 Frc consts  --     6.9789                 7.1366                 8.6829
 IR Inten    --     5.1903                 1.5083                92.1680
 Raman Activ --      .0000                  .0000                  .0000
 Depolar     --      .0000                  .0000                  .0000
 Atom AN      X      Y      Z        X      Y      Z        X      Y      Z
   1   1      .62    .26    .00      .56    .24    .00      .02    .00    .00
   2   6     -.06   -.02    .00     -.05   -.03    .00      .00    .00    .00
   3   1     -.07    .09    .00      .36   -.53    .00      .00    .00    .00
   4   6      .01    .00    .00     -.03    .05    .00      .00    .00    .00
   5   1      .49    .53    .00     -.31   -.33    .00      .00    .00    .00
   6   6     -.05   -.05    .00      .03    .03    .00      .00    .00    .00
   7   7      .00    .00    .00      .00    .00    .00      .00    .00    .00
   8   1      .00   -.01    .00      .00   -.02    .00     -.06    .99    .00
   9   7      .00    .00    .00      .00    .00    .00      .01   -.08    .00

 -------------------
 - Thermochemistry -
 -------------------
 Temperature   298.150 Kelvin.  Pressure   1.00000 Atm.
 Atom  1 has atomic number  1 and mass   1.00783
 Atom  2 has atomic number  6 and mass  12.00000
 Atom  3 has atomic number  1 and mass   1.00783
 Atom  4 has atomic number  6 and mass  12.00000
 Atom  5 has atomic number  1 and mass   1.00783
 Atom  6 has atomic number  6 and mass  12.00000
 Atom  7 has atomic number  7 and mass  14.00307
 Atom  8 has atomic number  1 and mass   1.00783
 Atom  9 has atomic number  7 and mass  14.00307
 Molecular mass:    68.03745 amu.
 Principal axes and moments of inertia in atomic units:
                           1         2         3
     EIGENVALUES --   198.39363 202.46609 400.85972
           X             .96716    .25417    .00000
           Y            -.25417    .96716    .00000
           Z             .00000    .00000   1.00000
 THIS MOLECULE IS AN ASYMMETRIC TOP.
 ROTATIONAL SYMMETRY NUMBER  1.
 ROTATIONAL TEMPERATURES (KELVIN)       .43657      .42779      .21607
 ROTATIONAL CONSTANTS (GHZ)            9.09677     8.91379     4.50218
 Zero-point vibrational energy     183962.4 (Joules/Mol)
                                   43.96808 (Kcal/Mol)
 WARNING-- EXPLICIT CONSIDERATION OF   1 DEGREES OF FREEDOM AS
           VIBRATIONS MAY CAUSE SIGNIFICANT ERROR
 VIBRATIONAL TEMPERATURES:    856.03   902.35   967.05   994.82  1097.31
          (KELVIN)           1148.94  1307.28  1325.53  1437.83  1519.16
                             1605.89  1647.40  1769.41  1923.01  2018.60
                             2068.28  2177.46  4702.01  4725.74  4751.77
                             5305.08
 
 Zero-point correction=                            .070068 (Hartree/Particle)
 Thermal correction to Energy=                     .073874
 Thermal correction to Enthalpy=                   .074818
 Thermal correction to Gibbs Free Energy=          .043708
 Sum of electronic and zero-point Energies=           -225.121622
 Sum of electronic and thermal Energies=              -225.117816
 Sum of electronic and thermal Enthalpies=            -225.116871
 Sum of electronic and thermal Free Energies=         -225.147982
 
                     E (Thermal)             CV                S
                      KCAL/MOL        CAL/MOL-KELVIN    CAL/MOL-KELVIN
 TOTAL                   46.356             13.830             65.477
 ELECTRONIC                .000               .000               .000
 TRANSLATIONAL             .889              2.981             38.570
 ROTATIONAL                .889              2.981             24.291
 VIBRATIONAL             44.579              7.869              2.615
 VIBRATION  1              .953              1.042               .458
                       Q            LOG10(Q)             LN(Q)
 TOTAL BOT        .787177D-20        -20.103928        -46.291004
 TOTAL V=0        .133263D+13         12.124709         27.918175
 VIB (BOT)        .785605D-32        -32.104796        -73.924024
 VIB (BOT)  1     .252266D+00          -.598142         -1.377273
 VIB (V=0)        .132997D+01           .123841           .285155
 VIB (V=0)  1     .106003D+01           .025320           .058301
 ELECTRONIC       .100000D+01           .000000           .000000
 TRANSLATIONAL    .220588D+08          7.343582         16.909224
 ROTATIONAL       .454240D+05          4.657286         10.723796
 ***** Axes restored to original set *****
 -------------------------------------------------------------------
 Center     Atomic                   Forces (Hartrees/Bohr)
 Number     Number              X              Y              Z
 -------------------------------------------------------------------
    1          1           -.000038092     .000000000    -.000068846
    2          6           -.000031532     .000000000     .000711837
    3          1            .000009438     .000000000    -.000100712
    4          6            .000282616     .000000000    -.000154182
    5          1            .000088095     .000000000    -.000020443
    6          6           -.000303705     .000000000     .000314206
    7          7            .000110726     .000000000    -.000340148
    8          1           -.000017875     .000000000     .000050499
    9          7           -.000099672     .000000000    -.000392212
 -------------------------------------------------------------------
 Cartesian Forces:  Max      .000711837 RMS      .000203807

 GradGradGradGradGradGradGradGradGradGradGradGradGradGradGradGradGradGrad
 Berny optimization.
 Internal  Forces:  Max      .000422877 RMS      .000105691
 Search for a local minimum.
 Step number   1 out of a maximum of  48
 All quantities printed in internal units (Hartrees-Bohrs-Radians)
 Second derivative matrix not updated -- analytic derivatives used.
     Eigenvalues ---     .00846    .01027    .01360    .02443    .05790
     Eigenvalues ---     .06084    .09602    .10598    .10768    .12163
     Eigenvalues ---     .22412    .26261    .30806    .33228    .37597
     Eigenvalues ---     .37767    .37874    .41814    .44922    .48393
     Eigenvalues ---     .508501000.000001000.000001000.000001000.00000
     Eigenvalues --- 1000.000001000.000001000.000001000.000001000.00000
     Eigenvalues --- 1000.000001000.000001000.000001000.000001000.00000
     Eigenvalues --- 1000.000001000.000001000.00000
 Angle between quadratic step and forces=  27.92 degrees.
 Linear search not attempted -- first point.
 Iteration  1 RMS(Cart)=   .00026737 RMS(Int)=   .00000008
 Iteration  2 RMS(Cart)=   .00000010 RMS(Int)=   .00000002
 Variable       Old X    -DE/DX   Delta X   Delta X   Delta X     New X
                                 (Linear)    (Quad)   (Total)
    R1        2.05053    .00007    .00000    .00019    .00019   2.05073
    R2        2.67539    .00025    .00000    .00067    .00067   2.67606
    R3        2.63748   -.00042    .00000   -.00123   -.00123   2.63625
    R4        2.05230    .00010    .00000    .00023    .00023   2.05253
    R5        2.71829   -.00004    .00000    .00009    .00009   2.71838
    R6        2.05186    .00009    .00000    .00023    .00023   2.05210
    R7        2.62651   -.00028    .00000   -.00089   -.00089   2.62562
    R8        2.65406   -.00002    .00000    .00007    .00007   2.65413
    R9        1.91653    .00005    .00000    .00006    .00006   1.91659
    A1        2.30470   -.00009    .00000   -.00093   -.00093   2.30377
    A2        2.12994   -.00001    .00000    .00045    .00045   2.13039
    A3        1.84854    .00010    .00000    .00048    .00048   1.84903
    A4        2.21236    .00006    .00000    .00000    .00000   2.21236
    A5        1.84545   -.00016    .00000   -.00070   -.00070   1.84475
    A6        2.22537    .00010    .00000    .00070    .00070   2.22607
    A7        2.26077   -.00003    .00000   -.00039   -.00039   2.26038
    A8        1.95169    .00000    .00000    .00020    .00020   1.95189
    A9        2.07072    .00003    .00000    .00020    .00020   2.07092
   A10        1.80009    .00012    .00000    .00026    .00026   1.80034
   A11        1.97900   -.00006    .00000   -.00024   -.00024   1.97877
   A12        2.24235    .00006    .00000    .00046    .00046   2.24281
   A13        2.06183    .00001    .00000   -.00022   -.00022   2.06161
    D1         .00000    .00000    .00000    .00000    .00000    .00000
    D2        3.14159    .00000    .00000    .00000    .00000   3.14159
    D3        3.14159    .00000    .00000    .00000    .00000   3.14159
    D4         .00000    .00000    .00000    .00000    .00000    .00000
    D5        3.14159    .00000    .00000    .00000    .00000   3.14159
    D6         .00000    .00000    .00000    .00000    .00000    .00000
    D7         .00000    .00000    .00000    .00000    .00000    .00000
    D8        3.14159    .00000    .00000    .00000    .00000   3.14159
    D9        3.14159    .00000    .00000    .00000    .00000   3.14159
   D10         .00000    .00000    .00000    .00000    .00000    .00000
   D11         .00000    .00000    .00000    .00000    .00000    .00000
   D12        3.14159    .00000    .00000    .00000    .00000   3.14159
   D13         .00000    .00000    .00000    .00000    .00000    .00000
   D14        3.14159    .00000    .00000    .00000    .00000   3.14159
   D15         .00000    .00000    .00000    .00000    .00000    .00000
   D16        3.14159    .00000    .00000    .00000    .00000   3.14159
         Item               Value     Threshold  Converged?
 Maximum Force             .000423      .000450     YES
 RMS     Force             .000106      .000300     YES
 Maximum Displacement      .000948      .001800     YES
 RMS     Displacement      .000267      .001200     YES
 Predicted change in Energy=-6.949226D-07
 Optimization completed.
    -- Stationary point found.
                         ----------------------------
                         !   Optimized Parameters   !
                         ! (Angstroms and Degrees)  !
 ------------------------                            -------------------------
 ! Name  Definition              Value          Derivative Info.             !
 -----------------------------------------------------------------------------
 ! R1    R(1,2)                  1.0851         -DE/DX =    0.0001           !
 ! R2    R(2,4)                  1.4158         -DE/DX =    0.0002           !
 ! R3    R(2,9)                  1.3957         -DE/DX =   -0.0004           !
 ! R4    R(3,4)                  1.086          -DE/DX =    0.0001           !
 ! R5    R(4,6)                  1.4385         -DE/DX =    0.               !
 ! R6    R(5,6)                  1.0858         -DE/DX =    0.0001           !
 ! R7    R(6,7)                  1.3899         -DE/DX =   -0.0003           !
 ! R8    R(7,9)                  1.4045         -DE/DX =    0.               !
 ! R9    R(8,9)                  1.0142         -DE/DX =    0.               !
 ! A1    A(1,2,4)              132.0499         -DE/DX =   -0.0001           !
 ! A2    A(1,2,9)              122.0363         -DE/DX =    0.               !
 ! A3    A(4,2,9)              105.9138         -DE/DX =    0.0001           !
 ! A4    A(2,4,3)              126.759          -DE/DX =    0.0001           !
 ! A5    A(2,4,6)              105.7368         -DE/DX =   -0.0002           !
 ! A6    A(3,4,6)              127.5043         -DE/DX =    0.0001           !
 ! A7    A(4,6,5)              129.5328         -DE/DX =    0.               !
 ! A8    A(4,6,7)              111.8236         -DE/DX =    0.               !
 ! A9    A(5,6,7)              118.6435         -DE/DX =    0.               !
 ! A10   A(6,7,9)              103.1373         -DE/DX =    0.0001           !
 ! A11   A(2,9,7)              113.3885         -DE/DX =   -0.0001           !
 ! A12   A(2,9,8)              128.4773         -DE/DX =    0.0001           !
 ! A13   A(7,9,8)              118.1343         -DE/DX =    0.               !
 ! D1    D(1,2,4,3)              0.             -DE/DX =    0.               !
 ! D2    D(1,2,4,6)            180.             -DE/DX =    0.               !
 ! D3    D(9,2,4,3)            180.             -DE/DX =    0.               !
 ! D4    D(9,2,4,6)              0.             -DE/DX =    0.               !
 ! D5    D(1,2,9,7)            180.             -DE/DX =    0.               !
 ! D6    D(1,2,9,8)              0.             -DE/DX =    0.               !
 ! D7    D(4,2,9,7)              0.             -DE/DX =    0.               !
 ! D8    D(4,2,9,8)            180.             -DE/DX =    0.               !
 ! D9    D(2,4,6,5)            180.             -DE/DX =    0.               !
 ! D10   D(2,4,6,7)              0.             -DE/DX =    0.               !
 ! D11   D(3,4,6,5)              0.             -DE/DX =    0.               !
 ! D12   D(3,4,6,7)            180.             -DE/DX =    0.               !
 ! D13   D(4,6,7,9)              0.             -DE/DX =    0.               !
 ! D14   D(5,6,7,9)            180.             -DE/DX =    0.               !
 ! D15   D(6,7,9,2)              0.             -DE/DX =    0.               !
 ! D16   D(6,7,9,8)            180.             -DE/DX =    0.               !
 -----------------------------------------------------------------------------
 GradGradGradGradGradGradGradGradGradGradGradGradGradGradGradGradGradGrad

 1\1\GINC-SCI-APPS\Freq\RMP2-FC\LANL2DZ\C3H4N2\RUS\22-Dec-2000\0\\#N GE
 OM=ALLCHECK GUESS=TCHECK RMP2(FC)/LANL2DZ FREQ\\1H pyrazole C3H4N2 cas
 no=288131\\0,1\H,-1.9226733204,0.,-1.2071979546\C,-0.9672048573,0.,-0.
 6928918623\H,0.6854013595,0.,-2.2071627583\C,0.3660404422,0.,-1.169150
 3167\H,2.2821656201,0.,0.081817569\C,1.199196911,0.,0.0034587973\N,0.4
 46650493,0.,1.1719884618\H,-1.6271334916,0.,1.3813485459\N,-0.87607265
 64,0.,0.6998250937\\Version=IBM-RS6000-G98RevA.7\State=1-A'\HF=-224.71
 04311\MP2=-225.1916891\RMSD=2.969e-09\RMSF=2.038e-04\Dipole=-0.8527624
 ,0.,-0.5225118\DipoleDeriv=-0.0149188,0.,-0.0561202,0.,0.2406212,0.,-0
 .0504848,0.,0.073943,0.0646016,0.,-0.1888588,0.,-0.1617211,0.,-0.28914
 56,0.,0.2839029,0.1034272,0.,0.0399836,0.,0.2072008,0.,0.0419821,0.,-0
 .051966,-0.1786879,0.,0.0633697,0.,-0.2236398,0.,-0.0546625,0.,-0.0460
 52,-0.0524809,0.,-0.0054661,0.,0.1862163,0.,-0.0221,0.,0.0940688,0.155
 9475,0.,0.0579633,0.,-0.1333366,0.,0.229167,0.,0.0599742,0.1305503,0.,
 -0.0444444,0.,-0.2120917,0.,-0.0922216,0.,-0.308861,0.235676,0.,-0.036
 8471,0.,0.3871676,0.,-0.0449115,0.,0.2268445,-0.444115,0.,0.17042,0.,-
 0.2904167,0.,0.2823769,0.,-0.3318544\Polar=50.7707687,0.,18.1089634,0.
 3195018,0.,46.4033656\PG=CS [SG(C3H4N2)]\NImag=0\\0.30394809,0.,0.0163
 4033,0.13704469,0.,0.12560779,-0.30406657,0.,-0.12362862,0.82849332,0.
 ,-0.01827958,0.,0.,0.10277901,-0.13344190,0.,-0.12258713,0.10158274,0.
 ,0.60477410,-0.00014367,0.,-0.00090236,0.00252206,0.,0.02668045,0.0780
 0834,0.,-0.00208935,0.,0.,-0.00237380,0.,0.,0.01902125,0.00071641,0.,-
 0.00013267,-0.00888978,0.,0.00096176,-0.09275294,0.,0.34852833,-0.0030
 2869,0.,0.01294481,-0.31643402,0.,0.08389316,-0.08312804,0.,0.08931545
 ,0.59212736,0.,-0.00063827,0.,0.,-0.05820816,0.,0.,-0.02146136,0.,0.,0
 .10506195,-0.01641482,0.,0.01152200,0.08534266,0.,-0.13075318,0.086553
 81,0.,-0.34048370,-0.11358762,0.,0.81173634,-0.00028270,0.,0.00031959,
 0.00018162,0.,-0.00020088,-0.00031324,0.,-0.00093480,-0.00153387,0.,0.
 00846315,0.37630237,0.,0.00123267,0.,0.,0.00353069,0.,0.,-0.00125598,0
 .,0.,-0.00141567,0.,0.,0.01925115,-0.00099187,0.,0.00105144,-0.0032670
 0,0.,-0.00607052,0.00103459,0.,0.00000734,-0.02267687,0.,0.00654912,0.
 02279990,0.,0.05415047,-0.00377484,0.,0.00507280,-0.05857566,0.,-0.009
 71725,0.01150856,0.,0.01579979,-0.17556237,0.,-0.09625683,-0.36477085,
 0.,-0.03298501,0.84552652,0.,0.00365422,0.,0.,0.01358405,0.,0.,-0.0038
 1070,0.,0.,-0.05805065,0.,0.,-0.02120261,0.,0.,0.11451323,0.00041907,0
 .,-0.00240573,-0.05541079,0.,0.01253025,-0.01870882,0.,-0.00711103,-0.
 08119767,0.,-0.22150821,-0.02361415,0.,-0.05545236,0.03410505,0.,0.519
 83738,0.00077394,0.,0.00040588,-0.05263756,0.,-0.03296265,-0.00224027,
 0.,-0.00088033,0.02040226,0.,0.02193459,-0.00978699,0.,0.02784931,-0.1
 4936042,0.,0.11690722,0.42783145,0.,0.00542344,0.,0.,0.01691138,0.,0.,
 0.00618576,0.,0.,0.01810460,0.,0.,-0.00737454,0.,0.,-0.06369424,0.,0.,
 0.09291106,0.00371548,0.,-0.00456782,-0.02510803,0.,-0.04706330,-0.006
 02563,0.,-0.00262992,-0.01782494,0.,-0.07568808,-0.00862356,0.,0.00468
 395,0.05424179,0.,-0.22176013,-0.02408001,0.,0.45131182,-0.00057154,0.
 ,0.00037405,0.01080441,0.,-0.01384645,0.00078404,0.,0.00004359,0.00170
 539,0.,-0.00394089,-0.00031514,0.,0.00164702,-0.00699166,0.,-0.0059987
 1,-0.01670251,0.,0.02678109,0.29509278,0.,-0.00114652,0.,0.,-0.0060568
 9,0.,0.,0.00234195,0.,0.,0.00281641,0.,0.,0.00234240,0.,0.,0.00419960,
 0.,0.,-0.01010509,0.,0.,0.01550417,-0.00073582,0.,0.00013648,0.0267482
 9,0.,-0.00492270,0.00093670,0.,0.00031253,-0.00252824,0.,-0.00678916,-
 0.00045502,0.,0.00108525,-0.00788656,0.,0.00112728,-0.01803881,0.,0.01
 251152,-0.20593858,0.,0.25512047,0.00714598,0.,-0.03163084,-0.11028761
 ,0.,-0.02198722,-0.00699777,0.,-0.00241738,-0.03454801,0.,0.02790594,0
 .00051879,0.,0.00658993,-0.09799928,0.,0.03349880,-0.21827989,0.,-0.00
 307618,-0.28380575,0.,0.20789806,0.74425355,0.,-0.00449693,0.,0.,-0.05
 188669,0.,0.,0.00344221,0.,0.,0.01379115,0.,0.,0.00489188,0.,0.,0.0108
 0710,0.,0.,-0.05836238,0.,0.,-0.00989603,0.,0.,0.09170968,0.00968875,0
 .,-0.00862436,0.00263053,0.,-0.30686929,0.00318421,0.,0.00054736,0.051
 66192,0.,-0.05458514,0.00224579,0.,-0.00600468,0.03762622,0.,-0.025257
 44,-0.09113519,0.,-0.11679803,0.20087888,0.,-0.25858167,-0.21678112,0.
 ,0.77617326\\0.00003809,0.,0.00006885,0.00003153,0.,-0.00071184,-0.000
 00944,0.,0.00010071,-0.00028262,0.,0.00015418,-0.00008809,0.,0.0000204
 4,0.00030370,0.,-0.00031421,-0.00011073,0.,0.00034015,0.00001787,0.,-0
 .00005050,0.00009967,0.,0.00039221\\\@


 IF THERE IS ONE WAY BETTER THAN ANOTHER IT IS THE WAY OF NATURE.

                          -- ARISTOTLE
 Job cpu time:  0 days  0 hours  4 minutes 49.5 seconds.
 File lengths (MBytes):  RWF=  219 Int=    0 D2E=    0 Chk=    8 Scr=    1
 Normal termination of Gaussian 98.
