 host = p600 (kernel = 2.6.18-92.el5)
 Running revision A02

 Current disk usage on p600
/dev/hda1              69G  6.5G   59G  11% /

 START DATE Fri Feb  4 16:59:16 EST 2011
 GAUSS_LFLAGS = '-nodelist "p600"'
 Entering Gaussian System, Link 0=/usr/local/gaussian09-A02-64/g09/g09
 Initial command:
 /usr/local/gaussian09-A02-64/g09/l1.exe /gaussian/Gau-25095.inp -scrdir=/gaussian/
 Entering Link 1 = /usr/local/gaussian09-A02-64/g09/l1.exe PID=     25097.
  
 Copyright (c) 1988,1990,1992,1993,1995,1998,2003,2009, Gaussian, Inc.
                  All Rights Reserved.
  
 This is part of the Gaussian(R) 09 program.  It is based on
 the Gaussian(R) 03 system (copyright 2003, Gaussian, Inc.),
 the Gaussian(R) 98 system (copyright 1998, Gaussian, Inc.),
 the Gaussian(R) 94 system (copyright 1995, Gaussian, Inc.),
 the Gaussian 92(TM) system (copyright 1992, Gaussian, Inc.),
 the Gaussian 90(TM) system (copyright 1990, Gaussian, Inc.),
 the Gaussian 88(TM) system (copyright 1988, Gaussian, Inc.),
 the Gaussian 86(TM) system (copyright 1986, Carnegie Mellon
 University), and the Gaussian 82(TM) system (copyright 1983,
 Carnegie Mellon University). Gaussian is a federally registered
 trademark of Gaussian, Inc.
  
 This software contains proprietary and confidential information,
 including trade secrets, belonging to Gaussian, Inc.
  
 This software is provided under written license and may be
 used, copied, transmitted, or stored only in accord with that
 written license.
  
 The following legend is applicable only to US Government
 contracts under FAR:
  
                    RESTRICTED RIGHTS LEGEND
  
 Use, reproduction and disclosure by the US Government is
 subject to restrictions as set forth in subparagraphs (a)
 and (c) of the Commercial Computer Software - Restricted
 Rights clause in FAR 52.227-19.
  
 Gaussian, Inc.
 340 Quinnipiac St., Bldg. 40, Wallingford CT 06492
  
  
 ---------------------------------------------------------------
 Warning -- This program may not be used in any manner that
 competes with the business of Gaussian, Inc. or will provide
 assistance to any competitor of Gaussian, Inc.  The licensee
 of this program is prohibited from giving any competitor of
 Gaussian, Inc. access to this program.  By using this program,
 the user acknowledges that Gaussian, Inc. is engaged in the
 business of creating and licensing software in the field of
 computational chemistry and represents and warrants to the
 licensee that it is not a competitor of Gaussian, Inc. and that
 it will not use this program in any manner prohibited above.
 ---------------------------------------------------------------
  

 Cite this work as:
 Gaussian 09, Revision A.02,
 M. J. Frisch, G. W. Trucks, H. B. Schlegel, G. E. Scuseria, 
 M. A. Robb, J. R. Cheeseman, G. Scalmani, V. Barone, B. Mennucci, 
 G. A. Petersson, H. Nakatsuji, M. Caricato, X. Li, H. P. Hratchian, 
 A. F. Izmaylov, J. Bloino, G. Zheng, J. L. Sonnenberg, M. Hada, 
 M. Ehara, K. Toyota, R. Fukuda, J. Hasegawa, M. Ishida, T. Nakajima, 
 Y. Honda, O. Kitao, H. Nakai, T. Vreven, J. A. Montgomery, Jr., 
 J. E. Peralta, F. Ogliaro, M. Bearpark, J. J. Heyd, E. Brothers, 
 K. N. Kudin, V. N. Staroverov, R. Kobayashi, J. Normand, 
 K. Raghavachari, A. Rendell, J. C. Burant, S. S. Iyengar, J. Tomasi, 
 M. Cossi, N. Rega, J. M. Millam, M. Klene, J. E. Knox, J. B. Cross, 
 V. Bakken, C. Adamo, J. Jaramillo, R. Gomperts, R. E. Stratmann, 
 O. Yazyev, A. J. Austin, R. Cammi, C. Pomelli, J. W. Ochterski, 
 R. L. Martin, K. Morokuma, V. G. Zakrzewski, G. A. Voth, 
 P. Salvador, J. J. Dannenberg, S. Dapprich, A. D. Daniels, 
 O. Farkas, J. B. Foresman, J. V. Ortiz, J. Cioslowski, 
 and D. J. Fox, Gaussian, Inc., Wallingford CT, 2009.
 
 ******************************************
 Gaussian 09:  AM64L-G09RevA.02 11-Jun-2009
                 4-Feb-2011 
 ******************************************
 %mem=24000000
 ------------------
 #MP2/TZVP opt freq
 ------------------
 1/18=20,19=15,38=1/1,3;
 2/9=110,12=2,17=6,18=5,40=1/2;
 3/5=19,7=101,11=9,16=1,25=1,30=1,71=1/1,2,3;
 4//1;
 5/5=2,38=5/2;
 8/6=4,10=1/1;
 9/15=2,16=-3/6;
 10/5=1/2;
 6/7=2,8=2,9=2,10=2/1;
 7/12=2/1,2,3,16;
 1/18=20,19=15/3(2);
 2/9=110/2;
 99//99;
 2/9=110/2;
 3/5=19,7=101,11=9,16=1,25=1,30=1,71=1/1,2,3;
 4/5=5,16=3/1;
 5/5=2,38=5/2;
 8/6=4,10=1/1;
 9/15=2,16=-3/6;
 10/5=1/2;
 7/12=2/1,2,3,16;
 1/18=20,19=15/3(-8);
 2/9=110/2;
 6/7=2,8=2,9=2,10=2/1;
 99//99;
 -------------------------------------------------
 1H pyrazole C3H4N2 casno=288131 method=3 basis=32
 -------------------------------------------------
 Symbolic Z-matrix:
 Charge =  0 Multiplicity = 1
 H                    -1.9125    0.       -0.75938 
 C                    -1.08438   0.       -0.21875 
 H                     0.43438   0.       -1.63125 
 C                     0.15      0.       -0.68438 
 H                     1.9125    0.        0.37188 
 C                     0.92188   0.        0.375 
 N                     0.18125   0.        1.41875 
 H                    -1.74063   0.        1.63125 
 N                    -1.00313   0.        1.05313 
 

 GradGradGradGradGradGradGradGradGradGradGradGradGradGradGradGradGradGrad
 Berny optimization.
 Initialization pass.
                           ----------------------------
                           !    Initial Parameters    !
                           ! (Angstroms and Degrees)  !
 --------------------------                            --------------------------
 ! Name  Definition              Value          Derivative Info.                !
 --------------------------------------------------------------------------------
 ! R1    R(1,2)                  0.989          estimate D2E/DX2                !
 ! R2    R(2,4)                  1.3193         estimate D2E/DX2                !
 ! R3    R(2,9)                  1.2745         estimate D2E/DX2                !
 ! R4    R(3,4)                  0.9887         estimate D2E/DX2                !
 ! R5    R(4,6)                  1.3108         estimate D2E/DX2                !
 ! R6    R(5,6)                  0.9906         estimate D2E/DX2                !
 ! R7    R(6,7)                  1.2798         estimate D2E/DX2                !
 ! R8    R(7,9)                  1.2395         estimate D2E/DX2                !
 ! R9    R(8,9)                  0.9371         estimate D2E/DX2                !
 ! A1    A(1,2,4)              126.195          estimate D2E/DX2                !
 ! A2    A(1,2,9)              126.7929         estimate D2E/DX2                !
 ! A3    A(4,2,9)              107.012          estimate D2E/DX2                !
 ! A4    A(2,4,3)              127.3838         estimate D2E/DX2                !
 ! A5    A(2,4,6)              105.4104         estimate D2E/DX2                !
 ! A6    A(3,4,6)              127.2058         estimate D2E/DX2                !
 ! A7    A(4,6,5)              125.8968         estimate D2E/DX2                !
 ! A8    A(4,6,7)              108.5636         estimate D2E/DX2                !
 ! A9    A(5,6,7)              125.5395         estimate D2E/DX2                !
 ! A10   A(6,7,9)              108.203          estimate D2E/DX2                !
 ! A11   A(2,9,7)              110.811          estimate D2E/DX2                !
 ! A12   A(2,9,8)              124.4376         estimate D2E/DX2                !
 ! A13   A(7,9,8)              124.7513         estimate D2E/DX2                !
 ! D1    D(1,2,4,3)              0.0            estimate D2E/DX2                !
 ! D2    D(1,2,4,6)            180.0            estimate D2E/DX2                !
 ! D3    D(9,2,4,3)            180.0            estimate D2E/DX2                !
 ! D4    D(9,2,4,6)              0.0            estimate D2E/DX2                !
 ! D5    D(1,2,9,7)            180.0            estimate D2E/DX2                !
 ! D6    D(1,2,9,8)              0.0            estimate D2E/DX2                !
 ! D7    D(4,2,9,7)              0.0            estimate D2E/DX2                !
 ! D8    D(4,2,9,8)            180.0            estimate D2E/DX2                !
 ! D9    D(2,4,6,5)            180.0            estimate D2E/DX2                !
 ! D10   D(2,4,6,7)              0.0            estimate D2E/DX2                !
 ! D11   D(3,4,6,5)              0.0            estimate D2E/DX2                !
 ! D12   D(3,4,6,7)            180.0            estimate D2E/DX2                !
 ! D13   D(4,6,7,9)              0.0            estimate D2E/DX2                !
 ! D14   D(5,6,7,9)            180.0            estimate D2E/DX2                !
 ! D15   D(6,7,9,2)              0.0            estimate D2E/DX2                !
 ! D16   D(6,7,9,8)            180.0            estimate D2E/DX2                !
 --------------------------------------------------------------------------------
 Trust Radius=3.00D-01 FncErr=1.00D-07 GrdErr=1.00D-07
 Number of steps in this run=  48 maximum allowed number of steps= 100.
 GradGradGradGradGradGradGradGradGradGradGradGradGradGradGradGradGradGrad

                          Input orientation:                          
 ---------------------------------------------------------------------
 Center     Atomic      Atomic             Coordinates (Angstroms)
 Number     Number       Type             X           Y           Z
 ---------------------------------------------------------------------
      1          1           0       -1.912500    0.000000   -0.759375
      2          6           0       -1.084375    0.000000   -0.218750
      3          1           0        0.434375    0.000000   -1.631250
      4          6           0        0.150000    0.000000   -0.684375
      5          1           0        1.912500    0.000000    0.371875
      6          6           0        0.921875    0.000000    0.375000
      7          7           0        0.181250    0.000000    1.418750
      8          1           0       -1.740625    0.000000    1.631250
      9          7           0       -1.003125    0.000000    1.053125
 ---------------------------------------------------------------------
                    Distance matrix (angstroms):
                    1          2          3          4          5
     1  H    0.000000
     2  C    0.988972   0.000000
     3  H    2.503595   2.074068   0.000000
     4  C    2.063863   1.319276   0.988656   0.000000
     5  H    3.988778   3.054521   2.489450   2.054768   0.000000
     6  C    3.052947   2.092266   2.064630   1.310750   0.990630
     7  N    3.021261   2.069592   3.060486   2.103357   2.023159
     8  H    2.396796   1.962948   3.921037   2.989412   3.864110
     9  N    2.027836   1.274468   3.045041   2.085331   2.994156
                    6          7          8          9
     6  C    0.000000
     7  N    1.279820   0.000000
     8  H    2.943989   1.933587   0.000000
     9  N    2.040950   1.239526   0.937088   0.000000
 Stoichiometry    C3H4N2
 Framework group  CS[SG(C3H4N2)]
 Deg. of freedom    15
 Full point group                 CS      NOp   2
 Largest Abelian subgroup         CS      NOp   2
 Largest concise Abelian subgroup C1      NOp   1
                         Standard orientation:                         
 ---------------------------------------------------------------------
 Center     Atomic      Atomic             Coordinates (Angstroms)
 Number     Number       Type             X           Y           Z
 ---------------------------------------------------------------------
      1          1           0        1.974407    0.585689    0.000000
      2          6           0        1.028833    0.295936    0.000000
      3          1           0        1.140941   -1.775099    0.000000
      4          6           0        0.595873   -0.950271    0.000000
      5          1           0       -1.344123   -1.627388    0.000000
      6          6           0       -0.712074   -0.864589    0.000000
      7          7           0       -1.039336    0.372682    0.000000
      8          1           0        0.028336    1.984773    0.000000
      9          7           0        0.000000    1.048113    0.000000
 ---------------------------------------------------------------------
 Rotational constants (GHZ):     11.1878017     10.4520034      5.4036966
 Standard basis: TZVP (5D, 7F)
 There are    90 symmetry adapted basis functions of A'  symmetry.
 There are    29 symmetry adapted basis functions of A"  symmetry.
 Integral buffers will be    131072 words long.
 Raffenetti 1 integral format.
 Two-electron integral symmetry is turned on.
   119 basis functions,   207 primitive gaussians,   124 cartesian basis functions
    18 alpha electrons       18 beta electrons
       nuclear repulsion energy       173.7391746797 Hartrees.
 NAtoms=    9 NActive=    9 NUniq=    9 SFac= 7.50D-01 NAtFMM=   80 NAOKFM=F Big=F
 One-electron integrals computed using PRISM.
 NBasis=   119 RedAO= T  NBF=    90    29
 NBsUse=   119 1.00D-06 NBFU=    90    29
 Harris functional with IExCor=  205 diagonalized for initial guess.
 ExpMin= 9.52D-02 ExpMax= 1.97D+04 ExpMxC= 6.73D+02 IAcc=2 IRadAn=         0 AccDes= 0.00D+00
 HarFok:  IExCor=  205 AccDes= 0.00D+00 IRadAn=         0 IDoV= 1
 ScaDFX=  1.000000  1.000000  1.000000  1.000000
 FoFCou: FMM=F IPFlag=           0 FMFlag=      100000 FMFlg1=           0
         NFxFlg=           0 DoJE=T BraDBF=F KetDBF=T FulRan=T
         Omega=  0.000000  0.000000  1.000000  0.000000  0.000000 ICntrl=     500 IOpCl=  0
         NMat0=    1 NMatS0=    1 NMatT0=    0 NMatD0=    1 NMtDS0=    0 NMtDT0=    0
         I1Cent=           4 NGrid=           0.
 Petite list used in FoFCou.
 Initial guess orbital symmetries:
       Occupied  (A') (A') (A') (A') (A') (A') (A') (A') (A') (A')
                 (A') (A') (A") (A') (A') (A") (A') (A")
       Virtual   (A") (A") (A') (A') (A') (A') (A') (A') (A') (A')
                 (A") (A") (A') (A') (A') (A") (A') (A') (A') (A")
                 (A') (A') (A') (A') (A") (A') (A') (A') (A') (A')
                 (A') (A') (A') (A') (A') (A") (A') (A') (A') (A")
                 (A') (A") (A') (A") (A") (A") (A') (A") (A') (A")
                 (A') (A') (A') (A') (A') (A') (A") (A') (A') (A")
                 (A') (A") (A') (A") (A') (A") (A') (A') (A') (A")
                 (A') (A') (A") (A") (A') (A') (A') (A') (A') (A')
                 (A") (A') (A") (A') (A') (A") (A') (A') (A') (A')
                 (A') (A') (A') (A') (A') (A') (A') (A') (A') (A')
                 (A')
 The electronic state of the initial guess is 1-A'.
 Requested convergence on RMS density matrix=1.00D-08 within 128 cycles.
 Requested convergence on MAX density matrix=1.00D-06.
 Requested convergence on             energy=1.00D-06.
 No special actions if energy rises.
 Integral accuracy reduced to 1.0D-05 until final iterations.
 Initial convergence to 1.0D-05 achieved.  Increase integral accuracy.
 SCF Done:  E(RHF) =  -224.815446584     A.U. after   14 cycles
             Convg  =    0.5651D-08             -V/T =  1.9930
 ExpMin= 9.52D-02 ExpMax= 1.97D+04 ExpMxC= 6.73D+02 IAcc=3 IRadAn=         5 AccDes= 0.00D+00
 HarFok:  IExCor=  205 AccDes= 0.00D+00 IRadAn=         5 IDoV=-2
 ScaDFX=  1.000000  1.000000  1.000000  1.000000
 Range of M.O.s used for correlation:     6   119
 NBasis=   119 NAE=    18 NBE=    18 NFC=     5 NFV=     0
 NROrb=    114 NOA=    13 NOB=    13 NVA=   101 NVB=   101

 **** Warning!!: The largest alpha MO coefficient is  0.18735598D+02

 Fully direct method using O(ONN) memory.
 JobTyp=1 Pass  1:  I=   6 to  18 NPSUse=  1 ParTrn=F ParDer=F DoDerP=T.
 Spin components of T(2) and E(2):
     alpha-alpha T2 =       0.3264050976D-01 E2=     -0.1010164304D+00
     alpha-beta  T2 =       0.1685853317D+00 E2=     -0.5466975507D+00
     beta-beta   T2 =       0.3264050976D-01 E2=     -0.1010164304D+00
 ANorm=    0.1110795369D+01
 E2 =    -0.7487304115D+00 EUMP2 =    -0.22556417699544D+03
          IDoAtm=111111111
          Differentiating once with respect to electric field.
                with respect to dipole field.
          Differentiating once with respect to nuclear coordinates.
          There are     1 degrees of freedom in the 1st order CPHF.  IDoFFX=0.
 LinEq1:  Iter=  0 NonCon=     1 RMS=4.22D-03 Max=3.95D-02
 AX will form     1 AO Fock derivatives at one time.
 LinEq1:  Iter=  1 NonCon=     1 RMS=9.85D-04 Max=1.25D-02
 LinEq1:  Iter=  2 NonCon=     1 RMS=3.82D-04 Max=6.55D-03
 LinEq1:  Iter=  3 NonCon=     1 RMS=1.14D-04 Max=2.28D-03
 LinEq1:  Iter=  4 NonCon=     1 RMS=5.43D-05 Max=1.14D-03
 LinEq1:  Iter=  5 NonCon=     1 RMS=1.57D-05 Max=1.22D-04
 LinEq1:  Iter=  6 NonCon=     1 RMS=2.71D-06 Max=2.63D-05
 LinEq1:  Iter=  7 NonCon=     1 RMS=6.73D-07 Max=6.18D-06
 LinEq1:  Iter=  8 NonCon=     1 RMS=2.41D-07 Max=3.91D-06
 LinEq1:  Iter=  9 NonCon=     1 RMS=6.60D-08 Max=1.17D-06
 LinEq1:  Iter= 10 NonCon=     1 RMS=2.64D-08 Max=3.27D-07
 LinEq1:  Iter= 11 NonCon=     1 RMS=7.80D-09 Max=9.94D-08
 LinEq1:  Iter= 12 NonCon=     1 RMS=1.84D-09 Max=2.78D-08
 LinEq1:  Iter= 13 NonCon=     1 RMS=6.25D-10 Max=6.38D-09
 LinEq1:  Iter= 14 NonCon=     1 RMS=1.36D-10 Max=1.26D-09
 LinEq1:  Iter= 15 NonCon=     0 RMS=2.02D-11 Max=1.25D-10
 Linear equations converged to 1.000D-10 1.000D-09 after    15 iterations.
 End of Minotr Frequency-dependent properties file   721 does not exist.
 End of Minotr Frequency-dependent properties file   722 does not exist.

 **********************************************************************

            Population analysis using the SCF density.

 **********************************************************************

 Orbital symmetries:
       Occupied  (A') (A') (A') (A') (A') (A') (A') (A') (A') (A')
                 (A') (A') (A") (A') (A') (A') (A") (A")
       Virtual   (A') (A") (A') (A') (A') (A") (A') (A') (A') (A")
                 (A') (A') (A") (A') (A") (A') (A') (A') (A') (A")
                 (A') (A') (A') (A") (A') (A') (A') (A') (A') (A')
                 (A') (A') (A') (A') (A') (A") (A') (A') (A') (A")
                 (A") (A') (A') (A") (A") (A") (A') (A') (A") (A")
                 (A') (A') (A') (A') (A') (A') (A") (A') (A') (A")
                 (A') (A") (A') (A") (A') (A") (A') (A') (A') (A")
                 (A') (A') (A") (A") (A') (A') (A') (A') (A') (A')
                 (A") (A') (A") (A') (A') (A") (A') (A') (A') (A')
                 (A') (A') (A') (A') (A') (A') (A') (A') (A') (A')
                 (A')
 The electronic state is 1-A'.
 Alpha  occ. eigenvalues --  -15.63536 -15.55993 -11.23428 -11.21066 -11.17834
 Alpha  occ. eigenvalues --   -1.46039  -1.13386  -1.08786  -0.87124  -0.83893
 Alpha  occ. eigenvalues --   -0.77847  -0.65887  -0.65543  -0.61487  -0.57318
 Alpha  occ. eigenvalues --   -0.44429  -0.37946  -0.34760
 Alpha virt. eigenvalues --    0.13646   0.18100   0.19087   0.19904   0.21698
 Alpha virt. eigenvalues --    0.22986   0.24567   0.27706   0.31320   0.33025
 Alpha virt. eigenvalues --    0.34747   0.38983   0.39578   0.41116   0.46244
 Alpha virt. eigenvalues --    0.47597   0.51658   0.55612   0.56788   0.57895
 Alpha virt. eigenvalues --    0.58632   0.58828   0.62084   0.65773   0.66331
 Alpha virt. eigenvalues --    0.69996   0.71704   0.79182   0.79688   0.81836
 Alpha virt. eigenvalues --    0.86195   0.92333   0.97286   1.01613   1.10059
 Alpha virt. eigenvalues --    1.41910   1.49314   1.51120   1.56094   1.56162
 Alpha virt. eigenvalues --    1.58174   1.59154   1.64105   1.66330   1.72139
 Alpha virt. eigenvalues --    1.76632   1.76853   1.77584   1.80497   1.88417
 Alpha virt. eigenvalues --    1.92917   1.98840   1.99430   2.07152   2.11206
 Alpha virt. eigenvalues --    2.12753   2.17775   2.21273   2.25959   2.27681
 Alpha virt. eigenvalues --    2.34337   2.35413   2.37342   2.41464   2.45713
 Alpha virt. eigenvalues --    2.51049   2.53086   2.56851   2.64644   2.64814
 Alpha virt. eigenvalues --    2.71042   2.72661   2.78022   2.84999   2.91270
 Alpha virt. eigenvalues --    2.97208   3.02337   3.06279   3.12267   3.14953
 Alpha virt. eigenvalues --    3.19550   3.21479   3.30467   3.32127   3.36162
 Alpha virt. eigenvalues --    3.43741   3.51338   3.53160   3.59102   3.70859
 Alpha virt. eigenvalues --    3.77963   3.95823   4.07453   4.35093   4.56149
 Alpha virt. eigenvalues --    4.65655  22.92568  23.34231  23.60613  33.05847
 Alpha virt. eigenvalues --   33.27958
          Condensed to atoms (all electrons):
              1          2          3          4          5          6
     1  H    0.506975   0.400358   0.002771  -0.010155  -0.000150   0.004224
     2  C    0.400358   5.125227  -0.043756   0.544779   0.011945  -0.047266
     3  H    0.002771  -0.043756   0.536498   0.416697  -0.000005  -0.032850
     4  C   -0.010155   0.544779   0.416697   4.953537  -0.053071   0.493053
     5  H   -0.000150   0.011945  -0.000005  -0.053071   0.525272   0.432941
     6  C    0.004224  -0.047266  -0.032850   0.493053   0.432941   4.805403
     7  N    0.007000  -0.100212   0.008277  -0.160845  -0.021247   0.685625
     8  H   -0.002784  -0.069866   0.000063   0.014929  -0.000339  -0.001200
     9  N   -0.016015   0.431891   0.006787  -0.212865   0.007118  -0.138718
              7          8          9
     1  H    0.007000  -0.002784  -0.016015
     2  C   -0.100212  -0.069866   0.431891
     3  H    0.008277   0.000063   0.006787
     4  C   -0.160845   0.014929  -0.212865
     5  H   -0.021247  -0.000339   0.007118
     6  C    0.685625  -0.001200  -0.138718
     7  N    6.590568  -0.052248   0.210922
     8  H   -0.052248   0.461074   0.425046
     9  N    0.210922   0.425046   6.213775
 Mulliken atomic charges:
              1
     1  H    0.107776
     2  C   -0.253101
     3  H    0.105518
     4  C    0.013943
     5  H    0.097535
     6  C   -0.201213
     7  N   -0.167841
     8  H    0.225324
     9  N    0.072058
 Sum of Mulliken atomic charges =   0.00000
 Mulliken charges with hydrogens summed into heavy atoms:
              1
     2  C   -0.145324
     4  C    0.119461
     6  C   -0.103678
     7  N   -0.167841
     9  N    0.297382
 Sum of Mulliken charges with hydrogens summed into heavy atoms =   0.00000
 Electronic spatial extent (au):  <R**2>=            259.5425
 Charge=              0.0000 electrons
 Dipole moment (field-independent basis, Debye):
    X=              2.2623    Y=              0.9489    Z=              0.0000  Tot=              2.4533
 Quadrupole moment (field-independent basis, Debye-Ang):
   XX=            -30.2469   YY=            -22.0452   ZZ=            -31.3518
   XY=              2.7976   XZ=              0.0000   YZ=              0.0000
 Traceless Quadrupole moment (field-independent basis, Debye-Ang):
   XX=             -2.3656   YY=              5.8361   ZZ=             -3.4705
   XY=              2.7976   XZ=              0.0000   YZ=              0.0000
 Octapole moment (field-independent basis, Debye-Ang**2):
  XXX=              9.3705  YYY=             11.3416  ZZZ=              0.0000  XYY=              0.4444
  XXY=             -2.4174  XXZ=              0.0000  XZZ=             -0.7744  YZZ=              2.2467
  YYZ=              0.0000  XYZ=              0.0000
 Hexadecapole moment (field-independent basis, Debye-Ang**3):
 XXXX=           -154.0309 YYYY=           -120.8291 ZZZZ=            -33.6528 XXXY=              8.0797
 XXXZ=              0.0000 YYYX=              0.6856 YYYZ=              0.0000 ZZZX=              0.0000
 ZZZY=              0.0000 XXYY=            -47.6856 XXZZ=            -34.4478 YYZZ=            -33.9091
 XXYZ=              0.0000 YYXZ=              0.0000 ZZXY=              0.0412
 N-N= 1.737391746797D+02 E-N=-8.741903935716D+02  KE= 2.264072111508D+02
 Symmetry A'   KE= 2.184925225962D+02
 Symmetry A"   KE= 7.914688554610D+00
 Calling FoFJK, ICntrl=      2127 FMM=F ISym2X=1 I1Cent= 0 IOpClX= 0 NMat=1 NMatS=1 NMatT=0.
 ***** Axes restored to original set *****
 -------------------------------------------------------------------
 Center     Atomic                   Forces (Hartrees/Bohr)
 Number     Number              X              Y              Z
 -------------------------------------------------------------------
      1        1          -0.074705312    0.000000000   -0.037124075
      2        6          -0.017563663    0.000000000   -0.055838913
      3        1           0.020847187    0.000000000   -0.079897885
      4        6          -0.010219768    0.000000000   -0.039157522
      5        1           0.080143774    0.000000000    0.011925767
      6        6           0.007511025    0.000000000    0.011251316
      7        7           0.084387933    0.000000000    0.140721441
      8        1          -0.056569718    0.000000000    0.058834927
      9        7          -0.033831459    0.000000000   -0.010715059
 -------------------------------------------------------------------
 Cartesian Forces:  Max     0.140721441 RMS     0.047310928

 GradGradGradGradGradGradGradGradGradGradGradGradGradGradGradGradGradGrad
 Berny optimization.
 Internal  Forces:  Max     0.121443126 RMS     0.046569531
 Search for a local minimum.
 Step number   1 out of a maximum of   48
 All quantities printed in internal units (Hartrees-Bohrs-Radians)
 Mixed Optimization -- RFO/linear search
 Second derivative matrix not updated -- first step.
     Eigenvalues ---    0.03204   0.03245   0.03263   0.03273   0.03342
     Eigenvalues ---    0.03375   0.16000   0.16000   0.16000   0.16000
     Eigenvalues ---    0.22000   0.22938   0.49374   0.49681   0.49740
     Eigenvalues ---    0.56490   0.56686   0.60708   0.68179   0.73042
     Eigenvalues ---    0.827791000.000001000.000001000.000001000.00000
     Eigenvalues --- 1000.000001000.000001000.000001000.000001000.00000
     Eigenvalues --- 1000.000001000.000001000.000001000.000001000.00000
     Eigenvalues --- 1000.000001000.000001000.00000
 RFO step:  Lambda=-1.13104799D-01 EMin= 3.20405243D-02
 Linear search not attempted -- first point.
 Maximum step size (   0.300) exceeded in Quadratic search.
    -- Step size scaled by   0.734
 Iteration  1 RMS(Cart)=  0.06266523 RMS(Int)=  0.00078197
 Iteration  2 RMS(Cart)=  0.00098821 RMS(Int)=  0.00001139
 Iteration  3 RMS(Cart)=  0.00000069 RMS(Int)=  0.00001137
 ClnCor:  largest displacement from symmetrization is 4.38D-13 for atom     3.
 Variable       Old X    -DE/DX   Delta X   Delta X   Delta X     New X
                                 (Linear)    (Quad)   (Total)
    R1        1.86889   0.08285   0.00000   0.09972   0.09972   1.96860
    R2        2.49307   0.07709   0.00000   0.07521   0.07519   2.56826
    R3        2.40839   0.11031   0.00000   0.09572   0.09570   2.50410
    R4        1.86829   0.08252   0.00000   0.09922   0.09922   1.96751
    R5        2.47696   0.12144   0.00000   0.11495   0.11496   2.59192
    R6        1.87202   0.08011   0.00000   0.09690   0.09690   1.96892
    R7        2.41851   0.07751   0.00000   0.06745   0.06747   2.48598
    R8        2.34237   0.11988   0.00000   0.09162   0.09162   2.43399
    R9        1.77084   0.08082   0.00000   0.08238   0.08238   1.85322
    A1        2.20252   0.01409   0.00000   0.03609   0.03610   2.23862
    A2        2.21295  -0.00413   0.00000  -0.01290  -0.01288   2.20007
    A3        1.86771  -0.00997   0.00000  -0.02319  -0.02322   1.84449
    A4        2.22327  -0.00333   0.00000  -0.00324  -0.00323   2.22003
    A5        1.83976   0.00103   0.00000  -0.00867  -0.00868   1.83108
    A6        2.22016   0.00230   0.00000   0.01190   0.01191   2.23207
    A7        2.19731   0.00190   0.00000   0.01319   0.01318   2.21050
    A8        1.89479   0.01899   0.00000   0.03489   0.03491   1.92971
    A9        2.19108  -0.02089   0.00000  -0.04809  -0.04810   2.14298
   A10        1.88850  -0.02751   0.00000  -0.04934  -0.04930   1.83919
   A11        1.93402   0.01745   0.00000   0.04630   0.04629   1.98031
   A12        2.17185   0.00137   0.00000   0.00399   0.00400   2.17584
   A13        2.17732  -0.01882   0.00000  -0.05029  -0.05028   2.12704
    D1        0.00000   0.00000   0.00000   0.00000   0.00000   0.00000
    D2        3.14159   0.00000   0.00000   0.00000   0.00000   3.14159
    D3        3.14159   0.00000   0.00000   0.00000   0.00000   3.14159
    D4        0.00000   0.00000   0.00000   0.00000   0.00000   0.00000
    D5        3.14159   0.00000   0.00000   0.00000   0.00000   3.14159
    D6        0.00000   0.00000   0.00000   0.00000   0.00000   0.00000
    D7        0.00000   0.00000   0.00000   0.00000   0.00000   0.00000
    D8        3.14159   0.00000   0.00000   0.00000   0.00000   3.14159
    D9        3.14159   0.00000   0.00000   0.00000   0.00000   3.14159
   D10        0.00000   0.00000   0.00000   0.00000   0.00000   0.00000
   D11        0.00000   0.00000   0.00000   0.00000   0.00000   0.00000
   D12        3.14159   0.00000   0.00000   0.00000   0.00000   3.14159
   D13        0.00000   0.00000   0.00000   0.00000   0.00000   0.00000
   D14        3.14159   0.00000   0.00000   0.00000   0.00000   3.14159
   D15        0.00000   0.00000   0.00000   0.00000   0.00000   0.00000
   D16        3.14159   0.00000   0.00000   0.00000   0.00000   3.14159
         Item               Value     Threshold  Converged?
 Maximum Force            0.121443     0.000450     NO 
 RMS     Force            0.046570     0.000300     NO 
 Maximum Displacement     0.178984     0.001800     NO 
 RMS     Displacement     0.062624     0.001200     NO 
 Predicted change in Energy=-5.764329D-02
 GradGradGradGradGradGradGradGradGradGradGradGradGradGradGradGradGradGrad

                          Input orientation:                          
 ---------------------------------------------------------------------
 Center     Atomic      Atomic             Coordinates (Angstroms)
 Number     Number       Type             X           Y           Z
 ---------------------------------------------------------------------
      1          1           0       -2.007214    0.000000   -0.795376
      2          6           0       -1.117819    0.000000   -0.252975
      3          1           0        0.457959    0.000000   -1.722319
      4          6           0        0.156345    0.000000   -0.725801
      5          1           0        1.989992    0.000000    0.419070
      6          6           0        0.948386    0.000000    0.393982
      7          7           0        0.209646    0.000000    1.482494
      8          1           0       -1.768165    0.000000    1.689453
      9          7           0       -1.009755    0.000000    1.067722
 ---------------------------------------------------------------------
                    Distance matrix (angstroms):
                    1          2          3          4          5
     1  H    0.000000
     2  C    1.041740   0.000000
     3  H    2.633687   2.154542   0.000000
     4  C    2.164678   1.359066   1.041163   0.000000
     5  H    4.177624   3.179644   2.632998   2.161710   0.000000
     6  C    3.185929   2.165123   2.172383   1.371584   1.041908
     7  N    3.178547   2.184952   3.214419   2.208939   2.073766
     8  H    2.496301   2.048409   4.073797   3.088235   3.967067
     9  N    2.113305   1.325111   3.152541   2.139279   3.069077
                    6          7          8          9
     6  C    0.000000
     7  N    1.315522   0.000000
     8  H    3.009634   1.988609   0.000000
     9  N    2.070807   1.288012   0.980681   0.000000
 Stoichiometry    C3H4N2
 Framework group  CS[SG(C3H4N2)]
 Deg. of freedom    15
 Full point group                 CS      NOp   2
 Largest Abelian subgroup         CS      NOp   2
 Largest concise Abelian subgroup C1      NOp   1
                         Standard orientation:                         
 ---------------------------------------------------------------------
 Center     Atomic      Atomic             Coordinates (Angstroms)
 Number     Number       Type             X           Y           Z
 ---------------------------------------------------------------------
      1          1           0        2.069394    0.633391    0.000000
      2          6           0        1.082991    0.298380    0.000000
      3          1           0        1.200793   -1.852939    0.000000
      4          6           0        0.629221   -0.982695    0.000000
      5          1           0       -1.424853   -1.656321    0.000000
      6          6           0       -0.737961   -0.872897    0.000000
      7          7           0       -1.099962    0.391837    0.000000
      8          1           0        0.008894    2.042597    0.000000
      9          7           0        0.000000    1.061956    0.000000
 ---------------------------------------------------------------------
 Rotational constants (GHZ):     10.1302853      9.9588832      5.0219265
 Standard basis: TZVP (5D, 7F)
 There are    90 symmetry adapted basis functions of A'  symmetry.
 There are    29 symmetry adapted basis functions of A"  symmetry.
 Integral buffers will be    131072 words long.
 Raffenetti 1 integral format.
 Two-electron integral symmetry is turned on.
   119 basis functions,   207 primitive gaussians,   124 cartesian basis functions
    18 alpha electrons       18 beta electrons
       nuclear repulsion energy       167.3861041385 Hartrees.
 NAtoms=    9 NActive=    9 NUniq=    9 SFac= 7.50D-01 NAtFMM=   80 NAOKFM=F Big=F
 One-electron integrals computed using PRISM.
 NBasis=   119 RedAO= T  NBF=    90    29
 NBsUse=   119 1.00D-06 NBFU=    90    29
 Initial guess read from the read-write file.
 B after Tr=     0.000000    0.000000    0.000000
         Rot=    1.000000    0.000000    0.000000    0.000000 Ang=   0.00 deg.
 Initial guess orbital symmetries:
       Occupied  (A') (A') (A') (A') (A') (A') (A') (A') (A') (A')
                 (A') (A') (A") (A') (A') (A') (A") (A")
       Virtual   (A') (A") (A') (A') (A') (A") (A') (A') (A') (A")
                 (A') (A') (A") (A') (A") (A') (A') (A') (A') (A")
                 (A') (A') (A') (A") (A') (A') (A') (A') (A') (A')
                 (A') (A') (A') (A') (A') (A") (A') (A') (A') (A")
                 (A") (A') (A') (A") (A") (A") (A') (A') (A") (A")
                 (A') (A') (A') (A') (A') (A') (A") (A') (A') (A")
                 (A') (A") (A') (A") (A') (A") (A') (A') (A') (A")
                 (A') (A') (A") (A") (A') (A') (A') (A') (A') (A')
                 (A") (A') (A") (A') (A') (A") (A') (A') (A') (A')
                 (A') (A') (A') (A') (A') (A') (A') (A') (A') (A')
                 (A')
 Harris functional with IExCor=  205 diagonalized for initial guess.
 ExpMin= 9.52D-02 ExpMax= 1.97D+04 ExpMxC= 6.73D+02 IAcc=2 IRadAn=         0 AccDes= 0.00D+00
 HarFok:  IExCor=  205 AccDes= 0.00D+00 IRadAn=         0 IDoV= 1
 ScaDFX=  1.000000  1.000000  1.000000  1.000000
 FoFCou: FMM=F IPFlag=           0 FMFlag=      100000 FMFlg1=           0
         NFxFlg=           0 DoJE=T BraDBF=F KetDBF=T FulRan=T
         Omega=  0.000000  0.000000  1.000000  0.000000  0.000000 ICntrl=     500 IOpCl=  0
         NMat0=    1 NMatS0=    1 NMatT0=    0 NMatD0=    1 NMtDS0=    0 NMtDT0=    0
         I1Cent=           4 NGrid=           0.
 Petite list used in FoFCou.
 Requested convergence on RMS density matrix=1.00D-08 within 128 cycles.
 Requested convergence on MAX density matrix=1.00D-06.
 Requested convergence on             energy=1.00D-06.
 No special actions if energy rises.
 Integral accuracy reduced to 1.0D-05 until final iterations.
 Initial convergence to 1.0D-05 achieved.  Increase integral accuracy.
 SCF Done:  E(RHF) =  -224.860103317     A.U. after   13 cycles
             Convg  =    0.7061D-08             -V/T =  1.9983
 ExpMin= 9.52D-02 ExpMax= 1.97D+04 ExpMxC= 6.73D+02 IAcc=3 IRadAn=         5 AccDes= 0.00D+00
 HarFok:  IExCor=  205 AccDes= 0.00D+00 IRadAn=         5 IDoV=-2
 ScaDFX=  1.000000  1.000000  1.000000  1.000000
 Range of M.O.s used for correlation:     6   119
 NBasis=   119 NAE=    18 NBE=    18 NFC=     5 NFV=     0
 NROrb=    114 NOA=    13 NOB=    13 NVA=   101 NVB=   101

 **** Warning!!: The largest alpha MO coefficient is  0.20224405D+02

 Fully direct method using O(ONN) memory.
 JobTyp=1 Pass  1:  I=   6 to  18 NPSUse=  1 ParTrn=F ParDer=F DoDerP=T.
 Spin components of T(2) and E(2):
     alpha-alpha T2 =       0.3429403251D-01 E2=     -0.1015668775D+00
     alpha-beta  T2 =       0.1798114236D+00 E2=     -0.5557037669D+00
     beta-beta   T2 =       0.3429403251D-01 E2=     -0.1015668775D+00
 ANorm=    0.1117317989D+01
 E2 =    -0.7588375218D+00 EUMP2 =    -0.22561894083877D+03
          IDoAtm=111111111
          Differentiating once with respect to electric field.
                with respect to dipole field.
          Differentiating once with respect to nuclear coordinates.
          There are     1 degrees of freedom in the 1st order CPHF.  IDoFFX=0.
 LinEq1:  Iter=  0 NonCon=     1 RMS=4.63D-03 Max=5.38D-02
 AX will form     1 AO Fock derivatives at one time.
 LinEq1:  Iter=  1 NonCon=     1 RMS=1.19D-03 Max=1.68D-02
 LinEq1:  Iter=  2 NonCon=     1 RMS=4.76D-04 Max=9.52D-03
 LinEq1:  Iter=  3 NonCon=     1 RMS=1.63D-04 Max=3.40D-03
 LinEq1:  Iter=  4 NonCon=     1 RMS=8.30D-05 Max=1.60D-03
 LinEq1:  Iter=  5 NonCon=     1 RMS=2.01D-05 Max=1.73D-04
 LinEq1:  Iter=  6 NonCon=     1 RMS=3.34D-06 Max=4.34D-05
 LinEq1:  Iter=  7 NonCon=     1 RMS=9.44D-07 Max=1.33D-05
 LinEq1:  Iter=  8 NonCon=     1 RMS=3.95D-07 Max=7.70D-06
 LinEq1:  Iter=  9 NonCon=     1 RMS=9.52D-08 Max=1.46D-06
 LinEq1:  Iter= 10 NonCon=     1 RMS=3.04D-08 Max=2.71D-07
 LinEq1:  Iter= 11 NonCon=     1 RMS=1.20D-08 Max=1.55D-07
 LinEq1:  Iter= 12 NonCon=     1 RMS=3.40D-09 Max=6.12D-08
 LinEq1:  Iter= 13 NonCon=     1 RMS=1.16D-09 Max=1.09D-08
 LinEq1:  Iter= 14 NonCon=     1 RMS=2.40D-10 Max=2.09D-09
 LinEq1:  Iter= 15 NonCon=     0 RMS=3.66D-11 Max=2.64D-10
 Linear equations converged to 1.000D-10 1.000D-09 after    15 iterations.
 End of Minotr Frequency-dependent properties file   721 does not exist.
 End of Minotr Frequency-dependent properties file   722 does not exist.
 Calling FoFJK, ICntrl=      2127 FMM=F ISym2X=1 I1Cent= 0 IOpClX= 0 NMat=1 NMatS=1 NMatT=0.
 ***** Axes restored to original set *****
 -------------------------------------------------------------------
 Center     Atomic                   Forces (Hartrees/Bohr)
 Number     Number              X              Y              Z
 -------------------------------------------------------------------
      1        1          -0.027889831    0.000000000   -0.008096293
      2        6           0.001576486    0.000000000   -0.023020220
      3        1           0.007467950    0.000000000   -0.027278316
      4        6          -0.000655262    0.000000000   -0.008831830
      5        1           0.027928284    0.000000000    0.007216746
      6        6           0.002428485    0.000000000   -0.007107749
      7        7           0.037341766    0.000000000    0.052835881
      8        1          -0.016802699    0.000000000    0.022254371
      9        7          -0.031395180    0.000000000   -0.007972590
 -------------------------------------------------------------------
 Cartesian Forces:  Max     0.052835881 RMS     0.018414416

 GradGradGradGradGradGradGradGradGradGradGradGradGradGradGradGradGradGrad
 Berny optimization.
 Using GEDIIS/GDIIS optimizer.
 Internal  Forces:  Max     0.051109134 RMS     0.016665050
 Search for a local minimum.
 Step number   2 out of a maximum of   48
 All quantities printed in internal units (Hartrees-Bohrs-Radians)
 Mixed Optimization -- RFO/linear search
 Update second derivatives using D2CorX and points    1    2
 DE= -5.48D-02 DEPred=-5.76D-02 R= 9.50D-01
 SS=  1.41D+00  RLast= 3.00D-01 DXNew= 5.0454D-01 9.0000D-01
 Trust test= 9.50D-01 RLast= 3.00D-01 DXMaxT set to 5.05D-01
 Use linear search instead of GDIIS.
     Eigenvalues ---    0.03204   0.03247   0.03260   0.03273   0.03343
     Eigenvalues ---    0.03374   0.15875   0.16000   0.16000   0.16028
     Eigenvalues ---    0.22020   0.23743   0.49444   0.49711   0.51097
     Eigenvalues ---    0.57121   0.58132   0.61461   0.68398   0.72475
     Eigenvalues ---    0.810051000.000001000.000001000.000001000.00000
     Eigenvalues --- 1000.000001000.000001000.000001000.000001000.00000
     Eigenvalues --- 1000.000001000.000001000.000001000.000001000.00000
     Eigenvalues --- 1000.000001000.000001000.00000
 RFO step:  Lambda=-2.54633940D-03 EMin= 3.20414980D-02
 Quartic linear search produced a step of  0.69466.
 Iteration  1 RMS(Cart)=  0.05107258 RMS(Int)=  0.00124695
 Iteration  2 RMS(Cart)=  0.00143054 RMS(Int)=  0.00004626
 Iteration  3 RMS(Cart)=  0.00000220 RMS(Int)=  0.00004622
 Iteration  4 RMS(Cart)=  0.00000000 RMS(Int)=  0.00004622
 ClnCor:  largest displacement from symmetrization is 7.59D-12 for atom     6.
 Variable       Old X    -DE/DX   Delta X   Delta X   Delta X     New X
                                 (Linear)    (Quad)   (Total)
    R1        1.96860   0.02803   0.06927   0.00064   0.06991   2.03851
    R2        2.56826   0.02838   0.05223   0.00239   0.05455   2.62281
    R3        2.50410   0.03649   0.06648  -0.00503   0.06142   2.56552
    R4        1.96751   0.02827   0.06893   0.00183   0.07075   2.03827
    R5        2.59192   0.03721   0.07986  -0.01572   0.06413   2.65604
    R6        1.96892   0.02809   0.06731   0.00411   0.07142   2.04034
    R7        2.48598   0.03017   0.04687   0.00676   0.05369   2.53967
    R8        2.43399   0.05111   0.06365   0.01707   0.08078   2.51477
    R9        1.85322   0.02710   0.05722  -0.00239   0.05483   1.90805
    A1        2.23862   0.00763   0.02508   0.04571   0.07085   2.30947
    A2        2.20007  -0.00735  -0.00895  -0.06188  -0.07077   2.12930
    A3        1.84449  -0.00027  -0.01613   0.01617  -0.00008   1.84441
    A4        2.22003  -0.00172  -0.00225   0.00057  -0.00162   2.21841
    A5        1.83108   0.00196  -0.00603  -0.00161  -0.00774   1.82334
    A6        2.23207  -0.00024   0.00827   0.00104   0.00936   2.24143
    A7        2.21050   0.00343   0.00916   0.03741   0.04655   2.25705
    A8        1.92971   0.00603   0.02425  -0.00129   0.02300   1.95270
    A9        2.14298  -0.00945  -0.03341  -0.03612  -0.06955   2.07343
   A10        1.83919  -0.00839  -0.03425   0.00876  -0.02532   1.81387
   A11        1.98031   0.00067   0.03215  -0.02203   0.01014   1.99045
   A12        2.17584   0.00574   0.00278   0.04745   0.05022   2.22607
   A13        2.12704  -0.00641  -0.03493  -0.02543  -0.06037   2.06667
    D1        0.00000   0.00000   0.00000   0.00000   0.00000   0.00000
    D2        3.14159   0.00000   0.00000   0.00000   0.00000   3.14159
    D3        3.14159   0.00000   0.00000   0.00000   0.00000   3.14159
    D4        0.00000   0.00000   0.00000   0.00000   0.00000   0.00000
    D5        3.14159   0.00000   0.00000   0.00000   0.00000   3.14159
    D6        0.00000   0.00000   0.00000   0.00000   0.00000   0.00000
    D7        0.00000   0.00000   0.00000   0.00000   0.00000   0.00000
    D8        3.14159   0.00000   0.00000   0.00000   0.00000   3.14159
    D9        3.14159   0.00000   0.00000   0.00000   0.00000   3.14159
   D10        0.00000   0.00000   0.00000   0.00000   0.00000   0.00000
   D11        0.00000   0.00000   0.00000   0.00000   0.00000   0.00000
   D12        3.14159   0.00000   0.00000   0.00000   0.00000   3.14159
   D13        0.00000   0.00000   0.00000   0.00000   0.00000   0.00000
   D14        3.14159   0.00000   0.00000   0.00000   0.00000   3.14159
   D15        0.00000   0.00000   0.00000   0.00000   0.00000   0.00000
   D16        3.14159   0.00000   0.00000   0.00000   0.00000   3.14159
         Item               Value     Threshold  Converged?
 Maximum Force            0.051109     0.000450     NO 
 RMS     Force            0.016665     0.000300     NO 
 Maximum Displacement     0.155716     0.001800     NO 
 RMS     Displacement     0.051018     0.001200     NO 
 Predicted change in Energy=-7.996478D-03
 GradGradGradGradGradGradGradGradGradGradGradGradGradGradGradGradGradGrad

                          Input orientation:                          
 ---------------------------------------------------------------------
 Center     Atomic      Atomic             Coordinates (Angstroms)
 Number     Number       Type             X           Y           Z
 ---------------------------------------------------------------------
      1          1           0       -2.089616    0.000000   -0.787462
      2          6           0       -1.133461    0.000000   -0.288031
      3          1           0        0.485462    0.000000   -1.796373
      4          6           0        0.169959    0.000000   -0.764945
      5          1           0        2.043399    0.000000    0.481899
      6          6           0        0.967408    0.000000    0.392446
      7          7           0        0.224639    0.000000    1.512472
      8          1           0       -1.779593    0.000000    1.740699
      9          7           0       -1.028824    0.000000    1.065543
 ---------------------------------------------------------------------
                    Distance matrix (angstroms):
                    1          2          3          4          5
     1  H    0.000000
     2  C    1.078733   0.000000
     3  H    2.765670   2.212693   0.000000
     4  C    2.259687   1.387930   1.078603   0.000000
     5  H    4.323551   3.268827   2.760016   2.250422   0.000000
     6  C    3.276825   2.208325   2.241250   1.405518   1.079703
     7  N    3.262740   2.255271   3.319108   2.278073   2.090446
     8  H    2.547099   2.129139   4.200161   3.174745   4.024903
     9  N    2.135160   1.357612   3.237843   2.188097   3.127170
                    6          7          8          9
     6  C    0.000000
     7  N    1.343935   0.000000
     8  H    3.060033   2.017185   0.000000
     9  N    2.106657   1.330758   1.009698   0.000000
 Stoichiometry    C3H4N2
 Framework group  CS[SG(C3H4N2)]
 Deg. of freedom    15
 Full point group                 CS      NOp   2
 Largest Abelian subgroup         CS      NOp   2
 Largest concise Abelian subgroup C1      NOp   1
                         Standard orientation:                         
 ---------------------------------------------------------------------
 Center     Atomic      Atomic             Coordinates (Angstroms)
 Number     Number       Type             X           Y           Z
 ---------------------------------------------------------------------
      1          1           0        2.105757    0.727187    0.000000
      2          6           0        1.113597    0.303770    0.000000
      3          1           0        1.255054   -1.904396    0.000000
      4          6           0        0.656875   -1.006862    0.000000
      5          1           0       -1.494693   -1.666523    0.000000
      6          6           0       -0.743831   -0.890659    0.000000
      7          7           0       -1.139884    0.393593    0.000000
      8          1           0       -0.046774    2.088923    0.000000
      9          7           0        0.000000    1.080309    0.000000
 ---------------------------------------------------------------------
 Rotational constants (GHZ):      9.6756719      9.4281052      4.7751422
 Standard basis: TZVP (5D, 7F)
 There are    90 symmetry adapted basis functions of A'  symmetry.
 There are    29 symmetry adapted basis functions of A"  symmetry.
 Integral buffers will be    131072 words long.
 Raffenetti 1 integral format.
 Two-electron integral symmetry is turned on.
   119 basis functions,   207 primitive gaussians,   124 cartesian basis functions
    18 alpha electrons       18 beta electrons
       nuclear repulsion energy       163.1454068133 Hartrees.
 NAtoms=    9 NActive=    9 NUniq=    9 SFac= 7.50D-01 NAtFMM=   80 NAOKFM=F Big=F
 One-electron integrals computed using PRISM.
 NBasis=   119 RedAO= T  NBF=    90    29
 NBsUse=   119 1.00D-06 NBFU=    90    29
 Initial guess read from the read-write file.
 B after Tr=     0.000000    0.000000    0.000000
         Rot=    1.000000    0.000000    0.000000    0.000000 Ang=   0.00 deg.
 Initial guess orbital symmetries:
       Occupied  (A') (A') (A') (A') (A') (A') (A') (A') (A') (A')
                 (A') (A') (A") (A') (A') (A') (A") (A")
       Virtual   (A') (A") (A') (A') (A') (A") (A') (A') (A') (A')
                 (A") (A') (A") (A') (A") (A') (A') (A') (A') (A")
                 (A') (A') (A') (A') (A") (A') (A') (A') (A') (A')
                 (A') (A') (A') (A') (A') (A") (A') (A') (A") (A')
                 (A") (A') (A') (A") (A") (A') (A') (A") (A") (A")
                 (A') (A') (A') (A') (A') (A') (A") (A') (A') (A")
                 (A") (A') (A") (A') (A') (A") (A') (A') (A') (A")
                 (A') (A') (A") (A") (A') (A') (A') (A') (A') (A')
                 (A") (A') (A') (A") (A') (A") (A') (A') (A') (A')
                 (A') (A') (A') (A') (A') (A') (A') (A') (A') (A')
                 (A')
 Harris functional with IExCor=  205 diagonalized for initial guess.
 ExpMin= 9.52D-02 ExpMax= 1.97D+04 ExpMxC= 6.73D+02 IAcc=2 IRadAn=         0 AccDes= 0.00D+00
 HarFok:  IExCor=  205 AccDes= 0.00D+00 IRadAn=         0 IDoV= 1
 ScaDFX=  1.000000  1.000000  1.000000  1.000000
 FoFCou: FMM=F IPFlag=           0 FMFlag=      100000 FMFlg1=           0
         NFxFlg=           0 DoJE=T BraDBF=F KetDBF=T FulRan=T
         Omega=  0.000000  0.000000  1.000000  0.000000  0.000000 ICntrl=     500 IOpCl=  0
         NMat0=    1 NMatS0=    1 NMatT0=    0 NMatD0=    1 NMtDS0=    0 NMtDT0=    0
         I1Cent=           4 NGrid=           0.
 Petite list used in FoFCou.
 Requested convergence on RMS density matrix=1.00D-08 within 128 cycles.
 Requested convergence on MAX density matrix=1.00D-06.
 Requested convergence on             energy=1.00D-06.
 No special actions if energy rises.
 Integral accuracy reduced to 1.0D-05 until final iterations.
 Initial convergence to 1.0D-05 achieved.  Increase integral accuracy.
 SCF Done:  E(RHF) =  -224.862342378     A.U. after   13 cycles
             Convg  =    0.9592D-08             -V/T =  2.0014
 ExpMin= 9.52D-02 ExpMax= 1.97D+04 ExpMxC= 6.73D+02 IAcc=3 IRadAn=         5 AccDes= 0.00D+00
 HarFok:  IExCor=  205 AccDes= 0.00D+00 IRadAn=         5 IDoV=-2
 ScaDFX=  1.000000  1.000000  1.000000  1.000000
 Range of M.O.s used for correlation:     6   119
 NBasis=   119 NAE=    18 NBE=    18 NFC=     5 NFV=     0
 NROrb=    114 NOA=    13 NOB=    13 NVA=   101 NVB=   101

 **** Warning!!: The largest alpha MO coefficient is  0.20240658D+02

 Fully direct method using O(ONN) memory.
 JobTyp=1 Pass  1:  I=   6 to  18 NPSUse=  1 ParTrn=F ParDer=F DoDerP=T.
 Spin components of T(2) and E(2):
     alpha-alpha T2 =       0.3561700202D-01 E2=     -0.1021579864D+00
     alpha-beta  T2 =       0.1886902637D+00 E2=     -0.5629939534D+00
     beta-beta   T2 =       0.3561700202D-01 E2=     -0.1021579864D+00
 ANorm=    0.1122463482D+01
 E2 =    -0.7673099263D+00 EUMP2 =    -0.22562965230443D+03
          IDoAtm=111111111
          Differentiating once with respect to electric field.
                with respect to dipole field.
          Differentiating once with respect to nuclear coordinates.
          There are     1 degrees of freedom in the 1st order CPHF.  IDoFFX=0.
 LinEq1:  Iter=  0 NonCon=     1 RMS=4.98D-03 Max=6.60D-02
 AX will form     1 AO Fock derivatives at one time.
 LinEq1:  Iter=  1 NonCon=     1 RMS=1.36D-03 Max=2.06D-02
 LinEq1:  Iter=  2 NonCon=     1 RMS=5.71D-04 Max=1.23D-02
 LinEq1:  Iter=  3 NonCon=     1 RMS=2.18D-04 Max=4.61D-03
 LinEq1:  Iter=  4 NonCon=     1 RMS=1.07D-04 Max=1.83D-03
 LinEq1:  Iter=  5 NonCon=     1 RMS=2.40D-05 Max=2.17D-04
 LinEq1:  Iter=  6 NonCon=     1 RMS=4.07D-06 Max=6.62D-05
 LinEq1:  Iter=  7 NonCon=     1 RMS=1.06D-06 Max=1.78D-05
 LinEq1:  Iter=  8 NonCon=     1 RMS=5.78D-07 Max=1.43D-05
 LinEq1:  Iter=  9 NonCon=     1 RMS=1.29D-07 Max=1.91D-06
 LinEq1:  Iter= 10 NonCon=     1 RMS=5.49D-08 Max=8.39D-07
 LinEq1:  Iter= 11 NonCon=     1 RMS=1.65D-08 Max=1.07D-07
 LinEq1:  Iter= 12 NonCon=     1 RMS=4.04D-09 Max=4.00D-08
 LinEq1:  Iter= 13 NonCon=     1 RMS=1.10D-09 Max=1.00D-08
 LinEq1:  Iter= 14 NonCon=     1 RMS=3.39D-10 Max=2.09D-09
 LinEq1:  Iter= 15 NonCon=     0 RMS=6.08D-11 Max=5.73D-10
 Linear equations converged to 1.000D-10 1.000D-09 after    15 iterations.
 End of Minotr Frequency-dependent properties file   721 does not exist.
 End of Minotr Frequency-dependent properties file   722 does not exist.
 Calling FoFJK, ICntrl=      2127 FMM=F ISym2X=1 I1Cent= 0 IOpClX= 0 NMat=1 NMatS=1 NMatT=0.
 ***** Axes restored to original set *****
 -------------------------------------------------------------------
 Center     Atomic                   Forces (Hartrees/Bohr)
 Number     Number              X              Y              Z
 -------------------------------------------------------------------
      1        1           0.001295802    0.000000000    0.000947174
      2        6           0.002627290    0.000000000   -0.003578337
      3        1          -0.000580569    0.000000000    0.001909062
      4        6          -0.003075725    0.000000000    0.002188219
      5        1          -0.001682279    0.000000000   -0.000817892
      6        6           0.002108579    0.000000000   -0.000654961
      7        7           0.009449846    0.000000000    0.002636639
      8        1           0.000785111    0.000000000   -0.001707352
      9        7          -0.010928055    0.000000000   -0.000922552
 -------------------------------------------------------------------
 Cartesian Forces:  Max     0.010928055 RMS     0.003156087

 GradGradGradGradGradGradGradGradGradGradGradGradGradGradGradGradGradGrad
 Berny optimization.
 Using GEDIIS/GDIIS optimizer.
 Internal  Forces:  Max     0.009426549 RMS     0.001901190
 Search for a local minimum.
 Step number   3 out of a maximum of   48
 All quantities printed in internal units (Hartrees-Bohrs-Radians)
 Mixed Optimization -- RFO/linear search
 Update second derivatives using D2CorX and points    1    2    3
 DE= -1.07D-02 DEPred=-8.00D-03 R= 1.34D+00
 SS=  1.41D+00  RLast= 2.51D-01 DXNew= 8.4853D-01 7.5234D-01
 Trust test= 1.34D+00 RLast= 2.51D-01 DXMaxT set to 7.52D-01
 Use linear search instead of GDIIS.
     Eigenvalues ---    0.03203   0.03248   0.03250   0.03273   0.03342
     Eigenvalues ---    0.03372   0.15210   0.16000   0.16004   0.16021
     Eigenvalues ---    0.22065   0.23483   0.47182   0.49517   0.49715
     Eigenvalues ---    0.57371   0.58775   0.59970   0.66055   0.68845
     Eigenvalues ---    0.808331000.000001000.000001000.000001000.00000
     Eigenvalues --- 1000.000001000.000001000.000001000.000001000.00000
     Eigenvalues --- 1000.000001000.000001000.000001000.000001000.00000
     Eigenvalues --- 1000.000001000.000001000.00000
 RFO step:  Lambda=-2.08848269D-04 EMin= 3.20285727D-02
 Quartic linear search produced a step of -0.00564.
 Iteration  1 RMS(Cart)=  0.00418669 RMS(Int)=  0.00000972
 Iteration  2 RMS(Cart)=  0.00001090 RMS(Int)=  0.00000164
 Iteration  3 RMS(Cart)=  0.00000000 RMS(Int)=  0.00000164
 ClnCor:  largest displacement from symmetrization is 1.08D-13 for atom     5.
 Variable       Old X    -DE/DX   Delta X   Delta X   Delta X     New X
                                 (Linear)    (Quad)   (Total)
    R1        2.03851  -0.00159  -0.00039  -0.00203  -0.00243   2.03608
    R2        2.62281  -0.00362  -0.00031  -0.00609  -0.00639   2.61642
    R3        2.56552  -0.00014  -0.00035   0.00135   0.00100   2.56652
    R4        2.03827  -0.00200  -0.00040  -0.00284  -0.00324   2.03502
    R5        2.65604  -0.00071  -0.00036  -0.00104  -0.00140   2.65464
    R6        2.04034  -0.00174  -0.00040  -0.00238  -0.00279   2.03756
    R7        2.53967  -0.00014  -0.00030   0.00091   0.00061   2.54028
    R8        2.51477   0.00943  -0.00046   0.01289   0.01243   2.52720
    R9        1.90805  -0.00173  -0.00031  -0.00191  -0.00221   1.90584
    A1        2.30947   0.00003  -0.00040   0.00228   0.00188   2.31135
    A2        2.12930  -0.00046   0.00040  -0.00181  -0.00141   2.12789
    A3        1.84441   0.00042   0.00000  -0.00047  -0.00047   1.84394
    A4        2.21841  -0.00147   0.00001  -0.00328  -0.00328   2.21513
    A5        1.82334   0.00295   0.00004   0.00641   0.00646   1.82980
    A6        2.24143  -0.00148  -0.00005  -0.00313  -0.00318   2.23825
    A7        2.25705  -0.00066  -0.00026  -0.00262  -0.00288   2.25417
    A8        1.95270  -0.00006  -0.00013  -0.00223  -0.00235   1.95035
    A9        2.07343   0.00072   0.00039   0.00485   0.00524   2.07867
   A10        1.81387  -0.00164   0.00014  -0.00107  -0.00093   1.81294
   A11        1.99045  -0.00168  -0.00006  -0.00265  -0.00271   1.98774
   A12        2.22607   0.00013  -0.00028  -0.00259  -0.00287   2.22320
   A13        2.06667   0.00155   0.00034   0.00523   0.00557   2.07224
    D1        0.00000   0.00000   0.00000   0.00000   0.00000   0.00000
    D2        3.14159   0.00000   0.00000   0.00000   0.00000   3.14159
    D3        3.14159   0.00000   0.00000   0.00000   0.00000   3.14159
    D4        0.00000   0.00000   0.00000   0.00000   0.00000   0.00000
    D5        3.14159   0.00000   0.00000   0.00000   0.00000   3.14159
    D6        0.00000   0.00000   0.00000   0.00000   0.00000   0.00000
    D7        0.00000   0.00000   0.00000   0.00000   0.00000   0.00000
    D8        3.14159   0.00000   0.00000   0.00000   0.00000   3.14159
    D9        3.14159   0.00000   0.00000   0.00000   0.00000   3.14159
   D10        0.00000   0.00000   0.00000   0.00000   0.00000   0.00000
   D11        0.00000   0.00000   0.00000   0.00000   0.00000   0.00000
   D12        3.14159   0.00000   0.00000   0.00000   0.00000   3.14159
   D13        0.00000   0.00000   0.00000   0.00000   0.00000   0.00000
   D14        3.14159   0.00000   0.00000   0.00000   0.00000   3.14159
   D15        0.00000   0.00000   0.00000   0.00000   0.00000   0.00000
   D16        3.14159   0.00000   0.00000   0.00000   0.00000   3.14159
         Item               Value     Threshold  Converged?
 Maximum Force            0.009427     0.000450     NO 
 RMS     Force            0.001901     0.000300     NO 
 Maximum Displacement     0.012731     0.001800     NO 
 RMS     Displacement     0.004185     0.001200     NO 
 Predicted change in Energy=-1.046695D-04
 GradGradGradGradGradGradGradGradGradGradGradGradGradGradGradGradGradGrad

                          Input orientation:                          
 ---------------------------------------------------------------------
 Center     Atomic      Atomic             Coordinates (Angstroms)
 Number     Number       Type             X           Y           Z
 ---------------------------------------------------------------------
      1          1           0       -2.087482    0.000000   -0.788177
      2          6           0       -1.132876    0.000000   -0.288556
      3          1           0        0.483054    0.000000   -1.790765
      4          6           0        0.168648    0.000000   -0.760797
      5          1           0        2.045114    0.000000    0.475163
      6          6           0        0.970023    0.000000    0.392976
      7          7           0        0.228656    0.000000    1.514315
      8          1           0       -1.784544    0.000000    1.736316
      9          7           0       -1.031218    0.000000    1.065776
 ---------------------------------------------------------------------
                    Distance matrix (angstroms):
                    1          2          3          4          5
     1  H    0.000000
     2  C    1.077448   0.000000
     3  H    2.759137   2.206323   0.000000
     4  C    2.256296   1.384549   1.076887   0.000000
     5  H    4.321387   3.268469   2.752174   2.246936   0.000000
     6  C    3.277722   2.210581   2.237379   1.404775   1.078228
     7  N    3.265878   2.259228   3.314856   2.275903   2.092692
     8  H    2.542604   2.127152   4.193126   3.170257   4.031971
     9  N    2.133737   1.358142   3.233086   2.185417   3.132514
                    6          7          8          9
     6  C    0.000000
     7  N    1.344256   0.000000
     8  H    3.064670   2.025403   0.000000
     9  N    2.111309   1.337336   1.008526   0.000000
 Stoichiometry    C3H4N2
 Framework group  CS[SG(C3H4N2)]
 Deg. of freedom    15
 Full point group                 CS      NOp   2
 Largest Abelian subgroup         CS      NOp   2
 Largest concise Abelian subgroup C1      NOp   1
                         Standard orientation:                         
 ---------------------------------------------------------------------
 Center     Atomic      Atomic             Coordinates (Angstroms)
 Number     Number       Type             X           Y           Z
 ---------------------------------------------------------------------
      1          1           0        2.104405    0.729557    0.000000
      2          6           0        1.114013    0.305271    0.000000
      3          1           0        1.257480   -1.896382    0.000000
      4          6           0        0.657760   -1.001943    0.000000
      5          1           0       -1.485822   -1.675573    0.000000
      6          6           0       -0.742874   -0.894161    0.000000
      7          7           0       -1.143664    0.388958    0.000000
      8          1           0       -0.043806    2.089713    0.000000
      9          7           0        0.000000    1.082139    0.000000
 ---------------------------------------------------------------------
 Rotational constants (GHZ):      9.6499412      9.4384821      4.7715202
 Standard basis: TZVP (5D, 7F)
 There are    90 symmetry adapted basis functions of A'  symmetry.
 There are    29 symmetry adapted basis functions of A"  symmetry.
 Integral buffers will be    131072 words long.
 Raffenetti 1 integral format.
 Two-electron integral symmetry is turned on.
   119 basis functions,   207 primitive gaussians,   124 cartesian basis functions
    18 alpha electrons       18 beta electrons
       nuclear repulsion energy       163.0740352311 Hartrees.
 NAtoms=    9 NActive=    9 NUniq=    9 SFac= 7.50D-01 NAtFMM=   80 NAOKFM=F Big=F
 One-electron integrals computed using PRISM.
 NBasis=   119 RedAO= T  NBF=    90    29
 NBsUse=   119 1.00D-06 NBFU=    90    29
 Initial guess read from the read-write file.
 B after Tr=     0.000000    0.000000    0.000000
         Rot=    1.000000    0.000000    0.000000    0.000000 Ang=   0.00 deg.
 Initial guess orbital symmetries:
       Occupied  (A') (A') (A') (A') (A') (A') (A') (A') (A') (A')
                 (A') (A') (A") (A') (A') (A') (A") (A")
       Virtual   (A') (A") (A') (A') (A") (A') (A') (A') (A') (A')
                 (A") (A') (A") (A') (A') (A") (A') (A') (A') (A')
                 (A") (A') (A') (A') (A") (A') (A') (A') (A') (A')
                 (A') (A') (A') (A') (A') (A") (A') (A") (A') (A')
                 (A") (A') (A') (A") (A") (A') (A') (A") (A") (A")
                 (A') (A') (A') (A') (A') (A') (A") (A') (A") (A')
                 (A") (A') (A") (A') (A') (A') (A") (A') (A') (A')
                 (A") (A") (A') (A') (A") (A') (A') (A') (A') (A")
                 (A') (A') (A') (A") (A') (A") (A') (A') (A') (A')
                 (A') (A') (A') (A') (A') (A') (A') (A') (A') (A')
                 (A')
 Requested convergence on RMS density matrix=1.00D-08 within 128 cycles.
 Requested convergence on MAX density matrix=1.00D-06.
 Requested convergence on             energy=1.00D-06.
 No special actions if energy rises.
 SCF Done:  E(RHF) =  -224.862427436     A.U. after   11 cycles
             Convg  =    0.6746D-08             -V/T =  2.0014
 ExpMin= 9.52D-02 ExpMax= 1.97D+04 ExpMxC= 6.73D+02 IAcc=3 IRadAn=         5 AccDes= 0.00D+00
 HarFok:  IExCor=  205 AccDes= 0.00D+00 IRadAn=         5 IDoV=-2
 ScaDFX=  1.000000  1.000000  1.000000  1.000000
 Range of M.O.s used for correlation:     6   119
 NBasis=   119 NAE=    18 NBE=    18 NFC=     5 NFV=     0
 NROrb=    114 NOA=    13 NOB=    13 NVA=   101 NVB=   101

 **** Warning!!: The largest alpha MO coefficient is  0.20411148D+02

 Fully direct method using O(ONN) memory.
 JobTyp=1 Pass  1:  I=   6 to  18 NPSUse=  1 ParTrn=F ParDer=F DoDerP=T.
 Spin components of T(2) and E(2):
     alpha-alpha T2 =       0.3562250781D-01 E2=     -0.1021425429D+00
     alpha-beta  T2 =       0.1887645504D+00 E2=     -0.5630810630D+00
     beta-beta   T2 =       0.3562250781D-01 E2=     -0.1021425429D+00
 ANorm=    0.1122501477D+01
 E2 =    -0.7673661488D+00 EUMP2 =    -0.22562979358521D+03
          IDoAtm=111111111
          Differentiating once with respect to electric field.
                with respect to dipole field.
          Differentiating once with respect to nuclear coordinates.
          There are     1 degrees of freedom in the 1st order CPHF.  IDoFFX=0.
 LinEq1:  Iter=  0 NonCon=     1 RMS=5.01D-03 Max=6.95D-02
 AX will form     1 AO Fock derivatives at one time.
 LinEq1:  Iter=  1 NonCon=     1 RMS=1.37D-03 Max=2.11D-02
 LinEq1:  Iter=  2 NonCon=     1 RMS=5.78D-04 Max=1.27D-02
 LinEq1:  Iter=  3 NonCon=     1 RMS=2.20D-04 Max=4.66D-03
 LinEq1:  Iter=  4 NonCon=     1 RMS=1.08D-04 Max=1.86D-03
 LinEq1:  Iter=  5 NonCon=     1 RMS=2.41D-05 Max=2.18D-04
 LinEq1:  Iter=  6 NonCon=     1 RMS=4.14D-06 Max=7.16D-05
 LinEq1:  Iter=  7 NonCon=     1 RMS=1.16D-06 Max=1.98D-05
 LinEq1:  Iter=  8 NonCon=     1 RMS=6.54D-07 Max=1.64D-05
 LinEq1:  Iter=  9 NonCon=     1 RMS=1.48D-07 Max=2.07D-06
 LinEq1:  Iter= 10 NonCon=     1 RMS=6.40D-08 Max=9.80D-07
 LinEq1:  Iter= 11 NonCon=     1 RMS=1.74D-08 Max=1.37D-07
 LinEq1:  Iter= 12 NonCon=     1 RMS=4.32D-09 Max=4.83D-08
 LinEq1:  Iter= 13 NonCon=     1 RMS=1.34D-09 Max=1.15D-08
 LinEq1:  Iter= 14 NonCon=     1 RMS=3.63D-10 Max=2.12D-09
 LinEq1:  Iter= 15 NonCon=     0 RMS=6.27D-11 Max=6.12D-10
 Linear equations converged to 1.000D-10 1.000D-09 after    15 iterations.
 End of Minotr Frequency-dependent properties file   721 does not exist.
 End of Minotr Frequency-dependent properties file   722 does not exist.
 Calling FoFJK, ICntrl=      2127 FMM=F ISym2X=1 I1Cent= 0 IOpClX= 0 NMat=1 NMatS=1 NMatT=0.
 ***** Axes restored to original set *****
 -------------------------------------------------------------------
 Center     Atomic                   Forces (Hartrees/Bohr)
 Number     Number              X              Y              Z
 -------------------------------------------------------------------
      1        1           0.000555132    0.000000000    0.000371789
      2        6           0.001965014    0.000000000   -0.000885214
      3        1          -0.000107473    0.000000000    0.000603518
      4        6          -0.001080299    0.000000000    0.000082649
      5        1          -0.000739485    0.000000000   -0.000202426
      6        6          -0.000766385    0.000000000   -0.000161738
      7        7           0.004778810    0.000000000    0.001655517
      8        1           0.000702014    0.000000000   -0.000407092
      9        7          -0.005307329    0.000000000   -0.001057003
 -------------------------------------------------------------------
 Cartesian Forces:  Max     0.005307329 RMS     0.001531927

 GradGradGradGradGradGradGradGradGradGradGradGradGradGradGradGradGradGrad
 Berny optimization.
 Using GEDIIS/GDIIS optimizer.
 Internal  Forces:  Max     0.004009942 RMS     0.000827576
 Search for a local minimum.
 Step number   4 out of a maximum of   48
 All quantities printed in internal units (Hartrees-Bohrs-Radians)
 Mixed Optimization -- En-DIIS/RFO-DIIS
 Update second derivatives using D2CorX and points    1    2    3    4
 DE= -1.41D-04 DEPred=-1.05D-04 R= 1.35D+00
 SS=  1.41D+00  RLast= 1.96D-02 DXNew= 1.2653D+00 5.8863D-02
 Trust test= 1.35D+00 RLast= 1.96D-02 DXMaxT set to 7.52D-01
 Use linear search instead of GDIIS.
     Eigenvalues ---    0.03203   0.03247   0.03250   0.03273   0.03342
     Eigenvalues ---    0.03373   0.15195   0.15707   0.16005   0.16314
     Eigenvalues ---    0.23023   0.25121   0.38760   0.47257   0.49541
     Eigenvalues ---    0.49771   0.57485   0.59960   0.62764   0.68932
     Eigenvalues ---    0.741821000.000001000.000001000.000001000.00000
     Eigenvalues --- 1000.000001000.000001000.000001000.000001000.00000
     Eigenvalues --- 1000.000001000.000001000.000001000.000001000.00000
     Eigenvalues --- 1000.000001000.000001000.00000
 RFO step:  Lambda=-3.58643872D-05 EMin= 3.20283435D-02
 Quartic linear search produced a step of  0.55282.
 Iteration  1 RMS(Cart)=  0.00252908 RMS(Int)=  0.00000469
 Iteration  2 RMS(Cart)=  0.00000530 RMS(Int)=  0.00000112
 Iteration  3 RMS(Cart)=  0.00000000 RMS(Int)=  0.00000112
 ClnCor:  largest displacement from symmetrization is 1.13D-11 for atom     3.
 Variable       Old X    -DE/DX   Delta X   Delta X   Delta X     New X
                                 (Linear)    (Quad)   (Total)
    R1        2.03608  -0.00066  -0.00134  -0.00056  -0.00190   2.03418
    R2        2.61642  -0.00172  -0.00353  -0.00219  -0.00573   2.61069
    R3        2.56652  -0.00006   0.00055   0.00043   0.00098   2.56750
    R4        2.03502  -0.00061  -0.00179  -0.00007  -0.00187   2.03315
    R5        2.65464  -0.00041  -0.00078  -0.00064  -0.00142   2.65323
    R6        2.03756  -0.00075  -0.00154  -0.00072  -0.00226   2.03529
    R7        2.54028  -0.00042   0.00034  -0.00056  -0.00022   2.54005
    R8        2.52720   0.00401   0.00687   0.00376   0.01063   2.53783
    R9        1.90584  -0.00080  -0.00122  -0.00072  -0.00194   1.90389
    A1        2.31135  -0.00023   0.00104  -0.00115  -0.00011   2.31124
    A2        2.12789  -0.00038  -0.00078  -0.00200  -0.00278   2.12511
    A3        1.84394   0.00061  -0.00026   0.00315   0.00289   1.84683
    A4        2.21513  -0.00016  -0.00181   0.00257   0.00076   2.21589
    A5        1.82980   0.00047   0.00357  -0.00377  -0.00020   1.82961
    A6        2.23825  -0.00031  -0.00176   0.00120  -0.00056   2.23769
    A7        2.25417  -0.00060  -0.00159  -0.00244  -0.00404   2.25013
    A8        1.95035   0.00091  -0.00130   0.00558   0.00428   1.95463
    A9        2.07867  -0.00031   0.00290  -0.00313  -0.00024   2.07843
   A10        1.81294  -0.00126  -0.00052  -0.00420  -0.00471   1.80823
   A11        1.98774  -0.00073  -0.00150  -0.00076  -0.00226   1.98549
   A12        2.22320   0.00052  -0.00159   0.00370   0.00212   2.22532
   A13        2.07224   0.00021   0.00308  -0.00295   0.00014   2.07238
    D1        0.00000   0.00000   0.00000   0.00000   0.00000   0.00000
    D2        3.14159   0.00000   0.00000   0.00000   0.00000   3.14159
    D3        3.14159   0.00000   0.00000   0.00000   0.00000   3.14159
    D4        0.00000   0.00000   0.00000   0.00000   0.00000   0.00000
    D5        3.14159   0.00000   0.00000   0.00000   0.00000   3.14159
    D6        0.00000   0.00000   0.00000   0.00000   0.00000   0.00000
    D7        0.00000   0.00000   0.00000   0.00000   0.00000   0.00000
    D8        3.14159   0.00000   0.00000   0.00000   0.00000   3.14159
    D9        3.14159   0.00000   0.00000   0.00000   0.00000   3.14159
   D10        0.00000   0.00000   0.00000   0.00000   0.00000   0.00000
   D11        0.00000   0.00000   0.00000   0.00000   0.00000   0.00000
   D12        3.14159   0.00000   0.00000   0.00000   0.00000   3.14159
   D13        0.00000   0.00000   0.00000   0.00000   0.00000   0.00000
   D14        3.14159   0.00000   0.00000   0.00000   0.00000   3.14159
   D15        0.00000   0.00000   0.00000   0.00000   0.00000   0.00000
   D16        3.14159   0.00000   0.00000   0.00000   0.00000   3.14159
         Item               Value     Threshold  Converged?
 Maximum Force            0.004010     0.000450     NO 
 RMS     Force            0.000828     0.000300     NO 
 Maximum Displacement     0.007590     0.001800     NO 
 RMS     Displacement     0.002528     0.001200     NO 
 Predicted change in Energy=-3.798783D-05
 GradGradGradGradGradGradGradGradGradGradGradGradGradGradGradGradGradGrad

                          Input orientation:                          
 ---------------------------------------------------------------------
 Center     Atomic      Atomic             Coordinates (Angstroms)
 Number     Number       Type             X           Y           Z
 ---------------------------------------------------------------------
      1          1           0       -2.084433    0.000000   -0.788393
      2          6           0       -1.130795    0.000000   -0.289088
      3          1           0        0.482847    0.000000   -1.789002
      4          6           0        0.167902    0.000000   -0.760232
      5          1           0        2.042766    0.000000    0.471146
      6          6           0        0.968565    0.000000    0.393124
      7          7           0        0.231786    0.000000    1.517342
      8          1           0       -1.786184    0.000000    1.735296
      9          7           0       -1.033079    0.000000    1.066056
 ---------------------------------------------------------------------
                    Distance matrix (angstroms):
                    1          2          3          4          5
     1  H    0.000000
     2  C    1.076444   0.000000
     3  H    2.755385   2.203085   0.000000
     4  C    2.252511   1.381518   1.075899   0.000000
     5  H    4.315114   3.263349   2.746200   2.243079   0.000000
     6  C    3.273649   2.207425   2.235530   1.404026   1.077031
     7  N    3.268224   2.262702   3.315862   2.278469   2.091452
     8  H    2.541252   2.127831   4.191561   3.169560   4.032237
     9  N    2.131743   1.358663   3.232551   2.185791   3.132848
                    6          7          8          9
     6  C    0.000000
     7  N    1.344139   0.000000
     8  H    3.064322   2.029707   0.000000
     9  N    2.111733   1.342961   1.007497   0.000000
 Stoichiometry    C3H4N2
 Framework group  CS[SG(C3H4N2)]
 Deg. of freedom    15
 Full point group                 CS      NOp   2
 Largest Abelian subgroup         CS      NOp   2
 Largest concise Abelian subgroup C1      NOp   1
                         Standard orientation:                         
 ---------------------------------------------------------------------
 Center     Atomic      Atomic             Coordinates (Angstroms)
 Number     Number       Type             X           Y           Z
 ---------------------------------------------------------------------
      1          1           0        2.102189    0.729809    0.000000
      2          6           0        1.113252    0.304680    0.000000
      3          1           0        1.259485   -1.893547    0.000000
      4          6           0        0.659774   -1.000291    0.000000
      5          1           0       -1.478289   -1.678590    0.000000
      6          6           0       -0.740238   -0.894196    0.000000
      7          7           0       -1.147966    0.386611    0.000000
      8          1           0       -0.044358    2.090066    0.000000
      9          7           0        0.000000    1.083546    0.000000
 ---------------------------------------------------------------------
 Rotational constants (GHZ):      9.6573705      9.4224782      4.7692392
 Standard basis: TZVP (5D, 7F)
 There are    90 symmetry adapted basis functions of A'  symmetry.
 There are    29 symmetry adapted basis functions of A"  symmetry.
 Integral buffers will be    131072 words long.
 Raffenetti 1 integral format.
 Two-electron integral symmetry is turned on.
   119 basis functions,   207 primitive gaussians,   124 cartesian basis functions
    18 alpha electrons       18 beta electrons
       nuclear repulsion energy       163.0296650285 Hartrees.
 NAtoms=    9 NActive=    9 NUniq=    9 SFac= 7.50D-01 NAtFMM=   80 NAOKFM=F Big=F
 One-electron integrals computed using PRISM.
 NBasis=   119 RedAO= T  NBF=    90    29
 NBsUse=   119 1.00D-06 NBFU=    90    29
 Initial guess read from the read-write file.
 B after Tr=     0.000000    0.000000    0.000000
         Rot=    1.000000    0.000000    0.000000    0.000000 Ang=   0.00 deg.
 Initial guess orbital symmetries:
       Occupied  (A') (A') (A') (A') (A') (A') (A') (A') (A') (A')
                 (A') (A') (A") (A') (A') (A') (A") (A")
       Virtual   (A') (A") (A') (A') (A') (A") (A') (A') (A') (A')
                 (A") (A') (A") (A') (A') (A") (A') (A') (A') (A')
                 (A") (A') (A') (A') (A") (A') (A') (A') (A') (A')
                 (A') (A') (A') (A') (A') (A") (A') (A") (A') (A')
                 (A") (A') (A') (A") (A") (A') (A') (A") (A") (A")
                 (A') (A') (A') (A') (A') (A') (A') (A") (A") (A')
                 (A") (A') (A") (A') (A') (A') (A") (A') (A') (A')
                 (A") (A") (A') (A') (A") (A') (A') (A') (A') (A")
                 (A') (A') (A') (A") (A') (A") (A') (A') (A') (A')
                 (A') (A') (A') (A') (A') (A') (A') (A') (A') (A')
                 (A')
 Requested convergence on RMS density matrix=1.00D-08 within 128 cycles.
 Requested convergence on MAX density matrix=1.00D-06.
 Requested convergence on             energy=1.00D-06.
 No special actions if energy rises.
 SCF Done:  E(RHF) =  -224.862422713     A.U. after   11 cycles
             Convg  =    0.7475D-08             -V/T =  2.0014
 ExpMin= 9.52D-02 ExpMax= 1.97D+04 ExpMxC= 6.73D+02 IAcc=3 IRadAn=         5 AccDes= 0.00D+00
 HarFok:  IExCor=  205 AccDes= 0.00D+00 IRadAn=         5 IDoV=-2
 ScaDFX=  1.000000  1.000000  1.000000  1.000000
 Range of M.O.s used for correlation:     6   119
 NBasis=   119 NAE=    18 NBE=    18 NFC=     5 NFV=     0
 NROrb=    114 NOA=    13 NOB=    13 NVA=   101 NVB=   101

 **** Warning!!: The largest alpha MO coefficient is  0.20498525D+02

 Fully direct method using O(ONN) memory.
 JobTyp=1 Pass  1:  I=   6 to  18 NPSUse=  1 ParTrn=F ParDer=F DoDerP=T.
 Spin components of T(2) and E(2):
     alpha-alpha T2 =       0.3562149513D-01 E2=     -0.1021280845D+00
     alpha-beta  T2 =       0.1888052302D+00 E2=     -0.5631518266D+00
     beta-beta   T2 =       0.3562149513D-01 E2=     -0.1021280845D+00
 ANorm=    0.1122518695D+01
 E2 =    -0.7674079955D+00 EUMP2 =    -0.22562983070878D+03
          IDoAtm=111111111
          Differentiating once with respect to electric field.
                with respect to dipole field.
          Differentiating once with respect to nuclear coordinates.
          There are     1 degrees of freedom in the 1st order CPHF.  IDoFFX=0.
 LinEq1:  Iter=  0 NonCon=     1 RMS=5.04D-03 Max=7.22D-02
 AX will form     1 AO Fock derivatives at one time.
 LinEq1:  Iter=  1 NonCon=     1 RMS=1.38D-03 Max=2.14D-02
 LinEq1:  Iter=  2 NonCon=     1 RMS=5.87D-04 Max=1.31D-02
 LinEq1:  Iter=  3 NonCon=     1 RMS=2.24D-04 Max=4.71D-03
 LinEq1:  Iter=  4 NonCon=     1 RMS=1.09D-04 Max=1.85D-03
 LinEq1:  Iter=  5 NonCon=     1 RMS=2.42D-05 Max=2.19D-04
 LinEq1:  Iter=  6 NonCon=     1 RMS=4.22D-06 Max=7.57D-05
 LinEq1:  Iter=  7 NonCon=     1 RMS=1.26D-06 Max=2.09D-05
 LinEq1:  Iter=  8 NonCon=     1 RMS=6.99D-07 Max=1.72D-05
 LinEq1:  Iter=  9 NonCon=     1 RMS=1.53D-07 Max=1.91D-06
 LinEq1:  Iter= 10 NonCon=     1 RMS=6.34D-08 Max=9.74D-07
 LinEq1:  Iter= 11 NonCon=     1 RMS=1.77D-08 Max=1.52D-07
 LinEq1:  Iter= 12 NonCon=     1 RMS=4.26D-09 Max=4.47D-08
 LinEq1:  Iter= 13 NonCon=     1 RMS=1.27D-09 Max=1.15D-08
 LinEq1:  Iter= 14 NonCon=     1 RMS=3.64D-10 Max=2.23D-09
 LinEq1:  Iter= 15 NonCon=     0 RMS=6.41D-11 Max=6.34D-10
 Linear equations converged to 1.000D-10 1.000D-09 after    15 iterations.
 End of Minotr Frequency-dependent properties file   721 does not exist.
[...]
 Frc consts  --     3.6599                 3.8875                 7.0098
 IR Inten    --     6.9241                 4.9340                 1.5133
  Atom  AN      X      Y      Z        X      Y      Z        X      Y      Z
     1   1     0.04  -0.31   0.00     0.32  -0.32   0.00    -0.24  -0.10   0.00
     2   6    -0.16   0.20   0.00     0.04   0.24   0.00     0.02   0.01   0.00
     3   1    -0.08  -0.20   0.00     0.29  -0.02   0.00     0.26  -0.39   0.00
     4   6     0.06  -0.08   0.00    -0.05  -0.20   0.00    -0.02   0.03   0.00
     5   1     0.02  -0.02   0.00     0.34  -0.26   0.00     0.57   0.61   0.00
     6   6    -0.02   0.02   0.00    -0.10   0.15   0.00    -0.05  -0.05   0.00
     7   7    -0.07   0.03   0.00     0.06  -0.08   0.00     0.00   0.00   0.00
     8   1    -0.82  -0.17   0.00     0.61  -0.01   0.00     0.00   0.01   0.00
     9   7     0.24  -0.09   0.00    -0.08  -0.03   0.00     0.00   0.00   0.00
                    19                     20                     21
                    A'                     A'                     A'
 Frequencies --  3310.3920              3329.0954              3685.1600
 Red. masses --     1.0951                 1.1078                 1.0824
 Frc consts  --     7.0705                 7.2338                 8.6606
 IR Inten    --     0.7406                 0.0866                97.6059
  Atom  AN      X      Y      Z        X      Y      Z        X      Y      Z
     1   1     0.74   0.32   0.00    -0.48  -0.21   0.00     0.02   0.00   0.00
     2   6    -0.07  -0.03   0.00     0.05   0.02   0.00     0.00   0.00   0.00
     3   1    -0.21   0.31   0.00    -0.44   0.66   0.00     0.00   0.00   0.00
     4   6     0.02  -0.02   0.00     0.04  -0.06   0.00     0.00   0.00   0.00
     5   1     0.31   0.33   0.00     0.19   0.20   0.00     0.00   0.00   0.00
     6   6    -0.03  -0.03   0.00    -0.02  -0.02   0.00     0.00   0.00   0.00
     7   7     0.00   0.00   0.00     0.00   0.00   0.00     0.00   0.00   0.00
     8   1     0.00  -0.01   0.00     0.00   0.01   0.00    -0.05   1.00   0.00
     9   7     0.00   0.00   0.00     0.00   0.00   0.00     0.01  -0.08   0.00

 -------------------
 - Thermochemistry -
 -------------------
 Temperature   298.150 Kelvin.  Pressure   1.00000 Atm.
 Atom     1 has atomic number  1 and mass   1.00783
 Atom     2 has atomic number  6 and mass  12.00000
 Atom     3 has atomic number  1 and mass   1.00783
 Atom     4 has atomic number  6 and mass  12.00000
 Atom     5 has atomic number  1 and mass   1.00783
 Atom     6 has atomic number  6 and mass  12.00000
 Atom     7 has atomic number  7 and mass  14.00307
 Atom     8 has atomic number  1 and mass   1.00783
 Atom     9 has atomic number  7 and mass  14.00307
 Molecular mass:    68.03745 amu.
 Principal axes and moments of inertia in atomic units:
                           1         2         3
     Eigenvalues --   187.05978 191.39018 378.44996
           X            0.87698   0.48052   0.00000
           Y           -0.48052   0.87698   0.00000
           Z            0.00000   0.00000   1.00000
 This molecule is an asymmetric top.
 Rotational symmetry number  1.
 Rotational temperatures (Kelvin)      0.46303     0.45255     0.22886
 Rotational constants (GHZ):           9.64794     9.42964     4.76877
 Zero-point vibrational energy     184323.9 (Joules/Mol)
                                   44.05446 (Kcal/Mol)
 Warning -- explicit consideration of   2 degrees of freedom as
           vibrations may cause significant error
 Vibrational temperatures:    450.63   785.16   902.14   964.12  1054.95
          (Kelvin)           1099.24  1321.83  1349.32  1534.41  1541.43
                             1676.85  1714.24  1860.16  1984.78  2094.28
                             2159.95  2239.94  4749.78  4762.91  4789.82
                             5302.12
 
 Zero-point correction=                           0.070205 (Hartree/Particle)
 Thermal correction to Energy=                    0.074319
 Thermal correction to Enthalpy=                  0.075263
 Thermal correction to Gibbs Free Energy=         0.043710
 Sum of electronic and zero-point Energies=           -225.559628
 Sum of electronic and thermal Energies=              -225.555514
 Sum of electronic and thermal Enthalpies=            -225.554570
 Sum of electronic and thermal Free Energies=         -225.586123
 
                     E (Thermal)             CV                S
                      KCal/Mol        Cal/Mol-Kelvin    Cal/Mol-Kelvin
 Total                   46.636             14.569             66.410
 Electronic               0.000              0.000              0.000
 Translational            0.889              2.981             38.570
 Rotational               0.889              2.981             24.120
 Vibrational             44.858              8.607              3.720
 Vibration     1          0.701              1.648              1.345
 Vibration     2          0.901              1.149              0.553
                       Q            Log10(Q)             Ln(Q)
 Total Bot       0.785226D-20        -20.105005        -46.293486
 Total V=0       0.153851D+13         12.187100         28.061834
 Vib (Bot)       0.854312D-32        -32.068383        -73.840181
 Vib (Bot)    1  0.602610D+00         -0.219964         -0.506486
 Vib (Bot)    2  0.288753D+00         -0.539474         -1.242185
 Vib (V=0)       0.167387D+01          0.223722          0.515139
 Vib (V=0)    1  0.128303D+01          0.108237          0.249226
 Vib (V=0)    2  0.107739D+01          0.032373          0.074541
 Electronic      0.100000D+01          0.000000          0.000000
 Translational   0.220586D+08          7.343577         16.909211
 Rotational      0.416678D+05          4.619801         10.637484
 ***** Axes restored to original set *****
 -------------------------------------------------------------------
 Center     Atomic                   Forces (Hartrees/Bohr)
 Number     Number              X              Y              Z
 -------------------------------------------------------------------
      1        1          -0.000016999    0.000000000   -0.000077003
      2        6          -0.000087497    0.000000000    0.000432139
      3        1           0.000009632    0.000000000   -0.000039582
      4        6           0.000066187    0.000000000   -0.000177769
      5        1           0.000045076    0.000000000    0.000039382
      6        6          -0.000409489    0.000000000    0.000306309
      7        7           0.000269894    0.000000000   -0.000017324
      8        1           0.000073507    0.000000000    0.000075397
      9        7           0.000049691    0.000000000   -0.000541549
 -------------------------------------------------------------------
 Cartesian Forces:  Max     0.000541549 RMS     0.000180875

 GradGradGradGradGradGradGradGradGradGradGradGradGradGradGradGradGradGrad
 Berny optimization.
 Internal  Forces:  Max     0.000334195 RMS     0.000094965
 Search for a local minimum.
 Step number   1 out of a maximum of    2
 All quantities printed in internal units (Hartrees-Bohrs-Radians)
 Second derivative matrix not updated -- analytic derivatives used.
     Eigenvalues ---    0.00258   0.00729   0.01103   0.02342   0.04718
     Eigenvalues ---    0.05343   0.09388   0.10487   0.11126   0.11956
     Eigenvalues ---    0.22661   0.27627   0.35135   0.37468   0.38567
     Eigenvalues ---    0.38692   0.39207   0.44376   0.48023   0.49007
     Eigenvalues ---    0.549481000.000001000.000001000.000001000.00000
     Eigenvalues --- 1000.000001000.000001000.000001000.000001000.00000
     Eigenvalues --- 1000.000001000.000001000.000001000.000001000.00000
     Eigenvalues --- 1000.000001000.000001000.00000
 Angle between quadratic step and forces=  31.26 degrees.
 Linear search not attempted -- first point.
 Iteration  1 RMS(Cart)=  0.00032126 RMS(Int)=  0.00000011
 Iteration  2 RMS(Cart)=  0.00000011 RMS(Int)=  0.00000001
 ClnCor:  largest displacement from symmetrization is 6.19D-13 for atom     9.
 Variable       Old X    -DE/DX   Delta X   Delta X   Delta X     New X
                                 (Linear)    (Quad)   (Total)
    R1        2.03444   0.00005   0.00000   0.00013   0.00013   2.03457
    R2        2.61142   0.00004   0.00000   0.00030   0.00030   2.61172
    R3        2.56672  -0.00028   0.00000  -0.00079  -0.00079   2.56593
    R4        2.03329   0.00004   0.00000   0.00008   0.00008   2.03337
    R5        2.65330   0.00009   0.00000   0.00024   0.00024   2.65354
    R6        2.03569   0.00005   0.00000   0.00017   0.00017   2.03586
    R7        2.53926  -0.00033   0.00000  -0.00074  -0.00074   2.53852
    R8        2.53895   0.00003   0.00000   0.00029   0.00029   2.53924
    R9        1.90394   0.00000   0.00000  -0.00001  -0.00001   1.90393
    A1        2.31108  -0.00004   0.00000  -0.00067  -0.00067   2.31041
    A2        2.12492   0.00009   0.00000   0.00061   0.00061   2.12553
    A3        1.84719  -0.00005   0.00000   0.00006   0.00006   1.84725
    A4        2.21630   0.00006   0.00000   0.00024   0.00024   2.21654
    A5        1.83002  -0.00012   0.00000  -0.00050  -0.00050   1.82952
    A6        2.23686   0.00006   0.00000   0.00026   0.00026   2.23712
    A7        2.25086  -0.00003   0.00000  -0.00013  -0.00013   2.25073
    A8        1.95362   0.00014   0.00000   0.00049   0.00049   1.95411
    A9        2.07871  -0.00011   0.00000  -0.00036  -0.00036   2.07835
   A10        1.80966  -0.00013   0.00000  -0.00037  -0.00037   1.80928
   A11        1.98430   0.00016   0.00000   0.00032   0.00032   1.98462
   A12        2.22703   0.00002   0.00000   0.00068   0.00068   2.22770
   A13        2.07186  -0.00018   0.00000  -0.00099  -0.00099   2.07086
    D1        0.00000   0.00000   0.00000   0.00000   0.00000   0.00000
    D2        3.14159   0.00000   0.00000   0.00000   0.00000   3.14159
    D3        3.14159   0.00000   0.00000   0.00000   0.00000   3.14159
    D4        0.00000   0.00000   0.00000   0.00000   0.00000   0.00000
    D5        3.14159   0.00000   0.00000   0.00000   0.00000   3.14159
    D6        0.00000   0.00000   0.00000   0.00000   0.00000   0.00000
    D7        0.00000   0.00000   0.00000   0.00000   0.00000   0.00000
    D8        3.14159   0.00000   0.00000   0.00000   0.00000   3.14159
    D9        3.14159   0.00000   0.00000   0.00000   0.00000   3.14159
   D10        0.00000   0.00000   0.00000   0.00000   0.00000   0.00000
   D11        0.00000   0.00000   0.00000   0.00000   0.00000   0.00000
   D12        3.14159   0.00000   0.00000   0.00000   0.00000   3.14159
   D13        0.00000   0.00000   0.00000   0.00000   0.00000   0.00000
   D14        3.14159   0.00000   0.00000   0.00000   0.00000   3.14159
   D15        0.00000   0.00000   0.00000   0.00000   0.00000   0.00000
   D16        3.14159   0.00000   0.00000   0.00000   0.00000   3.14159
         Item               Value     Threshold  Converged?
 Maximum Force            0.000334     0.000450     YES
 RMS     Force            0.000095     0.000300     YES
 Maximum Displacement     0.001109     0.001800     YES
 RMS     Displacement     0.000321     0.001200     YES
 Predicted change in Energy=-5.438629D-07
 Optimization completed.
    -- Stationary point found.
                           ----------------------------
                           !   Optimized Parameters   !
                           ! (Angstroms and Degrees)  !
 --------------------------                            --------------------------
 ! Name  Definition              Value          Derivative Info.                !
 --------------------------------------------------------------------------------
 ! R1    R(1,2)                  1.0766         -DE/DX =    0.0001              !
 ! R2    R(2,4)                  1.3819         -DE/DX =    0.0                 !
 ! R3    R(2,9)                  1.3583         -DE/DX =   -0.0003              !
 ! R4    R(3,4)                  1.076          -DE/DX =    0.0                 !
 ! R5    R(4,6)                  1.4041         -DE/DX =    0.0001              !
 ! R6    R(5,6)                  1.0772         -DE/DX =    0.0                 !
 ! R7    R(6,7)                  1.3437         -DE/DX =   -0.0003              !
 ! R8    R(7,9)                  1.3436         -DE/DX =    0.0                 !
 ! R9    R(8,9)                  1.0075         -DE/DX =    0.0                 !
 ! A1    A(1,2,4)              132.4152         -DE/DX =    0.0                 !
 ! A2    A(1,2,9)              121.7488         -DE/DX =    0.0001              !
 ! A3    A(4,2,9)              105.836          -DE/DX =   -0.0001              !
 ! A4    A(2,4,3)              126.9848         -DE/DX =    0.0001              !
 ! A5    A(2,4,6)              104.8524         -DE/DX =   -0.0001              !
 ! A6    A(3,4,6)              128.1629         -DE/DX =    0.0001              !
 ! A7    A(4,6,5)              128.9646         -DE/DX =    0.0                 !
 ! A8    A(4,6,7)              111.9339         -DE/DX =    0.0001              !
 ! A9    A(5,6,7)              119.1014         -DE/DX =   -0.0001              !
 ! A10   A(6,7,9)              103.6856         -DE/DX =   -0.0001              !
 ! A11   A(2,9,7)              113.6921         -DE/DX =    0.0002              !
 ! A12   A(2,9,8)              127.5993         -DE/DX =    0.0                 !
 ! A13   A(7,9,8)              118.7086         -DE/DX =   -0.0002              !
 ! D1    D(1,2,4,3)              0.0            -DE/DX =    0.0                 !
 ! D2    D(1,2,4,6)            180.0            -DE/DX =    0.0                 !
 ! D3    D(9,2,4,3)            180.0            -DE/DX =    0.0                 !
 ! D4    D(9,2,4,6)              0.0            -DE/DX =    0.0                 !
 ! D5    D(1,2,9,7)            180.0            -DE/DX =    0.0                 !
 ! D6    D(1,2,9,8)              0.0            -DE/DX =    0.0                 !
 ! D7    D(4,2,9,7)              0.0            -DE/DX =    0.0                 !
 ! D8    D(4,2,9,8)            180.0            -DE/DX =    0.0                 !
 ! D9    D(2,4,6,5)            180.0            -DE/DX =    0.0                 !
 ! D10   D(2,4,6,7)              0.0            -DE/DX =    0.0                 !
 ! D11   D(3,4,6,5)              0.0            -DE/DX =    0.0                 !
 ! D12   D(3,4,6,7)            180.0            -DE/DX =    0.0                 !
 ! D13   D(4,6,7,9)              0.0            -DE/DX =    0.0                 !
 ! D14   D(5,6,7,9)            180.0            -DE/DX =    0.0                 !
 ! D15   D(6,7,9,2)              0.0            -DE/DX =    0.0                 !
 ! D16   D(6,7,9,8)            180.0            -DE/DX =    0.0                 !
 --------------------------------------------------------------------------------
 GradGradGradGradGradGradGradGradGradGradGradGradGradGradGradGradGradGrad

 1\1\GINC-P600\Freq\RMP2-FC\TZVP\C3H4N2\RDJ3\04-Feb-2011\0\\#N Geom=All
 Check Guess=TCheck SCRF=Check GenChk RMP2(FC)/TZVP Freq\\1H pyrazole C
 3H4N2 casno=288131 method=3 basis=32\\0,1\H,-2.0848052404,0.,-0.788474
 8024\C,-1.1311467777,0.,-0.2889146945\H,0.4833630741,0.,-1.7888366866\
 C,0.1679330126,0.,-0.7601397418\H,2.0434311958,0.,0.4713660606\C,0.969
 0490788,0.,0.3929459605\N,0.2317852122,0.,1.516344046\H,-1.7862382692,
 0.,1.7361025024\N,-1.0339962862,0.,1.0658573559\\Version=AM64L-G09RevA
 .02\State=1-A'\HF=-224.8624533\MP2=-225.6298329\RMSD=1.321e-09\RMSF=1.
 809e-04\ZeroPoint=0.0702053\Thermal=0.0743188\Dipole=-0.8347302,0.,-0.
 425697\DipoleDeriv=0.0046286,0.,-0.0372641,0.,0.2032014,0.,-0.0271336,
 0.,0.0718802,0.0637794,0.,-0.1827153,0.,-0.1370668,0.,-0.2763047,0.,0.
 2297362,0.0949522,0.,0.0253606,0.,0.1794311,0.,0.0280455,0.,-0.0173838
 ,-0.1742795,0.,0.0583701,0.,-0.2075369,0.,-0.0464558,0.,-0.0568227,-0.
 0302107,0.,-0.0039047,0.,0.1620887,0.,-0.0241528,0.,0.0774273,0.150106
 5,0.,0.0690971,0.,-0.1268477,0.,0.1997677,0.,0.1329488,0.0396,0.,-0.12
 21988,0.,-0.2176216,0.,-0.1111613,0.,-0.4592843,0.225576,0.,-0.0634994
 ,0.,0.310539,0.,-0.0481933,0.,0.2346947,-0.3741526,0.,0.2567545,0.,-0.
 1661873,0.,0.3055883,0.,-0.2131964\Polar=52.3579059,0.,28.0146207,0.38
 11189,0.,49.2596218\PG=CS [SG(C3H4N2)]\NImag=0\\0.31252230,0.,0.014757
 62,0.13777820,0.,0.12449744,-0.30871575,0.,-0.11992682,0.86060233,0.,-
 0.01031285,0.,0.,0.06316066,-0.13009302,0.,-0.12195066,0.09338849,0.,0
 .65678948,0.00041416,0.,-0.00092725,0.00209094,0.,0.02628538,0.0776635
 0,0.,-0.00174046,0.,0.,-0.00695697,0.,0.,0.01775406,0.00034376,0.,-0.0
 0019040,-0.00484497,0.,0.00027716,-0.09571929,0.,0.35683680,-0.0062385
 4,0.,0.01037293,-0.34093014,0.,0.08916998,-0.08442319,0.,0.09029873,0.
 62844589,0.,-0.00492217,0.,0.,-0.02991638,0.,0.,-0.01435704,0.,0.,0.06
 822661,-0.01552213,0.,0.01270281,0.10022236,0.,-0.13847765,0.08749000,
 0.,-0.34533892,-0.11412412,0.,0.84690431,-0.00016504,0.,0.00026765,-0.
 00032908,0.,-0.00089469,-0.00013987,0.,-0.00029905,-0.00419033,0.,0.00
 469808,0.38201891,0.,0.00147730,0.,0.,0.00490881,0.,0.,-0.00083241,0.,
 0.,-0.00517031,0.,0.,0.01933895,-0.00109863,0.,0.00118689,-0.00322946,
 0.,-0.00601898,0.00095954,0.,0.00028783,-0.02283014,0.,0.00634743,0.02
 294783,0.,0.05731059,-0.00455243,0.,0.00492351,-0.05601510,0.,-0.00396
 143,0.01288136,0.,0.01279887,-0.18565608,0.,-0.11156818,-0.36357791,0.
 ,-0.03445113,0.88477130,0.,0.00397257,0.,0.,0.00215251,0.,0.,-0.008974
 27,0.,0.,-0.03288107,0.,0.,-0.01743710,0.,0.,0.09239130,0.00092041,0.,
 -0.00225697,-0.06359305,0.,0.01893832,-0.01618704,0.,-0.00874511,-0.08
 765653,0.,-0.24189326,-0.02528963,0.,-0.06041967,0.02031140,0.,0.59119
 886,0.00067899,0.,0.00015340,-0.05590730,0.,-0.04443525,-0.00193968,0.
 ,-0.00103111,0.02471882,0.,0.03061916,-0.01245540,0.,0.02905111,-0.171
 52306,0.,0.13290561,0.51155655,0.,0.00788563,0.,0.,0.01019488,0.,0.,0.
 00806956,0.,0.,0.01318493,0.,0.,-0.01022803,0.,0.,-0.05662370,0.,0.,0.
 09097316,0.00275738,0.,-0.00578136,-0.02421403,0.,-0.05222473,-0.00632
 640,0.,-0.00351640,-0.02342615,0.,-0.07828220,-0.00385271,0.,0.0055035
 4,0.08320692,0.,-0.27309463,-0.02516648,0.,0.52926563,-0.00032615,0.,0
 .00047919,0.01030439,0.,-0.00616134,0.00078249,0.,-0.00008658,0.002395
 51,0.,-0.00353949,-0.00047738,0.,0.00150190,-0.00796954,0.,-0.00617906
 ,-0.02198348,0.,0.02536361,0.29787697,0.,-0.00077973,0.,0.,-0.01267755
 ,0.,0.,0.00248558,0.,0.,0.00431798,0.,0.,0.00286828,0.,0.,0.00264702,0
 .,0.,-0.01433827,0.,0.,0.00934701,-0.00060960,0.,0.00026220,0.02544353
 ,0.,-0.00575030,0.00128092,0.,0.00018568,-0.00290868,0.,-0.00712984,-0
 .00047247,0.,0.00098960,-0.00580562,0.,0.00142972,-0.01363532,0.,0.014
 92484,-0.20659743,0.,0.25117725,0.00638246,0.,-0.03312082,-0.11110028,
 0.,-0.02329813,-0.00732971,0.,-0.00146036,-0.03412193,0.,0.02172434,-0
 .00068391,0.,0.00714898,-0.10835855,0.,0.04476790,-0.27314545,0.,-0.02
 834213,-0.28060280,0.,0.20330467,0.80896018,0.,-0.01033789,0.,0.,-0.02
 055310,0.,0.,0.00455197,0.,0.,0.00151745,0.,0.,0.00507451,0.,0.,0.0147
 5275,0.,0.,-0.04911816,0.,0.,0.00612968,0.,0.,0.04798279,0.00552364,0.
 ,-0.00846994,-0.00324604,0.,-0.35158264,0.00314413,0.,0.00020338,0.061
 10397,0.,-0.05483268,0.00289500,0.,-0.00518724,0.03454565,0.,-0.025157
 24,-0.10846112,0.,-0.13679469,0.19521920,0.,-0.25608915,-0.19072444,0.
 ,0.83791021\\0.00001700,0.,0.00007700,0.00008750,0.,-0.00043214,-0.000
 00963,0.,0.00003958,-0.00006619,0.,0.00017777,-0.00004508,0.,-0.000039
 38,0.00040949,0.,-0.00030631,-0.00026989,0.,0.00001732,-0.00007351,0.,
 -0.00007540,-0.00004969,0.,0.00054155\\\@


 Change starts when someone sees the next step.
                            -- William Drayton
 Job cpu time:  0 days  0 hours 13 minutes 19.2 seconds.
 File lengths (MBytes):  RWF=   1184 Int=      0 D2E=      0 Chk=      2 Scr=      1
 Normal termination of Gaussian 09 at Fri Feb  4 17:29:49 2011.
