 Entering Gaussian System, Link 0=g98
 Initial command:
 /usr/local/apps/g98/g98/l1.exe /wrk/Gau-19954.inp -scrdir=/wrk/
 Entering Link 1 = /usr/local/apps/g98/g98/l1.exe PID=     20316.
  
 Copyright (c) 1988,1990,1992,1993,1995,1998 Gaussian, Inc.
                  All Rights Reserved.
  
 This is part of the Gaussian(R) 98 program.  It is based on
 the Gaussian 94(TM) system (copyright 1995 Gaussian, Inc.),
 the Gaussian 92(TM) system (copyright 1992 Gaussian, Inc.),
 the Gaussian 90(TM) system (copyright 1990 Gaussian, Inc.),
 the Gaussian 88(TM) system (copyright 1988 Gaussian, Inc.),
 the Gaussian 86(TM) system (copyright 1986 Carnegie Mellon
 University), and the Gaussian 82(TM) system (copyright 1983
 Carnegie Mellon University). Gaussian is a federally registered
 trademark of Gaussian, Inc.
  
 This software contains proprietary and confidential information,
 including trade secrets, belonging to Gaussian, Inc.
  
 This software is provided under written license and may be
 used, copied, transmitted, or stored only in accord with that
 written license.
  
 The following legend is applicable only to US Government
 contracts under DFARS:
  
                    RESTRICTED RIGHTS LEGEND
  
 Use, duplication or disclosure by the US Government is subject
 to restrictions as set forth in subparagraph (c)(1)(ii) of the
 Rights in Technical Data and Computer Software clause at DFARS
 252.227-7013.
  
 Gaussian, Inc.
 Carnegie Office Park, Building 6, Pittsburgh, PA 15106 USA
  
 The following legend is applicable only to US Government
 contracts under FAR:
  
                    RESTRICTED RIGHTS LEGEND
  
 Use, reproduction and disclosure by the US Government is subject
 to restrictions as set forth in subparagraph (c) of the
 Commercial Computer Software - Restricted Rights clause at FAR
 52.227-19.
  
 Gaussian, Inc.
 Carnegie Office Park, Building 6, Pittsburgh, PA 15106 USA
  
  
 ---------------------------------------------------------------
 Warning -- This program may not be used in any manner that
 competes with the business of Gaussian, Inc. or will provide
 assistance to any competitor of Gaussian, Inc.  The licensee
 of this program is prohibited from giving any competitor of
 Gaussian, Inc. access to this program.  By using this program,
 the user acknowledges that Gaussian, Inc. is engaged in the
 business of creating and licensing software in the field of
 computational chemistry and represents and warrants to the
 licensee that it is not a competitor of Gaussian, Inc. and that
 it will not use this program in any manner prohibited above.
 ---------------------------------------------------------------
  

 Cite this work as:
 Gaussian 98, Revision A.7,
 M. J. Frisch, G. W. Trucks, H. B. Schlegel, G. E. Scuseria, 
 M. A. Robb, J. R. Cheeseman, V. G. Zakrzewski, J. A. Montgomery, Jr., 
 R. E. Stratmann, J. C. Burant, S. Dapprich, J. M. Millam, 
 A. D. Daniels, K. N. Kudin, M. C. Strain, O. Farkas, J. Tomasi, 
 V. Barone, M. Cossi, R. Cammi, B. Mennucci, C. Pomelli, C. Adamo, 
 S. Clifford, J. Ochterski, G. A. Petersson, P. Y. Ayala, Q. Cui, 
 K. Morokuma, D. K. Malick, A. D. Rabuck, K. Raghavachari, 
 J. B. Foresman, J. Cioslowski, J. V. Ortiz, A. G. Baboul, 
 B. B. Stefanov, G. Liu, A. Liashenko, P. Piskorz, I. Komaromi, 
 R. Gomperts, R. L. Martin, D. J. Fox, T. Keith, M. A. Al-Laham, 
 C. Y. Peng, A. Nanayakkara, C. Gonzalez, M. Challacombe, 
 P. M. W. Gill, B. Johnson, W. Chen, M. W. Wong, J. L. Andres, 
 C. Gonzalez, M. Head-Gordon, E. S. Replogle, and J. A. Pople, 
 Gaussian, Inc., Pittsburgh PA, 1998.

 **********************************************
 Gaussian 98:  IBM-RS6000-G98RevA.7 11-Apr-1999
                   2-May-2000 
 **********************************************
 %mem=24000000
 ---------------------
 #MP2/cc-pVDZ opt freq
 ---------------------
 1/18=20,38=1/1,3;
 2/9=110,17=6,18=5/2;
 3/5=16,11=9,25=1,30=1/1,2,3;
 4//1;
 5/5=2,38=4/2;
 8/6=4,10=1/1;
 9/15=2,16=-3/6;
 10/5=1/2;
 6/7=2,8=2,9=2,10=2/1;
 7/12=2/1,2,3,16;
 1/18=20/3(1);
 99//99;
 2/9=110/2;
 3/5=16,11=9,25=1,30=1/1,2,3;
 4/5=5,16=2/1;
 5/5=2,38=4/2;
 8/6=4,10=1/1;
 9/15=2,16=-3/6;
 10/5=1/2;
 7/12=2/1,2,3,16;
 1/18=20/3(-8);
 2/9=110/2;
 6/7=2,8=2,9=2,10=2/1;
 99//99;
 -------------------------------
 1H pyrazole C3H4N2 casno=288131
 -------------------------------
 Symbolic Z-matrix:
 Charge =  0 Multiplicity = 1
 H                    -1.9125    0.       -0.75938 
 C                    -1.08438   0.       -0.21875 
 H                     0.43438   0.       -1.63125 
 C                     0.15      0.       -0.68438 
 H                     1.9125    0.        0.37188 
 C                     0.92188   0.        0.375 
 N                     0.18125   0.        1.41875 
 H                    -1.74063   0.        1.63125 
 N                    -1.00313   0.        1.05313 

 GradGradGradGradGradGradGradGradGradGradGradGradGradGradGradGradGradGrad
 Berny optimization.
 Initialization pass.
                         ----------------------------
                         !    Initial Parameters    !
                         ! (Angstroms and Degrees)  !
 ------------------------                            -------------------------
 ! Name  Definition              Value          Derivative Info.             !
 -----------------------------------------------------------------------------
 ! R1    R(1,2)                  0.989          estimate D2E/DX2             !
 ! R2    R(2,4)                  1.3193         estimate D2E/DX2             !
 ! R3    R(2,9)                  1.2745         estimate D2E/DX2             !
 ! R4    R(3,4)                  0.9887         estimate D2E/DX2             !
 ! R5    R(4,6)                  1.3108         estimate D2E/DX2             !
 ! R6    R(5,6)                  0.9906         estimate D2E/DX2             !
 ! R7    R(6,7)                  1.2798         estimate D2E/DX2             !
 ! R8    R(7,9)                  1.2395         estimate D2E/DX2             !
 ! R9    R(8,9)                  0.9371         estimate D2E/DX2             !
 ! A1    A(1,2,4)              126.195          estimate D2E/DX2             !
 ! A2    A(1,2,9)              126.7929         estimate D2E/DX2             !
 ! A3    A(4,2,9)              107.012          estimate D2E/DX2             !
 ! A4    A(2,4,3)              127.3838         estimate D2E/DX2             !
 ! A5    A(2,4,6)              105.4104         estimate D2E/DX2             !
 ! A6    A(3,4,6)              127.2058         estimate D2E/DX2             !
 ! A7    A(4,6,5)              125.8968         estimate D2E/DX2             !
 ! A8    A(4,6,7)              108.5636         estimate D2E/DX2             !
 ! A9    A(5,6,7)              125.5395         estimate D2E/DX2             !
 ! A10   A(6,7,9)              108.203          estimate D2E/DX2             !
 ! A11   A(2,9,7)              110.811          estimate D2E/DX2             !
 ! A12   A(2,9,8)              124.4376         estimate D2E/DX2             !
 ! A13   A(7,9,8)              124.7513         estimate D2E/DX2             !
 ! D1    D(1,2,4,3)              0.             estimate D2E/DX2             !
 ! D2    D(1,2,4,6)            180.             estimate D2E/DX2             !
 ! D3    D(9,2,4,3)            180.             estimate D2E/DX2             !
 ! D4    D(9,2,4,6)              0.             estimate D2E/DX2             !
 ! D5    D(1,2,9,7)            180.             estimate D2E/DX2             !
 ! D6    D(1,2,9,8)              0.             estimate D2E/DX2             !
 ! D7    D(4,2,9,7)              0.             estimate D2E/DX2             !
 ! D8    D(4,2,9,8)            180.             estimate D2E/DX2             !
 ! D9    D(2,4,6,5)            180.             estimate D2E/DX2             !
 ! D10   D(2,4,6,7)              0.             estimate D2E/DX2             !
 ! D11   D(3,4,6,5)              0.             estimate D2E/DX2             !
 ! D12   D(3,4,6,7)            180.             estimate D2E/DX2             !
 ! D13   D(4,6,7,9)              0.             estimate D2E/DX2             !
 ! D14   D(5,6,7,9)            180.             estimate D2E/DX2             !
 ! D15   D(6,7,9,2)              0.             estimate D2E/DX2             !
 ! D16   D(6,7,9,8)            180.             estimate D2E/DX2             !
 -----------------------------------------------------------------------------
 Trust Radius=3.00D-01 FncErr=1.00D-07 GrdErr=1.00D-07
 Number of steps in this run=  48 maximum allowed number of steps= 100.
 GradGradGradGradGradGradGradGradGradGradGradGradGradGradGradGradGradGrad

                          Input orientation:                          
 ---------------------------------------------------------------------
 Center     Atomic     Atomic              Coordinates (Angstroms)
 Number     Number      Type              X           Y           Z
 ---------------------------------------------------------------------
    1          1             0       -1.912500     .000000    -.759375
    2          6             0       -1.084375     .000000    -.218750
    3          1             0         .434375     .000000   -1.631250
    4          6             0         .150000     .000000    -.684375
    5          1             0        1.912500     .000000     .371875
    6          6             0         .921875     .000000     .375000
    7          7             0         .181250     .000000    1.418750
    8          1             0       -1.740625     .000000    1.631250
    9          7             0       -1.003125     .000000    1.053125
 ---------------------------------------------------------------------
                    Distance matrix (angstroms):
                    1          2          3          4          5
     1  H     .000000
     2  C     .988972    .000000
     3  H    2.503595   2.074068    .000000
     4  C    2.063863   1.319276    .988656    .000000
     5  H    3.988778   3.054521   2.489450   2.054768    .000000
     6  C    3.052947   2.092266   2.064630   1.310750    .990630
     7  N    3.021261   2.069592   3.060486   2.103357   2.023159
     8  H    2.396796   1.962948   3.921037   2.989412   3.864110
     9  N    2.027836   1.274468   3.045041   2.085331   2.994156
                    6          7          8          9
     6  C     .000000
     7  N    1.279820    .000000
     8  H    2.943989   1.933587    .000000
     9  N    2.040950   1.239526    .937088    .000000
 Stoichiometry    C3H4N2
 Framework group  CS[SG(C3H4N2)]
 Deg. of freedom   15
 Full point group                 CS      NOp   2
 Largest Abelian subgroup         CS      NOp   2
 Largest concise Abelian subgroup C1      NOp   1
                         Standard orientation:                         
 ---------------------------------------------------------------------
 Center     Atomic     Atomic              Coordinates (Angstroms)
 Number     Number      Type              X           Y           Z
 ---------------------------------------------------------------------
    1          1             0        1.974407     .585689     .000000
    2          6             0        1.028833     .295936     .000000
    3          1             0        1.140941   -1.775099     .000000
    4          6             0         .595873    -.950271     .000000
    5          1             0       -1.344123   -1.627388     .000000
    6          6             0        -.712074    -.864589     .000000
    7          7             0       -1.039336     .372682     .000000
    8          1             0         .028336    1.984773     .000000
    9          7             0         .000000    1.048113     .000000
 ---------------------------------------------------------------------
 Rotational constants (GHZ):     11.1878032     10.4520048      5.4036973
 Isotopes: H-1,C-12,H-1,C-12,H-1,C-12,N-14,H-1,N-14
 Standard basis: CC-pVDZ (5D, 7F)
 There are    66 symmetry adapted basis functions of A'  symmetry.
 There are    24 symmetry adapted basis functions of A"  symmetry.
 Crude estimate of integral set expansion from redundant integrals=1.000.
 Integral buffers will be    262144 words long.
 Raffenetti 1 integral format.
 Two-electron integral symmetry is turned on.
    90 basis functions      203 primitive gaussians
    18 alpha electrons       18 beta electrons
       nuclear repulsion energy       173.7391879471 Hartrees.
 One-electron integrals computed using PRISM.
 NBasis=    90 RedAO= T  NBF=    66    24
 NBsUse=    90 1.00D-04 NBFU=    66    24
 Projected INDO Guess.
 Initial guess orbital symmetries:
       Occupied  (A') (A') (A') (A') (A') (A') (A') (A') (A') (A')
                 (A') (A") (A') (A') (A') (A") (A') (A")
       Virtual   (A") (A') (A') (A") (A') (A') (A') (A') (A') (A')
                 (A') (A') (A') (A') (A') (A') (A') (A') (A') (A')
                 (A') (A') (A') (A') (A') (A') (A') (A') (A') (A')
                 (A') (A') (A') (A') (A') (A') (A') (A') (A') (A')
                 (A') (A') (A') (A') (A') (A') (A') (A') (A') (A')
                 (A') (A') (A') (A") (A") (A") (A") (A") (A") (A")
                 (A") (A") (A") (A") (A") (A") (A") (A") (A") (A")
                 (A") (A")
 Requested convergence on RMS density matrix=1.00D-08 within  64 cycles.
 Requested convergence on MAX density matrix=1.00D-06.
 Keep R1 integrals in memory in canonical form, NReq=    10871361.
 SCF Done:  E(RHF) =  -224.757283144     A.U. after   14 cycles
             Convg  =     .3472D-08             -V/T =  1.9927
             S**2   =    .0000
 Range of M.O.s used for correlation:     6    90
 NBasis=    90 NAE=    18 NBE=    18 NFC=     5 NFV=     0
 NROrb=     85 NOA=    13 NOB=    13 NVA=    72 NVB=    72
 Fully direct method using O(ONN) memory.
 JobTyp=1 Pass  1:  I=   6 to  18.
 Spin components of T(2) and E(2):
     alpha-alpha T2 =        .3237515612D-01 E2=      -.9592001717D-01
     alpha-beta  T2 =        .1653178129D+00 E2=      -.5106542107D+00
     beta-beta   T2 =        .3237515612D-01 E2=      -.9592001717D-01
 ANorm=     .1109084363D+01
 E2 =     -.7024942451D+00 EUMP2 =     -.22545977738956D+03
          Differentiating once with respect to electric field.
                with respect to dipole field.
          Differentiating once with respect to nuclear coordinates.
          Store integrals in memory, NReq=    10839559.
          There are   1 degrees of freedom in the 1st order CPHF.
   1 vectors were produced by pass  0.
 AX will form   1 AO Fock derivatives at one time.
   1 vectors were produced by pass  1.
   1 vectors were produced by pass  2.
   1 vectors were produced by pass  3.
   1 vectors were produced by pass  4.
   1 vectors were produced by pass  5.
   1 vectors were produced by pass  6.
   1 vectors were produced by pass  7.
   1 vectors were produced by pass  8.
   1 vectors were produced by pass  9.
   1 vectors were produced by pass 10.
   1 vectors were produced by pass 11.
   1 vectors were produced by pass 12.
   1 vectors were produced by pass 13.
 Inv2:  IOpt= 1 Iter= 1 AM= 3.22D-16 Conv= 1.00D-12.
 Inverted reduced A of dimension  14 with in-core refinement.

 **********************************************************************

            Population analysis using the SCF density.

 **********************************************************************

 Orbital Symmetries:
       Occupied  (A') (A') (A') (A') (A') (A') (A') (A') (A') (A')
                 (A') (A') (A") (A') (A') (A') (A") (A")
       Virtual   (A') (A") (A') (A') (A") (A') (A') (A') (A') (A')
                 (A') (A") (A') (A") (A') (A') (A') (A") (A') (A')
                 (A') (A') (A") (A') (A') (A') (A') (A") (A") (A')
                 (A') (A") (A') (A") (A') (A") (A') (A") (A') (A')
                 (A') (A") (A') (A') (A') (A") (A') (A") (A') (A")
                 (A") (A') (A') (A") (A') (A') (A') (A') (A") (A')
                 (A') (A") (A') (A") (A') (A') (A') (A') (A') (A')
                 (A') (A')
  The electronic state is 1-A'.
 Alpha  occ. eigenvalues --  -15.63564 -15.55726 -11.23688 -11.21397 -11.18105
 Alpha  occ. eigenvalues --   -1.45478  -1.12905  -1.08311   -.86577   -.83306
 Alpha  occ. eigenvalues --    -.77229   -.65191   -.64999   -.60815   -.56586
 Alpha  occ. eigenvalues --    -.43828   -.37398   -.34155
 Alpha virt. eigenvalues --     .18566    .20556    .22625    .23661    .26389
 Alpha virt. eigenvalues --     .26515    .40925    .42585    .45171    .50254
 Alpha virt. eigenvalues --     .64518    .67054    .68102    .73252    .74496
 Alpha virt. eigenvalues --     .76591    .78781    .81743    .85898    .91385
 Alpha virt. eigenvalues --     .95227    .96622   1.00937   1.01409   1.05491
 Alpha virt. eigenvalues --    1.06876   1.11018   1.11405   1.13106   1.23016
 Alpha virt. eigenvalues --    1.27757   1.29009   1.36868   1.38295   1.38531
 Alpha virt. eigenvalues --    1.42688   1.55436   1.60278   1.63233   1.73568
 Alpha virt. eigenvalues --    1.79646   1.84432   1.85371   1.89481   1.95324
 Alpha virt. eigenvalues --    1.95892   2.02236   2.11595   2.13807   2.17028
 Alpha virt. eigenvalues --    2.24185   2.26244   2.29325   2.29991   2.34998
 Alpha virt. eigenvalues --    2.36300   2.51808   2.53436   2.73017   2.74702
 Alpha virt. eigenvalues --    2.80162   2.87665   2.95249   3.00064   3.10199
 Alpha virt. eigenvalues --    3.18773   3.23213   3.31432   3.39749   3.46360
 Alpha virt. eigenvalues --    3.87876   4.10535
          Condensed to atoms (all electrons):
              1          2          3          4          5          6
  1  H     .650430    .417831   -.004007   -.023322   -.000400    .002975
  2  C     .417831   4.714210   -.043412    .559324    .010612   -.067394
  3  H    -.004007   -.043412    .691043    .434937   -.006725   -.036666
  4  C    -.023322    .559324    .434937   4.755406   -.044604    .568872
  5  H    -.000400    .010612   -.006725   -.044604    .656774    .432451
  6  C     .002975   -.067394   -.036666    .568872    .432451   4.475274
  7  N     .004715   -.207805    .010803   -.033352   -.018521    .607071
  8  H    -.005062   -.032923   -.000203    .008470   -.000281    .004406
  9  N    -.024667    .471241    .004808   -.055896    .001596   -.183137
              7          8          9
  1  H     .004715   -.005062   -.024667
  2  C    -.207805   -.032923    .471241
  3  H     .010803   -.000203    .004808
  4  C    -.033352    .008470   -.055896
  5  H    -.018521   -.000281    .001596
  6  C     .607071    .004406   -.183137
  7  N    6.501121   -.036617    .411787
  8  H    -.036617    .555672    .426579
  9  N     .411787    .426579   5.893095
 Total atomic charges:
              1
  1  H    -.018495
  2  C     .178316
  3  H    -.050579
  4  C    -.169835
  5  H    -.030903
  6  C     .196147
  7  N    -.239203
  8  H     .079958
  9  N     .054594
 Sum of Mulliken charges=    .00000
 Atomic charges with hydrogens summed into heavy atoms:
              1
  1  H     .000000
  2  C     .159821
  3  H     .000000
  4  C    -.220414
  5  H     .000000
  6  C     .165244
  7  N    -.239203
  8  H     .000000
  9  N     .134552
 Sum of Mulliken charges=    .00000
 Electronic spatial extent (au):  <R**2>=   258.7844
 Charge=      .0000 electrons
 Dipole moment (Debye):
    X=     2.0923    Y=     1.0073    Z=      .0000  Tot=     2.3222
 Quadrupole moment (Debye-Ang):
   XX=   -29.7789   YY=   -21.9827   ZZ=   -30.8634
   XY=     2.6150   XZ=      .0000   YZ=      .0000
 Octapole moment (Debye-Ang**2):
  XXX=     8.0865  YYY=    11.4542  ZZZ=      .0000  XYY=      .2100
  XXY=    -1.9756  XXZ=      .0000  XZZ=     -.9070  YZZ=     2.2937
  YYZ=      .0000  XYZ=      .0000
 Hexadecapole moment (Debye-Ang**3):
 XXXX=  -150.9086 YYYY=  -121.3767 ZZZZ=   -31.0906 XXXY=     6.8297
 XXXZ=      .0000 YYYX=      .5064 YYYZ=      .0000 ZZZX=      .0000
 ZZZY=      .0000 XXYY=   -47.3994 XXZZ=   -32.7588 YYZZ=   -32.6228
 XXYZ=      .0000 YYXZ=      .0000 ZZXY=     -.1745
 N-N= 1.737391879471D+02 E-N=-8.742125364345D+02  KE= 2.264047784407D+02
 Symmetry A'   KE= 2.184682817718D+02
 Symmetry A"   KE= 7.936496668851D+00
 ***** Axes restored to original set *****
 -------------------------------------------------------------------
 Center     Atomic                   Forces (Hartrees/Bohr)
 Number     Number              X              Y              Z
 -------------------------------------------------------------------
    1          1           -.086785225     .000000000    -.045122857
    2          6           -.024397556     .000000000    -.054941301
    3          1            .024898872     .000000000    -.094077561
    4          6           -.008050800     .000000000    -.048577524
    5          1            .094566255     .000000000     .011617251
    6          6            .011307262     .000000000     .015926533
    7          7            .085322744     .000000000     .157024230
    8          1           -.063603546     .000000000     .063643769
    9          7           -.033258006     .000000000    -.005492540
 -------------------------------------------------------------------
 Cartesian Forces:  Max      .157024230 RMS      .052951654

 GradGradGradGradGradGradGradGradGradGradGradGradGradGradGradGradGradGrad
 Berny optimization.
 Internal  Forces:  Max      .140448941 RMS      .053361800
 Search for a local minimum.
 Step number   1 out of a maximum of  48
 All quantities printed in internal units (Hartrees-Bohrs-Radians)
 Second derivative matrix not updated -- first step.
     Eigenvalues ---     .03204    .03245    .03263    .03273    .03342
     Eigenvalues ---     .03375    .16000    .16000    .16000    .16000
     Eigenvalues ---     .22000    .22938    .49374    .49681    .49740
     Eigenvalues ---     .56490    .56686    .60708    .68179    .73042
     Eigenvalues ---     .827791000.000001000.000001000.000001000.00000
     Eigenvalues --- 1000.000001000.000001000.000001000.000001000.00000
     Eigenvalues --- 1000.000001000.000001000.000001000.000001000.00000
     Eigenvalues --- 1000.000001000.000001000.00000
 RFO step:  Lambda=-1.42417858D-01.
 Linear search not attempted -- first point.
 Maximum step size (    .300) exceeded in Quadratic search.
    -- Step size scaled by    .674
 Iteration  1 RMS(Cart)=   .06354776 RMS(Int)=   .00067368
 Iteration  2 RMS(Cart)=   .00083909 RMS(Int)=   .00001820
 Iteration  3 RMS(Cart)=   .00000052 RMS(Int)=   .00001820
 Variable       Old X    -DE/DX   Delta X   Delta X   Delta X     New X
                                 (Linear)    (Quad)   (Total)
    R1        1.86889    .09734    .00000    .10261    .10261   1.97150
    R2        2.49307    .09458    .00000    .08202    .08205   2.57512
    R3        2.40839    .12476    .00000    .09571    .09570   2.50410
    R4        1.86829    .09726    .00000    .10244    .10244   1.97073
    R5        2.47696    .14045    .00000    .11822    .11824   2.59520
    R6        1.87202    .09453    .00000    .10013    .10013   1.97215
    R7        2.41851    .09222    .00000    .07119    .07117   2.48968
    R8        2.34237    .13012    .00000    .08821    .08818   2.43055
    R9        1.77084    .08932    .00000    .08031    .08031   1.85115
    A1        2.20252    .01423    .00000    .03028    .03027   2.23279
    A2        2.21295   -.00382    .00000   -.00993   -.00994   2.20301
    A3        1.86771   -.01041    .00000   -.02035   -.02033   1.84738
    A4        2.22327   -.00236    .00000   -.00142   -.00145   2.22182
    A5        1.83976   -.00129    .00000   -.01054   -.01049   1.82927
    A6        2.22016    .00365    .00000    .01196    .01193   2.23209
    A7        2.19731    .00150    .00000    .00948    .00948   2.20679
    A8        1.89479    .01930    .00000    .03074    .03075   1.92554
    A9        2.19108   -.02080    .00000   -.04022   -.04023   2.15085
   A10        1.88850   -.02746    .00000   -.04249   -.04255   1.84595
   A11        1.93402    .01986    .00000    .04265    .04262   1.97663
   A12        2.17185   -.00032    .00000    .00008    .00010   2.17194
   A13        2.17732   -.01953    .00000   -.04273   -.04271   2.13461
    D1         .00000    .00000    .00000    .00000    .00000    .00000
    D2        3.14159    .00000    .00000    .00000    .00000   3.14159
    D3        3.14159    .00000    .00000    .00000    .00000   3.14159
    D4         .00000    .00000    .00000    .00000    .00000    .00000
    D5        3.14159    .00000    .00000    .00000    .00000   3.14159
    D6         .00000    .00000    .00000    .00000    .00000    .00000
    D7         .00000    .00000    .00000    .00000    .00000    .00000
    D8        3.14159    .00000    .00000    .00000    .00000   3.14159
    D9        3.14159    .00000    .00000    .00000    .00000   3.14159
   D10         .00000    .00000    .00000    .00000    .00000    .00000
   D11         .00000    .00000    .00000    .00000    .00000    .00000
   D12        3.14159    .00000    .00000    .00000    .00000   3.14159
   D13         .00000    .00000    .00000    .00000    .00000    .00000
   D14        3.14159    .00000    .00000    .00000    .00000   3.14159
   D15         .00000    .00000    .00000    .00000    .00000    .00000
   D16        3.14159    .00000    .00000    .00000    .00000   3.14159
         Item               Value     Threshold  Converged?
 Maximum Force             .140449      .000450     NO 
 RMS     Force             .053362      .000300     NO 
 Maximum Displacement      .179633      .001800     NO 
 RMS     Displacement      .063501      .001200     NO 
 Predicted change in Energy=-2.592533D-02
 GradGradGradGradGradGradGradGradGradGradGradGradGradGradGradGradGradGrad

                          Input orientation:                          
 ---------------------------------------------------------------------
 Center     Atomic     Atomic              Coordinates (Angstroms)
 Number     Number      Type              X           Y           Z
 ---------------------------------------------------------------------
    1          1             0       -1.809381     .000000   -1.177777
    2          6             0        -.920687     .000000    -.631298
    3          1             0         .657610     .000000   -2.106381
    4          6             0         .355859     .000000   -1.108125
    5          1             0        2.192686     .000000     .033724
    6          6             0        1.149279     .000000     .012811
    7          7             0         .405269     .000000    1.100106
    8          1             0       -1.574053     .000000    1.306989
    9          7             0        -.813612     .000000     .689481
 ---------------------------------------------------------------------
                    Distance matrix (angstroms):
                    1          2          3          4          5
     1  H     .000000
     2  C    1.043271    .000000
     3  H    2.635972   2.160299    .000000
     4  C    2.166360   1.362694   1.042865    .000000
     5  H    4.181420   3.183606   2.633725   2.162811    .000000
     6  C    3.189227   2.167865   2.175480   1.373322   1.043617
     7  N    3.177015   2.180807   3.216401   2.208784   2.081353
     8  H    2.495884   2.045444   4.078163   3.091495   3.976120
     9  N    2.116177   1.325112   3.159325   2.144540   3.076987
                    6          7          8          9
     6  C     .000000
     7  N    1.317483    .000000
     8  H    3.015201   1.990105    .000000
     9  N    2.076253   1.286190    .979585    .000000
 Stoichiometry    C3H4N2
 Framework group  CS[SG(C3H4N2)]
 Deg. of freedom   15
 Full point group                 CS      NOp   2
 Largest Abelian subgroup         CS      NOp   2
 Largest concise Abelian subgroup C1      NOp   1
                         Standard orientation:                         
 ---------------------------------------------------------------------
 Center     Atomic     Atomic              Coordinates (Angstroms)
 Number     Number      Type              X           Y           Z
 ---------------------------------------------------------------------
    1          1             0        2.071137     .630627     .000000
    2          6             0        1.081774     .299604     .000000
    3          1             0        1.200544   -1.857428     .000000
    4          6             0         .628463    -.985482     .000000
    5          1             0       -1.425902   -1.661750     .000000
    6          6             0        -.740396    -.874847     .000000
    7          7             0       -1.097013     .393454     .000000
    8          1             0         .014265    2.044386     .000000
    9          7             0         .000000    1.064905     .000000
 ---------------------------------------------------------------------
 Rotational constants (GHZ):     10.1302367      9.9240154      5.0130329
 Isotopes: H-1,C-12,H-1,C-12,H-1,C-12,N-14,H-1,N-14
 Standard basis: CC-pVDZ (5D, 7F)
 There are    66 symmetry adapted basis functions of A'  symmetry.
 There are    24 symmetry adapted basis functions of A"  symmetry.
 Crude estimate of integral set expansion from redundant integrals=1.000.
 Integral buffers will be    262144 words long.
 Raffenetti 1 integral format.
 Two-electron integral symmetry is turned on.
    90 basis functions      203 primitive gaussians
    18 alpha electrons       18 beta electrons
       nuclear repulsion energy       167.2518574194 Hartrees.
 One-electron integrals computed using PRISM.
 NBasis=    90 RedAO= T  NBF=    66    24
 NBsUse=    90 1.00D-04 NBFU=    66    24
 Initial guess read from the read-write file:
 Initial guess orbital symmetries:
       Occupied  (A') (A') (A') (A') (A') (A') (A') (A') (A') (A')
                 (A') (A') (A") (A') (A') (A') (A") (A")
       Virtual   (A') (A") (A') (A') (A") (A') (A') (A') (A') (A')
                 (A') (A") (A') (A") (A') (A') (A') (A") (A') (A')
                 (A') (A') (A") (A') (A') (A') (A') (A") (A") (A')
                 (A') (A") (A') (A") (A') (A") (A') (A") (A') (A')
                 (A') (A") (A') (A') (A') (A") (A') (A") (A') (A")
                 (A") (A') (A') (A") (A') (A') (A') (A') (A") (A')
                 (A') (A") (A') (A") (A') (A') (A') (A') (A') (A')
                 (A') (A')
 Requested convergence on RMS density matrix=1.00D-08 within  64 cycles.
 Requested convergence on MAX density matrix=1.00D-06.
 Keep R1 integrals in memory in canonical form, NReq=    10871361.
 SCF Done:  E(RHF) =  -224.807995312     A.U. after   13 cycles
             Convg  =     .5694D-08             -V/T =  1.9982
             S**2   =    .0000
 Range of M.O.s used for correlation:     6    90
 NBasis=    90 NAE=    18 NBE=    18 NFC=     5 NFV=     0
 NROrb=     85 NOA=    13 NOB=    13 NVA=    72 NVB=    72
 Fully direct method using O(ONN) memory.
 JobTyp=1 Pass  1:  I=   6 to  18.
 Spin components of T(2) and E(2):
     alpha-alpha T2 =        .3417898012D-01 E2=      -.9713906453D-01
     alpha-beta  T2 =        .1771213940D+00 E2=      -.5229939500D+00
     beta-beta   T2 =        .3417898012D-01 E2=      -.9713906453D-01
 ANorm=     .1116010463D+01
 E2 =     -.7172720791D+00 EUMP2 =     -.22552526739121D+03
          Differentiating once with respect to electric field.
                with respect to dipole field.
          Differentiating once with respect to nuclear coordinates.
          Store integrals in memory, NReq=    10839559.
          There are   1 degrees of freedom in the 1st order CPHF.
   1 vectors were produced by pass  0.
 AX will form   1 AO Fock derivatives at one time.
   1 vectors were produced by pass  1.
   1 vectors were produced by pass  2.
   1 vectors were produced by pass  3.
   1 vectors were produced by pass  4.
   1 vectors were produced by pass  5.
   1 vectors were produced by pass  6.
   1 vectors were produced by pass  7.
   1 vectors were produced by pass  8.
   1 vectors were produced by pass  9.
   1 vectors were produced by pass 10.
   1 vectors were produced by pass 11.
   1 vectors were produced by pass 12.
   1 vectors were produced by pass 13.
 Inv2:  IOpt= 1 Iter= 1 AM= 4.65D-16 Conv= 1.00D-12.
 Inverted reduced A of dimension  14 with in-core refinement.
 ***** Axes restored to original set *****
 -------------------------------------------------------------------
 Center     Atomic                   Forces (Hartrees/Bohr)
 Number     Number              X              Y              Z
 -------------------------------------------------------------------
    1          1           -.036297381     .000000000    -.013149358
    2          6           -.003054364     .000000000    -.024864547
    3          1            .009871301     .000000000    -.036737195
    4          6            .000687016     .000000000    -.013363306
    5          1            .037496666     .000000000     .007915186
    6          6            .001252566     .000000000    -.005291281
    7          7            .039921804     .000000000     .066670624
    8          1           -.022937023     .000000000     .027592562
    9          7           -.026940585     .000000000    -.008772686
 -------------------------------------------------------------------
 Cartesian Forces:  Max      .066670624 RMS      .022253793

 GradGradGradGradGradGradGradGradGradGradGradGradGradGradGradGradGradGrad
 Berny optimization.
 Internal  Forces:  Max      .057959503 RMS      .021161726
 Search for a local minimum.
 Step number   2 out of a maximum of  48
 All quantities printed in internal units (Hartrees-Bohrs-Radians)
 Update second derivatives using information from points  1  2
 Trust test= 2.53D+00 RLast= 3.00D-01 DXMaxT set to 4.24D-01
     Eigenvalues ---     .03204    .03247    .03260    .03273    .03343
     Eigenvalues ---     .03375    .15919    .16000    .16000    .16018
     Eigenvalues ---     .22015    .23496    .49457    .49711    .51598
     Eigenvalues ---     .57116    .58510    .61671    .68415    .75208
     Eigenvalues ---     .814941000.000001000.000001000.000001000.00000
     Eigenvalues --- 1000.000001000.000001000.000001000.000001000.00000
     Eigenvalues --- 1000.000001000.000001000.000001000.000001000.00000
     Eigenvalues --- 1000.000001000.000001000.00000
 RFO step:  Lambda=-2.80254682D-03.
 Quartic linear search produced a step of   .86587.
 Iteration  1 RMS(Cart)=   .06247714 RMS(Int)=   .00165797
 Iteration  2 RMS(Cart)=   .00200041 RMS(Int)=   .00004205
 Iteration  3 RMS(Cart)=   .00000413 RMS(Int)=   .00004189
 Iteration  4 RMS(Cart)=   .00000000 RMS(Int)=   .00004189
 Variable       Old X    -DE/DX   Delta X   Delta X   Delta X     New X
                                 (Linear)    (Quad)   (Total)
    R1        1.97150    .03781    .08885    .00237    .09121   2.06271
    R2        2.57512    .03813    .07104    .00071    .07169   2.64681
    R3        2.50410    .04669    .08287   -.00826    .07456   2.57866
    R4        1.97073    .03802    .08870    .00324    .09194   2.06267
    R5        2.59520    .04935    .10238   -.02030    .08210   2.67730
    R6        1.97215    .03765    .08670    .00595    .09265   2.06480
    R7        2.48968    .03871    .06163    .00429    .06599   2.55568
    R8        2.43055    .05796    .07635    .01122    .08760   2.51814
    R9        1.85115    .03520    .06953    .00019    .06972   1.92087
    A1        2.23279    .00868    .02621    .05326    .07953   2.31232
    A2        2.20301   -.00672   -.00861   -.06225   -.07080   2.13221
    A3        1.84738   -.00195   -.01760    .00899   -.00873   1.83865
    A4        2.22182   -.00151   -.00125   -.00114   -.00236   2.21946
    A5        1.82927    .00068   -.00908   -.00411   -.01325   1.81602
    A6        2.23209    .00082    .01033    .00524    .01560   2.24770
    A7        2.20679    .00305    .00821    .03898    .04715   2.25394
    A8        1.92554    .00803    .02663    .00852    .03522   1.96076
    A9        2.15085   -.01108   -.03483   -.04751   -.08237   2.06848
   A10        1.84595   -.01109   -.03684   -.00525   -.04196   1.80399
   A11        1.97663    .00433    .03690   -.00816    .02872   2.00535
   A12        2.17194    .00428    .00008    .04545    .04555   2.21749
   A13        2.13461   -.00861   -.03698   -.03729   -.07426   2.06034
    D1         .00000    .00000    .00000    .00000    .00000    .00000
    D2        3.14159    .00000    .00000    .00000    .00000   3.14159
    D3        3.14159    .00000    .00000    .00000    .00000   3.14159
    D4         .00000    .00000    .00000    .00000    .00000    .00000
    D5        3.14159    .00000    .00000    .00000    .00000   3.14159
    D6         .00000    .00000    .00000    .00000    .00000    .00000
    D7         .00000    .00000    .00000    .00000    .00000    .00000
    D8        3.14159    .00000    .00000    .00000    .00000   3.14159
    D9        3.14159    .00000    .00000    .00000    .00000   3.14159
   D10         .00000    .00000    .00000    .00000    .00000    .00000
   D11         .00000    .00000    .00000    .00000    .00000    .00000
   D12        3.14159    .00000    .00000    .00000    .00000   3.14159
   D13         .00000    .00000    .00000    .00000    .00000    .00000
   D14        3.14159    .00000    .00000    .00000    .00000   3.14159
   D15         .00000    .00000    .00000    .00000    .00000    .00000
   D16        3.14159    .00000    .00000    .00000    .00000   3.14159
         Item               Value     Threshold  Converged?
 Maximum Force             .057960      .000450     NO 
 RMS     Force             .021162      .000300     NO 
 Maximum Displacement      .195281      .001800     NO 
 RMS     Displacement      .062452      .001200     NO 
 Predicted change in Energy=-2.317739D-02
 GradGradGradGradGradGradGradGradGradGradGradGradGradGradGradGradGradGrad

                          Input orientation:                          
 ---------------------------------------------------------------------
 Center     Atomic     Atomic              Coordinates (Angstroms)
 Number     Number      Type              X           Y           Z
 ---------------------------------------------------------------------
    1          1             0       -1.915918     .000000   -1.180029
    2          6             0        -.946238     .000000    -.678850
    3          1             0         .687244     .000000   -2.205976
    4          6             0         .368401     .000000   -1.162064
    5          1             0        2.254033     .000000     .102779
    6          6             0        1.165399     .000000     .009270
    7          7             0         .420446     .000000    1.138007
    8          1             0       -1.587957     .000000    1.359534
    9          7             0        -.831231     .000000     .680862
 ---------------------------------------------------------------------
                    Distance matrix (angstroms):
                    1          2          3          4          5
     1  H     .000000
     2  C    1.091540    .000000
     3  H    2.798039   2.236152    .000000
     4  C    2.284389   1.400632   1.091519    .000000
     5  H    4.362807   3.294340   2.790193   2.270558    .000000
     6  C    3.302869   2.220927   2.266263   1.416767   1.092643
     7  N    3.291183   2.273498   3.354609   2.300660   2.105644
     8  H    2.560652   2.137010   4.229586   3.191519   4.042316
     9  N    2.153941   1.364568   3.261840   2.198975   3.138954
                    6          7          8          9
     6  C     .000000
     7  N    1.352406    .000000
     8  H    3.066623   2.020583    .000000
     9  N    2.106553   1.332545   1.016479    .000000
 Stoichiometry    C3H4N2
 Framework group  CS[SG(C3H4N2)]
 Deg. of freedom   15
 Full point group                 CS      NOp   2
 Largest Abelian subgroup         CS      NOp   2
 Largest concise Abelian subgroup C1      NOp   1
                         Standard orientation:                         
 ---------------------------------------------------------------------
 Center     Atomic     Atomic              Coordinates (Angstroms)
 Number     Number      Type              X           Y           Z
 ---------------------------------------------------------------------
    1          1             0        2.126179     .734846     .000000
    2          6             0        1.123067     .304467     .000000
    3          1             0        1.264501   -1.927208     .000000
    4          6             0         .660950   -1.017736     .000000
    5          1             0       -1.513833   -1.670232     .000000
    6          6             0        -.749954    -.888979     .000000
    7          7             0       -1.148276     .403438     .000000
    8          1             0        -.043293    2.095114     .000000
    9          7             0         .000000    1.079557     .000000
 ---------------------------------------------------------------------
 Rotational constants (GHZ):      9.6055431      9.2652572      4.7161660
 Isotopes: H-1,C-12,H-1,C-12,H-1,C-12,N-14,H-1,N-14
 Standard basis: CC-pVDZ (5D, 7F)
 There are    66 symmetry adapted basis functions of A'  symmetry.
 There are    24 symmetry adapted basis functions of A"  symmetry.
 Crude estimate of integral set expansion from redundant integrals=1.000.
 Integral buffers will be    262144 words long.
 Raffenetti 1 integral format.
 Two-electron integral symmetry is turned on.
    90 basis functions      203 primitive gaussians
    18 alpha electrons       18 beta electrons
       nuclear repulsion energy       162.1380697625 Hartrees.
 One-electron integrals computed using PRISM.
 NBasis=    90 RedAO= T  NBF=    66    24
 NBsUse=    90 1.00D-04 NBFU=    66    24
 Initial guess read from the read-write file:
 Initial guess orbital symmetries:
       Occupied  (A') (A') (A') (A') (A') (A') (A') (A') (A') (A')
                 (A') (A') (A") (A') (A') (A') (A") (A")
       Virtual   (A') (A") (A') (A') (A") (A') (A') (A') (A') (A')
                 (A') (A') (A") (A') (A") (A') (A') (A") (A') (A')
                 (A') (A') (A') (A") (A') (A') (A') (A") (A") (A')
                 (A') (A") (A') (A') (A") (A") (A') (A") (A') (A')
                 (A') (A") (A') (A') (A') (A") (A') (A") (A') (A")
                 (A") (A') (A') (A') (A") (A') (A') (A') (A") (A')
                 (A') (A') (A") (A") (A') (A') (A') (A') (A') (A')
                 (A') (A')
 Requested convergence on RMS density matrix=1.00D-08 within  64 cycles.
 Requested convergence on MAX density matrix=1.00D-06.
 Keep R1 integrals in memory in canonical form, NReq=    10871361.
 SCF Done:  E(RHF) =  -224.810513528     A.U. after   13 cycles
             Convg  =     .7483D-08             -V/T =  2.0021
             S**2   =    .0000
 Range of M.O.s used for correlation:     6    90
 NBasis=    90 NAE=    18 NBE=    18 NFC=     5 NFV=     0
 NROrb=     85 NOA=    13 NOB=    13 NVA=    72 NVB=    72
 Fully direct method using O(ONN) memory.
 JobTyp=1 Pass  1:  I=   6 to  18.
 Spin components of T(2) and E(2):
     alpha-alpha T2 =        .3590577587D-01 E2=      -.9838572700D-01
     alpha-beta  T2 =        .1883459540D+00 E2=      -.5343178082D+00
     beta-beta   T2 =        .3590577587D-01 E2=      -.9838572700D-01
 ANorm=     .1122567372D+01
 E2 =     -.7310892622D+00 EUMP2 =     -.22554160279036D+03
          Differentiating once with respect to electric field.
                with respect to dipole field.
          Differentiating once with respect to nuclear coordinates.
          Store integrals in memory, NReq=    10839559.
          There are   1 degrees of freedom in the 1st order CPHF.
   1 vectors were produced by pass  0.
 AX will form   1 AO Fock derivatives at one time.
   1 vectors were produced by pass  1.
   1 vectors were produced by pass  2.
   1 vectors were produced by pass  3.
   1 vectors were produced by pass  4.
   1 vectors were produced by pass  5.
   1 vectors were produced by pass  6.
   1 vectors were produced by pass  7.
   1 vectors were produced by pass  8.
   1 vectors were produced by pass  9.
   1 vectors were produced by pass 10.
   1 vectors were produced by pass 11.
   1 vectors were produced by pass 12.
   1 vectors were produced by pass 13.
   1 vectors were produced by pass 14.
 Inv2:  IOpt= 1 Iter= 1 AM= 3.63D-16 Conv= 1.00D-12.
 Inverted reduced A of dimension  15 with in-core refinement.
 ***** Axes restored to original set *****
 -------------------------------------------------------------------
 Center     Atomic                   Forces (Hartrees/Bohr)
 Number     Number              X              Y              Z
 -------------------------------------------------------------------
    1          1            .001540567     .000000000     .001280137
    2          6            .002444649     .000000000    -.002979296
    3          1           -.000435887     .000000000     .002242912
    4          6           -.002371617     .000000000     .001787851
    5          1           -.001722035     .000000000    -.001237634
    6          6            .006176060     .000000000    -.000906345
    7          7            .007363447     .000000000    -.000372891
    8          1            .000275114     .000000000    -.001888263
    9          7           -.013270298     .000000000     .002073529
 -------------------------------------------------------------------
 Cartesian Forces:  Max      .013270298 RMS      .003414401

 GradGradGradGradGradGradGradGradGradGradGradGradGradGradGradGradGradGrad
 Berny optimization.
 Internal  Forces:  Max      .009379091 RMS      .002109453
 Search for a local minimum.
 Step number   3 out of a maximum of  48
 All quantities printed in internal units (Hartrees-Bohrs-Radians)
 Update second derivatives using information from points  1  2  3
 Trust test= 7.05D-01 RLast= 3.03D-01 DXMaxT set to 4.24D-01
     Eigenvalues ---     .03203    .03248    .03250    .03273    .03342
     Eigenvalues ---     .03372    .15413    .16000    .16003    .16025
     Eigenvalues ---     .22036    .23460    .47346    .49534    .49714
     Eigenvalues ---     .57403    .58437    .59762    .67170    .69139
     Eigenvalues ---     .809941000.000001000.000001000.000001000.00000
     Eigenvalues --- 1000.000001000.000001000.000001000.000001000.00000
     Eigenvalues --- 1000.000001000.000001000.000001000.000001000.00000
     Eigenvalues --- 1000.000001000.000001000.00000
 RFO step:  Lambda=-3.67559906D-04.
 Quartic linear search produced a step of  -.02013.
 Iteration  1 RMS(Cart)=   .00710673 RMS(Int)=   .00002474
 Iteration  2 RMS(Cart)=   .00002734 RMS(Int)=   .00000435
 Iteration  3 RMS(Cart)=   .00000000 RMS(Int)=   .00000435
 Variable       Old X    -DE/DX   Delta X   Delta X   Delta X     New X
                                 (Linear)    (Quad)   (Total)
    R1        2.06271   -.00196   -.00184   -.00135   -.00319   2.05952
    R2        2.64681   -.00150   -.00144   -.00151   -.00295   2.64386
    R3        2.57866   -.00015   -.00150    .00245    .00096   2.57962
    R4        2.06267   -.00227   -.00185   -.00196   -.00381   2.05886
    R5        2.67730   -.00100   -.00165    .00004   -.00162   2.67568
    R6        2.06480   -.00182   -.00187   -.00113   -.00299   2.06180
    R7        2.55568    .00122   -.00133    .00378    .00244   2.55812
    R8        2.51814    .00938   -.00176    .01384    .01208   2.53022
    R9        1.92087   -.00147   -.00140   -.00041   -.00182   1.91905
    A1        2.31232   -.00030   -.00160    .00155   -.00006   2.31226
    A2        2.13221   -.00119    .00143   -.00573   -.00431   2.12790
    A3        1.83865    .00149    .00018    .00418    .00437   1.84302
    A4        2.21946   -.00145    .00005   -.00295   -.00290   2.21657
    A5        1.81602    .00340    .00027    .00854    .00880   1.82483
    A6        2.24770   -.00194   -.00031   -.00559   -.00591   2.24179
    A7        2.25394    .00002   -.00095   -.00040   -.00135   2.25260
    A8        1.96076   -.00228   -.00071   -.01105   -.01177   1.94899
    A9        2.06848    .00226    .00166    .01145    .01312   2.08159
   A10        1.80399    .00152    .00084    .01130    .01214   1.81613
   A11        2.00535   -.00412   -.00058   -.01297   -.01354   1.99181
   A12        2.21749    .00088   -.00092    .00014   -.00078   2.21671
   A13        2.06034    .00323    .00150    .01283    .01432   2.07467
    D1         .00000    .00000    .00000    .00000    .00000    .00000
    D2        3.14159    .00000    .00000    .00000    .00000   3.14159
    D3        3.14159    .00000    .00000    .00000    .00000   3.14159
    D4         .00000    .00000    .00000    .00000    .00000    .00000
    D5        3.14159    .00000    .00000    .00000    .00000   3.14159
    D6         .00000    .00000    .00000    .00000    .00000    .00000
    D7         .00000    .00000    .00000    .00000    .00000    .00000
    D8        3.14159    .00000    .00000    .00000    .00000   3.14159
    D9        3.14159    .00000    .00000    .00000    .00000   3.14159
   D10         .00000    .00000    .00000    .00000    .00000    .00000
   D11         .00000    .00000    .00000    .00000    .00000    .00000
   D12        3.14159    .00000    .00000    .00000    .00000   3.14159
   D13         .00000    .00000    .00000    .00000    .00000    .00000
   D14        3.14159    .00000    .00000    .00000    .00000   3.14159
   D15         .00000    .00000    .00000    .00000    .00000    .00000
   D16        3.14159    .00000    .00000    .00000    .00000   3.14159
         Item               Value     Threshold  Converged?
 Maximum Force             .009379      .000450     NO 
 RMS     Force             .002109      .000300     NO 
 Maximum Displacement      .022321      .001800     NO 
 RMS     Displacement      .007103      .001200     NO 
 Predicted change in Energy=-1.907504D-04
 GradGradGradGradGradGradGradGradGradGradGradGradGradGradGradGradGradGrad

                          Input orientation:                          
 ---------------------------------------------------------------------
 Center     Atomic     Atomic              Coordinates (Angstroms)
 Number     Number      Type              X           Y           Z
 ---------------------------------------------------------------------
    1          1             0       -1.915008     .000000   -1.174174
    2          6             0        -.947834     .000000    -.671825
    3          1             0         .683550     .000000   -2.194215
    4          6             0         .366280     .000000   -1.151934
    5          1             0        2.258580     .000000     .097670
    6          6             0        1.170795     .000000     .013209
    7          7             0         .419577     .000000    1.139341
    8          1             0       -1.602193     .000000    1.361736
    9          7             0        -.841387     .000000     .689093
 ---------------------------------------------------------------------
                    Distance matrix (angstroms):
                    1          2          3          4          5
     1  H     .000000
     2  C    1.089853    .000000
     3  H    2.791592   2.231387    .000000
     4  C    2.281396   1.399071   1.089500    .000000
     5  H    4.363075   3.297456   2.780909   2.267666    .000000
     6  C    3.306366   2.226626   2.260560   1.415911   1.091059
     7  N    3.286736   2.269391   3.343991   2.291895   2.113531
     8  H    2.555130   2.136248   4.227222   3.192713   4.062442
     9  N    2.150448   1.365075   3.261733   2.201781   3.155880
                    6          7          8          9
     6  C     .000000
     7  N    1.353699    .000000
     8  H    3.083502   2.033965    .000000
     9  N    2.122662   1.338937   1.015517    .000000
 Stoichiometry    C3H4N2
 Framework group  CS[SG(C3H4N2)]
 Deg. of freedom   15
 Full point group                 CS      NOp   2
 Largest Abelian subgroup         CS      NOp   2
 Largest concise Abelian subgroup C1      NOp   1
                         Standard orientation:                         
 ---------------------------------------------------------------------
 Center     Atomic     Atomic              Coordinates (Angstroms)
 Number     Number      Type              X           Y           Z
 ---------------------------------------------------------------------
    1          1             0        2.122004     .738648     .000000
    2          6             0        1.120828     .308038     .000000
    3          1             0        1.266407   -1.918594     .000000
    4          6             0         .660484   -1.013129     .000000
    5          1             0       -1.504821   -1.686750     .000000
    6          6             0        -.750756    -.898210     .000000
    7          7             0       -1.146848     .396245     .000000
    8          1             0        -.038993    2.102020     .000000
    9          7             0         .000000    1.087252     .000000
 ---------------------------------------------------------------------
 Rotational constants (GHZ):      9.5176221      9.3172241      4.7081785
 Isotopes: H-1,C-12,H-1,C-12,H-1,C-12,N-14,H-1,N-14
 Standard basis: CC-pVDZ (5D, 7F)
 There are    66 symmetry adapted basis functions of A'  symmetry.
 There are    24 symmetry adapted basis functions of A"  symmetry.
 Crude estimate of integral set expansion from redundant integrals=1.000.
 Integral buffers will be    262144 words long.
 Raffenetti 1 integral format.
 Two-electron integral symmetry is turned on.
    90 basis functions      203 primitive gaussians
    18 alpha electrons       18 beta electrons
       nuclear repulsion energy       161.9905979771 Hartrees.
 One-electron integrals computed using PRISM.
 NBasis=    90 RedAO= T  NBF=    66    24
 NBsUse=    90 1.00D-04 NBFU=    66    24
 Initial guess read from the read-write file:
 Initial guess orbital symmetries:
       Occupied  (A') (A') (A') (A') (A') (A') (A') (A') (A') (A')
                 (A') (A") (A') (A') (A') (A') (A") (A")
       Virtual   (A") (A') (A') (A') (A") (A') (A') (A') (A') (A')
                 (A') (A') (A') (A") (A') (A") (A') (A') (A") (A')
                 (A') (A') (A') (A") (A') (A') (A') (A") (A") (A')
                 (A') (A") (A') (A") (A') (A") (A') (A") (A') (A')
                 (A') (A") (A') (A') (A') (A") (A') (A") (A') (A")
                 (A") (A') (A') (A') (A') (A") (A') (A') (A") (A')
                 (A') (A') (A") (A') (A") (A') (A') (A') (A') (A')
                 (A') (A')
 Requested convergence on RMS density matrix=1.00D-08 within  64 cycles.
 Requested convergence on MAX density matrix=1.00D-06.
 Keep R1 integrals in memory in canonical form, NReq=    10871361.
 SCF Done:  E(RHF) =  -224.810685460     A.U. after   10 cycles
             Convg  =     .7862D-08             -V/T =  2.0022
             S**2   =    .0000
 Range of M.O.s used for correlation:     6    90
 NBasis=    90 NAE=    18 NBE=    18 NFC=     5 NFV=     0
 NROrb=     85 NOA=    13 NOB=    13 NVA=    72 NVB=    72
 Fully direct method using O(ONN) memory.
 JobTyp=1 Pass  1:  I=   6 to  18.
 Spin components of T(2) and E(2):
     alpha-alpha T2 =        .3591609441D-01 E2=      -.9835556539D-01
     alpha-beta  T2 =        .1884634873D+00 E2=      -.5343687779D+00
     beta-beta   T2 =        .3591609441D-01 E2=      -.9835556539D-01
 ANorm=     .1122628913D+01
 E2 =     -.7310799087D+00 EUMP2 =     -.22554176536913D+03
          Differentiating once with respect to electric field.
                with respect to dipole field.
          Differentiating once with respect to nuclear coordinates.
          Store integrals in memory, NReq=    10839559.
          There are   1 degrees of freedom in the 1st order CPHF.
   1 vectors were produced by pass  0.
 AX will form   1 AO Fock derivatives at one time.
   1 vectors were produced by pass  1.
   1 vectors were produced by pass  2.
   1 vectors were produced by pass  3.
   1 vectors were produced by pass  4.
   1 vectors were produced by pass  5.
   1 vectors were produced by pass  6.
   1 vectors were produced by pass  7.
   1 vectors were produced by pass  8.
   1 vectors were produced by pass  9.
   1 vectors were produced by pass 10.
   1 vectors were produced by pass 11.
   1 vectors were produced by pass 12.
   1 vectors were produced by pass 13.
   1 vectors were produced by pass 14.
 Inv2:  IOpt= 1 Iter= 1 AM= 4.36D-16 Conv= 1.00D-12.
 Inverted reduced A of dimension  15 with in-core refinement.
 ***** Axes restored to original set *****
 -------------------------------------------------------------------
 Center     Atomic                   Forces (Hartrees/Bohr)
 Number     Number              X              Y              Z
 -------------------------------------------------------------------
    1          1            .000589493     .000000000     .000224846
    2          6            .001628620     .000000000    -.001917665
    3          1           -.000282309     .000000000     .000534508
    4          6           -.001704967     .000000000    -.000108173
    5          1           -.001022472     .000000000     .000022727
    6          6           -.002389499     .000000000     .000099661
    7          7            .004627629     .000000000     .003486479
    8          1            .000940028     .000000000    -.000340674
    9          7           -.002386522     .000000000    -.002001710
 -------------------------------------------------------------------
 Cartesian Forces:  Max      .004627629 RMS      .001503700

 GradGradGradGradGradGradGradGradGradGradGradGradGradGradGradGradGradGrad
 Berny optimization.
 Internal  Forces:  Max      .003095669 RMS      .001024235
 Search for a local minimum.
 Step number   4 out of a maximum of  48
 All quantities printed in internal units (Hartrees-Bohrs-Radians)
 Update second derivatives using information from points  1  2  3  4
 Trust test= 8.52D-01 RLast= 3.48D-02 DXMaxT set to 4.24D-01
     Eigenvalues ---     .03203    .03247    .03250    .03273    .03342
     Eigenvalues ---     .03373    .15292    .15853    .16003    .16062
     Eigenvalues ---     .22071    .34698    .45957    .49238    .49608
     Eigenvalues ---     .49905    .57826    .60167    .64091    .71505
     Eigenvalues ---     .761911000.000001000.000001000.000001000.00000
     Eigenvalues --- 1000.000001000.000001000.000001000.000001000.00000
     Eigenvalues --- 1000.000001000.000001000.000001000.000001000.00000
     Eigenvalues --- 1000.000001000.000001000.00000
 RFO step:  Lambda=-7.55834304D-05.
 Quartic linear search produced a step of  -.12184.
 Iteration  1 RMS(Cart)=   .00236617 RMS(Int)=   .00000483
 Iteration  2 RMS(Cart)=   .00000559 RMS(Int)=   .00000245
 Iteration  3 RMS(Cart)=   .00000000 RMS(Int)=   .00000245
 Variable       Old X    -DE/DX   Delta X   Delta X   Delta X     New X
                                 (Linear)    (Quad)   (Total)
    R1        2.05952   -.00063    .00039   -.00197   -.00158   2.05794
    R2        2.64386   -.00310    .00036   -.00552   -.00516   2.63870
    R3        2.57962    .00053   -.00012    .00125    .00113   2.58074
    R4        2.05886   -.00059    .00046   -.00211   -.00165   2.05721
    R5        2.67568    .00016    .00020   -.00058   -.00038   2.67530
    R6        2.06180   -.00102    .00036   -.00260   -.00223   2.05957
    R7        2.55812   -.00086   -.00030   -.00006   -.00036   2.55776
    R8        2.53022    .00291   -.00147    .00736    .00589   2.53611
    R9        1.91905   -.00093    .00022   -.00181   -.00159   1.91746
    A1        2.31226    .00002    .00001    .00051    .00052   2.31279
    A2        2.12790    .00016    .00053   -.00059   -.00006   2.12784
    A3        1.84302   -.00018   -.00053    .00007   -.00047   1.84255
    A4        2.21657   -.00015    .00035   -.00062   -.00026   2.21630
    A5        1.82483    .00007   -.00107    .00086   -.00022   1.82461
    A6        2.24179    .00008    .00072   -.00024    .00048   2.24227
    A7        2.25260   -.00096    .00016   -.00335   -.00319   2.24941
    A8        1.94899    .00213    .00143    .00360    .00504   1.95403
    A9        2.08159   -.00117   -.00160   -.00025   -.00185   2.07974
   A10        1.81613   -.00306   -.00148   -.00557   -.00704   1.80908
   A11        1.99181    .00103    .00165    .00104    .00269   1.99450
   A12        2.21671   -.00016    .00010   -.00083   -.00074   2.21597
   A13        2.07467   -.00087   -.00174   -.00021   -.00195   2.07271
    D1         .00000    .00000    .00000    .00000    .00000    .00000
    D2        3.14159    .00000    .00000    .00000    .00000   3.14159
    D3        3.14159    .00000    .00000    .00000    .00000   3.14159
    D4         .00000    .00000    .00000    .00000    .00000    .00000
    D5        3.14159    .00000    .00000    .00000    .00000   3.14159
    D6         .00000    .00000    .00000    .00000    .00000    .00000
    D7         .00000    .00000    .00000    .00000    .00000    .00000
    D8        3.14159    .00000    .00000    .00000    .00000   3.14159
    D9        3.14159    .00000    .00000    .00000    .00000   3.14159
   D10         .00000    .00000    .00000    .00000    .00000    .00000
   D11         .00000    .00000    .00000    .00000    .00000    .00000
   D12        3.14159    .00000    .00000    .00000    .00000   3.14159
   D13         .00000    .00000    .00000    .00000    .00000    .00000
   D14        3.14159    .00000    .00000    .00000    .00000   3.14159
   D15         .00000    .00000    .00000    .00000    .00000    .00000
   D16        3.14159    .00000    .00000    .00000    .00000   3.14159
         Item               Value     Threshold  Converged?
 Maximum Force             .003096      .000450     NO 
 RMS     Force             .001024      .000300     NO 
 Maximum Displacement      .007373      .001800     NO 
 RMS     Displacement      .002367      .001200     NO 
 Predicted change in Energy=-4.098516D-05
 GradGradGradGradGradGradGradGradGradGradGradGradGradGradGradGradGradGrad

                          Input orientation:                          
 ---------------------------------------------------------------------
 Center     Atomic     Atomic              Coordinates (Angstroms)
 Number     Number      Type              X           Y           Z
 ---------------------------------------------------------------------
    1          1             0       -1.913368     .000000   -1.175820
    2          6             0        -.946952     .000000    -.673826
    3          1             0         .682184     .000000   -2.193624
    4          6             0         .364862     .000000   -1.152269
    5          1             0        2.255171     .000000     .095072
    6          6             0        1.168363     .000000     .013329
    7          7             0         .422063     .000000    1.142499
    8          1             0       -1.601309     .000000    1.359155
    9          7             0        -.840579     .000000     .687696
 ---------------------------------------------------------------------
                    Distance matrix (angstroms):
                    1          2          3          4          5
     1  H     .000000
     2  C    1.089017    .000000
     3  H    2.787977   2.227975    .000000
     4  C    2.278352   1.396339   1.088630    .000000
     5  H    4.357968   3.293144   2.777125   2.264758    .000000
     6  C    3.303202   2.224127   2.259870   1.415709   1.089878
     7  N    3.290721   2.274476   3.346249   2.295481   2.111253
     8  H    2.554110   2.135695   4.223337   3.189526   4.058367
     9  N    2.150249   1.365671   3.258958   2.199672   3.151963
                    6          7          8          9
     6  C     .000000
     7  N    1.353510    .000000
     8  H    3.079339   2.034938    .000000
     9  N    2.119108   1.342054   1.014676    .000000
 Stoichiometry    C3H4N2
 Framework group  CS[SG(C3H4N2)]
 Deg. of freedom   15
 Full point group                 CS      NOp   2
 Largest Abelian subgroup         CS      NOp   2
 Largest concise Abelian subgroup C1      NOp   1
                         Standard orientation:                         
 ---------------------------------------------------------------------
 Center     Atomic     Atomic              Coordinates (Angstroms)
 Number     Number      Type              X           Y           Z
 ---------------------------------------------------------------------
    1          1             0        2.121821     .737443     .000000
    2          6             0        1.121584     .306764     .000000
    3          1             0        1.267539   -1.916425     .000000
    4          6             0         .661975   -1.011767     .000000
    5          1             0       -1.500028   -1.686212     .000000
    6          6             0        -.749025    -.896384     .000000
    7          7             0       -1.151139     .396015     .000000
    8          1             0        -.038562    2.099876     .000000
    9          7             0         .000000    1.085933     .000000
 ---------------------------------------------------------------------
 Rotational constants (GHZ):      9.5434492      9.2938773      4.7085050
 Isotopes: H-1,C-12,H-1,C-12,H-1,C-12,N-14,H-1,N-14
 Standard basis: CC-pVDZ (5D, 7F)
 There are    66 symmetry adapted basis functions of A'  symmetry.
 There are    24 symmetry adapted basis functions of A"  symmetry.
 Crude estimate of integral set expansion from redundant integrals=1.000.
 Integral buffers will be    262144 words long.
 Raffenetti 1 integral format.
 Two-electron integral symmetry is turned on.
    90 basis functions      203 primitive gaussians
    18 alpha electrons       18 beta electrons
       nuclear repulsion energy       161.9935933096 Hartrees.
 One-electron integrals computed using PRISM.
 NBasis=    90 RedAO= T  NBF=    66    24
 NBsUse=    90 1.00D-04 NBFU=    66    24
 Initial guess read from the read-write file:
 Initial guess orbital symmetries:
       Occupied  (A') (A') (A') (A') (A') (A') (A') (A') (A') (A')
                 (A') (A') (A") (A') (A') (A') (A") (A")
       Virtual   (A") (A') (A') (A') (A") (A') (A') (A') (A') (A')
                 (A') (A') (A') (A") (A') (A") (A') (A') (A") (A')
                 (A') (A') (A') (A") (A') (A') (A') (A") (A") (A')
                 (A') (A") (A') (A") (A') (A") (A') (A") (A') (A')
                 (A') (A") (A') (A') (A') (A") (A') (A") (A') (A")
                 (A") (A') (A') (A') (A') (A") (A') (A') (A") (A')
                 (A') (A') (A") (A') (A") (A') (A') (A') (A') (A')
                 (A') (A')
 Requested convergence on RMS density matrix=1.00D-08 within  64 cycles.
 Requested convergence on MAX density matrix=1.00D-06.
 Keep R1 integrals in memory in canonical form, NReq=    10871361.
 SCF Done:  E(RHF) =  -224.810747886     A.U. after   11 cycles
             Convg  =     .5558D-08             -V/T =  2.0021
             S**2   =    .0000
 Range of M.O.s used for correlation:     6    90
 NBasis=    90 NAE=    18 NBE=    18 NFC=     5 NFV=     0
 NROrb=     85 NOA=    13 NOB=    13 NVA=    72 NVB=    72
 Fully direct method using O(ONN) memory.
 JobTyp=1 Pass  1:  I=   6 to  18.
 Spin components of T(2) and E(2):
     alpha-alpha T2 =        .3591079563D-01 E2=      -.9834838491D-01
     alpha-beta  T2 =        .1884426493D+00 E2=      -.5343680404D+00
     beta-beta   T2 =        .3591079563D-01 E2=      -.9834838491D-01
 ANorm=     .1122614912D+01
 E2 =     -.7310648102D+00 EUMP2 =     -.22554181269586D+03
          Differentiating once with respect to electric field.
                with respect to dipole field.
          Differentiating once with respect to nuclear coordinates.
          Store integrals in memory, NReq=    10839559.
          There are   1 degrees of freedom in the 1st order CPHF.
   1 vectors were produced by pass  0.
 AX will form   1 AO Fock derivatives at one time.
   1 vectors were produced by pass  1.
   1 vectors were produced by pass  2.
   1 vectors were produced by pass  3.
   1 vectors were produced by pass  4.
   1 vectors were produced by pass  5.
   1 vectors were produced by pass  6.
   1 vectors were produced by pass  7.
   1 vectors were produced by pass  8.
   1 vectors were produced by pass  9.
   1 vectors were produced by pass 10.
   1 vectors were produced by pass 11.
   1 vectors were produced by pass 12.
   1 vectors were produced by pass 13.
   1 vectors were produced by pass 14.
 Inv2:  IOpt= 1 Iter= 1 AM= 2.89D-16 Conv= 1.00D-12.
 Inverted reduced A of dimension  15 with in-core refinement.
 ***** Axes restored to original set *****
 -------------------------------------------------------------------
 Center     Atomic                   Forces (Hartrees/Bohr)
 Number     Number              X              Y              Z
 -------------------------------------------------------------------
    1          1            .000013738     .000000000     .000053160
    2          6            .000698385     .000000000     .000225450
    3          1            .000074391     .000000000     .000022966
    4          6           -.000181220     .000000000    -.000168718
    5          1           -.000041202     .000000000     .000054059
    6          6           -.000783258     .000000000     .000188928
    7          7            .001533934     .000000000     .000293448
    8          1            .000275052     .000000000     .000118886
    9          7           -.001589820     .000000000    -.000788179
 -------------------------------------------------------------------
 Cartesian Forces:  Max      .001589820 RMS      .000507001

 GradGradGradGradGradGradGradGradGradGradGradGradGradGradGradGradGradGrad
 Berny optimization.
 Internal  Forces:  Max      .001048066 RMS      .000237622
 Search for a local minimum.
 Step number   5 out of a maximum of  48
 All quantities printed in internal units (Hartrees-Bohrs-Radians)
 Update second derivatives using information from points  1  2  3  4  5

 Trust test= 1.15D+00 RLast= 1.33D-02 DXMaxT set to 4.24D-01
     Eigenvalues ---     .03203    .03248    .03250    .03273    .03342
     Eigenvalues ---     .03373    .15321    .15682    .16027    .16295
     Eigenvalues ---     .21610    .34600    .40408    .47923    .49586
     Eigenvalues ---     .49723    .58125    .60053    .64085    .70179
     Eigenvalues ---     .763411000.000001000.000001000.000001000.00000
     Eigenvalues --- 1000.000001000.000001000.000001000.000001000.00000
     Eigenvalues --- 1000.000001000.000001000.000001000.000001000.00000
     Eigenvalues --- 1000.000001000.000001000.00000
 RFO step:  Lambda=-4.28365067D-06.
 Quartic linear search produced a step of   .18458.
 Iteration  1 RMS(Cart)=   .00064275 RMS(Int)=   .00000057
 Iteration  2 RMS(Cart)=   .00000050 RMS(Int)=   .00000040
 Variable       Old X    -DE/DX   Delta X   Delta X   Delta X     New X
                                 (Linear)    (Quad)   (Total)
    R1        2.05794   -.00004   -.00029    .00010   -.00020   2.05775
    R2        2.63870   -.00029   -.00095   -.00006   -.00101   2.63769
    R3        2.58074   -.00023    .00021   -.00026   -.00005   2.58069
    R4        2.05721    .00000   -.00030    .00016   -.00014   2.05707
    R5        2.67530   -.00008   -.00007   -.00020   -.00027   2.67504
    R6        2.05957   -.00004   -.00041    .00019   -.00022   2.05935
    R7        2.55776   -.00047   -.00007   -.00052   -.00059   2.55717
    R8        2.53611    .00105    .00109    .00156    .00265   2.53876
    R9        1.91746   -.00013   -.00029   -.00004   -.00033   1.91713
    A1        2.31279   -.00007    .00010   -.00020   -.00010   2.31268
    A2        2.12784   -.00015   -.00001   -.00118   -.00119   2.12665
    A3        1.84255    .00022   -.00009    .00138    .00130   1.84385
    A4        2.21630    .00013   -.00005    .00112    .00107   2.21738
    A5        1.82461   -.00010   -.00004   -.00082   -.00086   1.82375
    A6        2.24227   -.00003    .00009   -.00030   -.00021   2.24206
    A7        2.24941   -.00015   -.00059   -.00006   -.00065   2.24876
    A8        1.95403    .00041    .00093    .00064    .00157   1.95560
    A9        2.07974   -.00026   -.00034   -.00058   -.00092   2.07882
   A10        1.80908   -.00034   -.00130    .00024   -.00106   1.80802
   A11        1.99450   -.00019    .00050   -.00144   -.00094   1.99355
   A12        2.21597    .00036   -.00014    .00232    .00219   2.21816
   A13        2.07271   -.00016   -.00036   -.00088   -.00124   2.07147
    D1         .00000    .00000    .00000    .00000    .00000    .00000
    D2        3.14159    .00000    .00000    .00000    .00000   3.14159
    D3        3.14159    .00000    .00000    .00000    .00000   3.14159
    D4         .00000    .00000    .00000    .00000    .00000    .00000
    D5        3.14159    .00000    .00000    .00000    .00000   3.14159
    D6         .00000    .00000    .00000    .00000    .00000    .00000
    D7         .00000    .00000    .00000    .00000    .00000    .00000
    D8        3.14159    .00000    .00000    .00000    .00000   3.14159
    D9        3.14159    .00000    .00000    .00000    .00000   3.14159
   D10         .00000    .00000    .00000    .00000    .00000    .00000
   D11         .00000    .00000    .00000    .00000    .00000    .00000
   D12        3.14159    .00000    .00000    .00000    .00000   3.14159
   D13         .00000    .00000    .00000    .00000    .00000    .00000
   D14        3.14159    .00000    .00000    .00000    .00000   3.14159
   D15         .00000    .00000    .00000    .00000    .00000    .00000
   D16        3.14159    .00000    .00000    .00000    .00000   3.14159
         Item               Value     Threshold  Converged?
 Maximum Force             .001048      .000450     NO 
 RMS     Force             .000238      .000300     YES
 Maximum Displacement      .001694      .001800     YES
 RMS     Displacement      .000643      .001200     YES
 Predicted change in Energy=-3.320200D-06
 GradGradGradGradGradGradGradGradGradGradGradGradGradGradGradGradGradGrad

                          Input orientation:                          
 ---------------------------------------------------------------------
 Center     Atomic     Atomic              Coordinates (Angstroms)
 Number     Number      Type              X           Y           Z
 ---------------------------------------------------------------------
    1          1             0       -1.913128     .000000   -1.176259
    2          6             0        -.946687     .000000    -.674538
    3          1             0         .682527     .000000   -2.194292
    4          6             0         .364463     .000000   -1.153242
    5          1             0        2.253978     .000000     .094255
    6          6             0        1.167278     .000000     .012658
    7          7             0         .422337     .000000    1.142351
    8          1             0       -1.601390     .000000    1.359334
    9          7             0        -.841618     .000000     .687056
 ---------------------------------------------------------------------
                    Distance matrix (angstroms):
                    1          2          3          4          5
     1  H     .000000
     2  C    1.088913    .000000
     3  H    2.788157   2.228001    .000000
     4  C    2.277707   1.395804   1.088555    .000000
     5  H    4.356486   3.291701   2.776131   2.264180    .000000
     6  C    3.301882   2.222855   2.259560   1.415568   1.089759
     7  N    3.290949   2.274931   3.346773   2.296322   2.110312
     8  H    2.554684   2.136650   4.224279   3.190237   4.057620
     9  N    2.149436   1.365642   3.259630   2.200302   3.151845
                    6          7          8          9
     6  C     .000000
     7  N    1.353198    .000000
     8  H    3.078808   2.035325    .000000
     9  N    2.119075   1.343457   1.014500    .000000
 Stoichiometry    C3H4N2
 Framework group  CS[SG(C3H4N2)]
 Deg. of freedom   15
 Full point group                 CS      NOp   2
 Largest Abelian subgroup         CS      NOp   2
 Largest concise Abelian subgroup C1      NOp   1
                         Standard orientation:                         
 ---------------------------------------------------------------------
 Center     Atomic     Atomic              Coordinates (Angstroms)
 Number     Number      Type              X           Y           Z
 ---------------------------------------------------------------------
    1          1             0        2.121002     .737963     .000000
    2          6             0        1.121144     .306668     .000000
    3          1             0        1.267952   -1.916491     .000000
    4          6             0         .662712   -1.011706     .000000
    5          1             0       -1.498624   -1.686348     .000000
    6          6             0        -.748135    -.896195     .000000
    7          7             0       -1.152060     .395312     .000000
    8          1             0        -.040230    2.100124     .000000
    9          7             0         .000000    1.086422     .000000
 ---------------------------------------------------------------------
 Rotational constants (GHZ):      9.5462099      9.2894764      4.7080468
 Isotopes: H-1,C-12,H-1,C-12,H-1,C-12,N-14,H-1,N-14
 Standard basis: CC-pVDZ (5D, 7F)
 There are    66 symmetry adapted basis functions of A'  symmetry.
 There are    24 symmetry adapted basis functions of A"  symmetry.
 Crude estimate of integral set expansion from redundant integrals=1.000.
 Integral buffers will be    262144 words long.
 Raffenetti 1 integral format.
 Two-electron integral symmetry is turned on.
    90 basis functions      203 primitive gaussians
    18 alpha electrons       18 beta electrons
       nuclear repulsion energy       161.9839377799 Hartrees.
 One-electron integrals computed using PRISM.
 NBasis=    90 RedAO= T  NBF=    66    24
 NBsUse=    90 1.00D-04 NBFU=    66    24
 Initial guess read from the read-write file:
 Initial guess orbital symmetries:
       Occupied  (A') (A') (A') (A') (A') (A') (A') (A') (A') (A')
                 (A') (A') (A") (A') (A') (A') (A") (A")
       Virtual   (A") (A') (A') (A') (A") (A') (A') (A') (A') (A')
                 (A') (A') (A') (A") (A') (A") (A') (A') (A") (A')
                 (A') (A') (A') (A") (A') (A') (A') (A") (A") (A')
                 (A') (A") (A') (A") (A') (A") (A') (A") (A') (A')
                 (A') (A") (A') (A') (A') (A") (A') (A") (A') (A")
                 (A") (A') (A') (A') (A') (A") (A') (A') (A") (A')
                 (A') (A') (A") (A') (A") (A') (A') (A') (A') (A')
                 (A') (A')
 Requested convergence on RMS density matrix=1.00D-08 within  64 cycles.
 Requested convergence on MAX density matrix=1.00D-06.
 Keep R1 integrals in memory in canonical form, NReq=    10871361.
 SCF Done:  E(RHF) =  -224.810767983     A.U. after   10 cycles
             Convg  =     .6050D-08             -V/T =  2.0021
             S**2   =    .0000
 Range of M.O.s used for correlation:     6    90
 NBasis=    90 NAE=    18 NBE=    18 NFC=     5 NFV=     0
 NROrb=     85 NOA=    13 NOB=    13 NVA=    72 NVB=    72
 Fully direct method using O(ONN) memory.
 JobTyp=1 Pass  1:  I=   6 to  18.
 Spin components of T(2) and E(2):
     alpha-alpha T2 =        .3590737386D-01 E2=      -.9834068503D-01
     alpha-beta  T2 =        .1884409876D+00 E2=      -.5343670420D+00
[...]
                    16                     17                     18
                    A'                     A'                     A'
 Frequencies --  1513.6458              1553.0261              3294.3382
 Red. masses --     2.9691                 3.2918                 1.0914
 Frc consts  --     4.0080                 4.6778                 6.9789
 IR Inten    --     4.2126                 3.5671                 1.7730
 Raman Activ --      .0000                  .0000                  .0000
 Depolar     --      .0000                  .0000                  .0000
 Atom AN      X      Y      Z        X      Y      Z        X      Y      Z
   1   1     -.03   -.22    .00      .35   -.37    .00     -.25   -.11    .00
   2   6     -.17    .17    .00      .02    .30    .00      .02    .01    .00
   3   1     -.10   -.14    .00      .31   -.06    .00      .26   -.40    .00
   4   6      .03   -.05    .00     -.05   -.24    .00     -.02    .03    .00
   5   1     -.08    .08    .00      .35   -.26    .00      .57    .60    .00
   6   6      .03   -.02    .00     -.11    .17    .00     -.05   -.05    .00
   7   7     -.11    .03    .00      .05   -.09    .00      .00    .00    .00
   8   1     -.85   -.15    .00      .50   -.04    .00      .00    .01    .00
   9   7      .28   -.08    .00     -.04   -.05    .00      .00    .00    .00
                    19                     20                     21
                    A'                     A'                     A'
 Frequencies --  3304.3264              3324.1203              3676.2627
 Red. masses --     1.0956                 1.1091                 1.0834
 Frc consts  --     7.0483                 7.2207                 8.6265
 IR Inten    --     1.0631                  .0905                96.8759
 Raman Activ --      .0000                  .0000                  .0000
 Depolar     --      .0000                  .0000                  .0000
 Atom AN      X      Y      Z        X      Y      Z        X      Y      Z
   1   1      .73    .31    .00     -.49   -.21    .00      .02    .00    .00
   2   6     -.07   -.03    .00      .05    .02    .00      .00    .00    .00
   3   1     -.21    .30    .00     -.44    .66    .00      .00    .00    .00
   4   6      .02   -.02    .00      .04   -.06    .00      .00    .00    .00
   5   1      .32    .34    .00      .19    .20    .00      .00    .00    .00
   6   6     -.03   -.03    .00     -.02   -.02    .00      .00    .00    .00
   7   7      .00    .00    .00      .00    .00    .00      .00    .00    .00
   8   1      .00   -.01    .00      .00    .01    .00     -.04   1.00    .00
   9   7      .00    .00    .00      .00    .00    .00      .00   -.08    .00

 -------------------
 - Thermochemistry -
 -------------------
 Temperature   298.150 Kelvin.  Pressure   1.00000 Atm.
 Atom  1 has atomic number  1 and mass   1.00783
 Atom  2 has atomic number  6 and mass  12.00000
 Atom  3 has atomic number  1 and mass   1.00783
 Atom  4 has atomic number  6 and mass  12.00000
 Atom  5 has atomic number  1 and mass   1.00783
 Atom  6 has atomic number  6 and mass  12.00000
 Atom  7 has atomic number  7 and mass  14.00307
 Atom  8 has atomic number  1 and mass   1.00783
 Atom  9 has atomic number  7 and mass  14.00307
 Molecular mass:    68.03745 amu.
 Principal axes and moments of inertia in atomic units:
                           1         2         3
     EIGENVALUES --   189.05316 194.27803 383.33119
           X             .86113    .50839    .00000
           Y            -.50839    .86113    .00000
           Z             .00000    .00000   1.00000
 THIS MOLECULE IS AN ASYMMETRIC TOP.
 ROTATIONAL SYMMETRY NUMBER  1.
 ROTATIONAL TEMPERATURES (KELVIN)       .45814      .44582      .22595
 ROTATIONAL CONSTANTS (GHZ)            9.54621     9.28948     4.70805
 Zero-point vibrational energy     187807.5 (Joules/Mol)
                                   44.88708 (Kcal/Mol)
 WARNING-- EXPLICIT CONSIDERATION OF   1 DEGREES OF FREEDOM AS
           VIBRATIONS MAY CAUSE SIGNIFICANT ERROR
 VIBRATIONAL TEMPERATURES:    783.04   909.18  1005.77  1060.10  1177.07
          (KELVIN)           1246.53  1305.22  1332.41  1518.57  1527.58
                             1666.96  1721.33  1847.29  1987.42  2109.27
                             2177.79  2234.45  4739.79  4754.16  4782.64
                             5289.29
 
 Zero-point correction=                            .071532 (Hartree/Particle)
 Thermal correction to Energy=                     .075279
 Thermal correction to Enthalpy=                   .076223
 Thermal correction to Gibbs Free Energy=          .045249
 Sum of electronic and zero-point Energies=           -225.470284
 Sum of electronic and thermal Energies=              -225.466538
 Sum of electronic and thermal Enthalpies=            -225.465593
 Sum of electronic and thermal Free Energies=         -225.496568
 
                     E (Thermal)             CV                S
                      KCAL/MOL        CAL/MOL-KELVIN    CAL/MOL-KELVIN
 TOTAL                   47.238             13.357             65.191
 ELECTRONIC                .000               .000               .000
 TRANSLATIONAL             .889              2.981             38.570
 ROTATIONAL                .889              2.981             24.158
 VIBRATIONAL             45.461              7.396              2.462
 VIBRATION  1              .899              1.152               .556
                       Q            LOG10(Q)             LN(Q)
 TOTAL BOT        .153856D-20        -20.812885        -47.923439
 TOTAL V=0        .122851D+13         12.089380         27.836826
 VIB (BOT)        .164207D-32        -32.784608        -75.489350
 VIB (BOT)  1     .289946D+00          -.537684         -1.238062
 VIB (V=0)        .131116D+01           .117657           .270916
 VIB (V=0)  1     .107799D+01           .032613           .075095
 ELECTRONIC       .100000D+01           .000000           .000000
 TRANSLATIONAL    .220588D+08          7.343582         16.909224
 ROTATIONAL       .424757D+05          4.628140         10.656687
 ***** Axes restored to original set *****
 -------------------------------------------------------------------
 Center     Atomic                   Forces (Hartrees/Bohr)
 Number     Number              X              Y              Z
 -------------------------------------------------------------------
    1          1           -.000057350     .000000000    -.000043890
    2          6           -.000048193     .000000000     .000360742
    3          1            .000031343     .000000000    -.000014870
    4          6            .000013914     .000000000    -.000000867
    5          1            .000088737     .000000000     .000032691
    6          6           -.000197203     .000000000     .000272258
    7          7            .000400006     .000000000    -.000181993
    8          1            .000054033     .000000000     .000063345
    9          7           -.000285287     .000000000    -.000487417
 -------------------------------------------------------------------
 Cartesian Forces:  Max      .000487417 RMS      .000169973

 GradGradGradGradGradGradGradGradGradGradGradGradGradGradGradGradGradGrad
 Berny optimization.
 Internal  Forces:  Max      .000342730 RMS      .000092909
 Search for a local minimum.
 Step number   1 out of a maximum of  48
 All quantities printed in internal units (Hartrees-Bohrs-Radians)
 Second derivative matrix not updated -- analytic derivatives used.
     Eigenvalues ---     .00780    .01110    .01559    .02752    .05806
     Eigenvalues ---     .06142    .09188    .10306    .10909    .11747
     Eigenvalues ---     .22750    .27911    .36061    .37854    .38433
     Eigenvalues ---     .38548    .39306    .45594    .47928    .49838
     Eigenvalues ---     .553721000.000001000.000001000.000001000.00000
     Eigenvalues --- 1000.000001000.000001000.000001000.000001000.00000
     Eigenvalues --- 1000.000001000.000001000.000001000.000001000.00000
     Eigenvalues --- 1000.000001000.000001000.00000
 Angle between quadratic step and forces=  33.96 degrees.
 Linear search not attempted -- first point.
 Iteration  1 RMS(Cart)=   .00025710 RMS(Int)=   .00000012
 Iteration  2 RMS(Cart)=   .00000011 RMS(Int)=   .00000000
 Variable       Old X    -DE/DX   Delta X   Delta X   Delta X     New X
                                 (Linear)    (Quad)   (Total)
    R1        2.05775    .00007    .00000    .00018    .00018   2.05793
    R2        2.63769    .00011    .00000    .00024    .00024   2.63792
    R3        2.58069   -.00031    .00000   -.00071   -.00071   2.57998
    R4        2.05707    .00002    .00000    .00006    .00006   2.05713
    R5        2.67504    .00005    .00000    .00015    .00015   2.67518
    R6        2.05935    .00009    .00000    .00025    .00025   2.05960
    R7        2.55717   -.00034    .00000   -.00077   -.00077   2.55641
    R8        2.53876    .00025    .00000    .00068    .00068   2.53945
    R9        1.91713    .00000    .00000   -.00002   -.00002   1.91711
    A1        2.31268    .00001    .00000   -.00026   -.00026   2.31242
    A2        2.12665    .00004    .00000    .00025    .00025   2.12691
    A3        1.84385   -.00006    .00000    .00001    .00001   1.84386
    A4        2.21738    .00001    .00000    .00024    .00024   2.21762
    A5        1.82375    .00003    .00000   -.00005   -.00005   1.82370
    A6        2.24206   -.00004    .00000   -.00019   -.00019   2.24187
    A7        2.24876    .00004    .00000    .00009    .00009   2.24885
    A8        1.95560   -.00002    .00000    .00004    .00004   1.95565
    A9        2.07882   -.00001    .00000   -.00013   -.00013   2.07869
   A10        1.80802    .00003    .00000    .00004    .00004   1.80806
   A11        1.99355    .00002    .00000   -.00004   -.00004   1.99352
   A12        2.21816    .00007    .00000    .00086    .00086   2.21902
   A13        2.07147   -.00009    .00000   -.00082   -.00082   2.07065
    D1         .00000    .00000    .00000    .00000    .00000    .00000
    D2        3.14159    .00000    .00000    .00000    .00000   3.14159
    D3        3.14159    .00000    .00000    .00000    .00000   3.14159
    D4         .00000    .00000    .00000    .00000    .00000    .00000
    D5        3.14159    .00000    .00000    .00000    .00000   3.14159
    D6         .00000    .00000    .00000    .00000    .00000    .00000
    D7         .00000    .00000    .00000    .00000    .00000    .00000
    D8        3.14159    .00000    .00000    .00000    .00000   3.14159
    D9        3.14159    .00000    .00000    .00000    .00000   3.14159
   D10         .00000    .00000    .00000    .00000    .00000    .00000
   D11         .00000    .00000    .00000    .00000    .00000    .00000
   D12        3.14159    .00000    .00000    .00000    .00000   3.14159
   D13         .00000    .00000    .00000    .00000    .00000    .00000
   D14        3.14159    .00000    .00000    .00000    .00000   3.14159
   D15         .00000    .00000    .00000    .00000    .00000    .00000
   D16        3.14159    .00000    .00000    .00000    .00000   3.14159
         Item               Value     Threshold  Converged?
 Maximum Force             .000343      .000450     YES
 RMS     Force             .000093      .000300     YES
 Maximum Displacement      .000718      .001800     YES
 RMS     Displacement      .000257      .001200     YES
 Predicted change in Energy=-4.388534D-07
 Optimization completed.
    -- Stationary point found.
                         ----------------------------
                         !   Optimized Parameters   !
                         ! (Angstroms and Degrees)  !
 ------------------------                            -------------------------
 ! Name  Definition              Value          Derivative Info.             !
 -----------------------------------------------------------------------------
 ! R1    R(1,2)                  1.0889         -DE/DX =    0.0001           !
 ! R2    R(2,4)                  1.3958         -DE/DX =    0.0001           !
 ! R3    R(2,9)                  1.3656         -DE/DX =   -0.0003           !
 ! R4    R(3,4)                  1.0886         -DE/DX =    0.               !
 ! R5    R(4,6)                  1.4156         -DE/DX =    0.               !
 ! R6    R(5,6)                  1.0898         -DE/DX =    0.0001           !
 ! R7    R(6,7)                  1.3532         -DE/DX =   -0.0003           !
 ! R8    R(7,9)                  1.3435         -DE/DX =    0.0003           !
 ! R9    R(8,9)                  1.0145         -DE/DX =    0.               !
 ! A1    A(1,2,4)              132.507          -DE/DX =    0.               !
 ! A2    A(1,2,9)              121.8482         -DE/DX =    0.               !
 ! A3    A(4,2,9)              105.6447         -DE/DX =   -0.0001           !
 ! A4    A(2,4,3)              127.0463         -DE/DX =    0.               !
 ! A5    A(2,4,6)              104.4933         -DE/DX =    0.               !
 ! A6    A(3,4,6)              128.4604         -DE/DX =    0.               !
 ! A7    A(4,6,5)              128.8447         -DE/DX =    0.               !
 ! A8    A(4,6,7)              112.0479         -DE/DX =    0.               !
 ! A9    A(5,6,7)              119.1075         -DE/DX =    0.               !
 ! A10   A(6,7,9)              103.5919         -DE/DX =    0.               !
 ! A11   A(2,9,7)              114.2223         -DE/DX =    0.               !
 ! A12   A(2,9,8)              127.0912         -DE/DX =    0.0001           !
 ! A13   A(7,9,8)              118.6865         -DE/DX =   -0.0001           !
 ! D1    D(1,2,4,3)              0.             -DE/DX =    0.               !
 ! D2    D(1,2,4,6)            180.             -DE/DX =    0.               !
 ! D3    D(9,2,4,3)            180.             -DE/DX =    0.               !
 ! D4    D(9,2,4,6)              0.             -DE/DX =    0.               !
 ! D5    D(1,2,9,7)            180.             -DE/DX =    0.               !
 ! D6    D(1,2,9,8)              0.             -DE/DX =    0.               !
 ! D7    D(4,2,9,7)              0.             -DE/DX =    0.               !
 ! D8    D(4,2,9,8)            180.             -DE/DX =    0.               !
 ! D9    D(2,4,6,5)            180.             -DE/DX =    0.               !
 ! D10   D(2,4,6,7)              0.             -DE/DX =    0.               !
 ! D11   D(3,4,6,5)              0.             -DE/DX =    0.               !
 ! D12   D(3,4,6,7)            180.             -DE/DX =    0.               !
 ! D13   D(4,6,7,9)              0.             -DE/DX =    0.               !
 ! D14   D(5,6,7,9)            180.             -DE/DX =    0.               !
 ! D15   D(6,7,9,2)              0.             -DE/DX =    0.               !
 ! D16   D(6,7,9,8)            180.             -DE/DX =    0.               !
 -----------------------------------------------------------------------------
 GradGradGradGradGradGradGradGradGradGradGradGradGradGradGradGradGradGrad

 1\1\GINC-SCI-APPS\Freq\RMP2-FC\CC-pVDZ\C3H4N2\RUS\02-May-2000\0\\#N GE
 OM=ALLCHECK GUESS=TCHECK RMP2(FC)/CC-PVDZ FREQ\\1H pyrazole C3H4N2 cas
 no=288131\\0,1\H,-1.9130541634,0.,-1.1762075058\C,-0.9466126767,0.,-0.
 6744870858\H,0.6826007712,0.,-2.1942410628\C,0.3645367644,0.,-1.153190
 3803\H,2.2540514079,0.,0.094305944\C,1.167351912,0.,0.01270865\N,0.422
 41041,0.,1.1424025318\H,-1.6013158736,0.,1.3593853317\N,-0.8415444301,
 0.,0.6871074953\\Version=IBM-RS6000-G98RevA.7\State=1-A'\HF=-224.81076
 8\MP2=-225.5418164\RMSD=1.230e-09\RMSF=1.700e-04\Dipole=-0.8220167,0.,
 -0.3263869\DipoleDeriv=-0.0011293,0.,-0.039136,0.,0.1818512,0.,-0.0248
 37,0.,0.0760089,0.0452181,0.,-0.142733,0.,-0.1223799,0.,-0.2314714,0.,
 0.2186883,0.0957642,0.,0.0260451,0.,0.1542294,0.,0.0286729,0.,-0.01495
 91,-0.158514,0.,0.0529502,0.,-0.198675,0.,-0.0494549,0.,-0.0290937,-0.
 0342703,0.,-0.007118,0.,0.1431318,0.,-0.0272984,0.,0.0766283,0.1593633
 ,0.,0.098596,0.,-0.0929474,0.,0.1733662,0.,0.0966395,0.0296847,0.,-0.1
 182797,0.,-0.2200169,0.,-0.1056774,0.,-0.4722891,0.2238523,0.,-0.06972
 49,0.,0.2983929,0.,-0.0535625,0.,0.2307283,-0.359969,0.,0.1994003,0.,-
 0.143586,0.,0.2902624,0.,-0.1823513\Polar=50.6005292,0.,19.0765103,0.0
 118783,0.,45.637173\PG=CS [SG(C3H4N2)]\NImag=0\\0.31205565,0.,0.018833
 62,0.13723850,0.,0.12136812,-0.30892029,0.,-0.11939613,0.86017713,0.,-
 0.02091584,0.,0.,0.10562938,-0.12957650,0.,-0.12015819,0.08802532,0.,0
 .66903534,0.00049962,0.,-0.00090655,0.00299605,0.,0.02503935,0.0753021
 4,0.,-0.00229419,0.,0.,-0.00312387,0.,0.,0.02170721,0.00033081,0.,-0.0
 0002422,-0.00542100,0.,0.00030449,-0.09556185,0.,0.35548235,-0.0051871
 5,0.,0.00973853,-0.34651249,0.,0.09711946,-0.08312318,0.,0.09016604,0.
 63386267,0.,-0.00093759,0.,0.,-0.05553140,0.,0.,-0.02482965,0.,0.,0.10
 825944,-0.01551736,0.,0.01229870,0.10386416,0.,-0.13534961,0.08742700,
 0.,-0.34497696,-0.10979123,0.,0.84821569,-0.00018652,0.,0.00031229,-0.
 00043300,0.,-0.00110198,0.00003472,0.,-0.00022497,-0.00426711,0.,0.005
 36053,0.38018818,0.,0.00099329,0.,0.,0.00493713,0.,0.,-0.00183235,0.,0
 .,-0.00051212,0.,0.,0.02345640,-0.00109512,0.,0.00116684,-0.00306905,0
 .,-0.00594881,0.00095847,0.,0.00048480,-0.02185216,0.,0.00672547,0.024
 08603,0.,0.05492629,-0.00433626,0.,0.00490763,-0.05498505,0.,-0.002982
 39,0.01281675,0.,0.01354262,-0.18550690,0.,-0.11912092,-0.36289871,0.,
 -0.03471116,0.88172058,0.,0.00481161,0.,0.,0.00865542,0.,0.,-0.0037154
 7,0.,0.,-0.05881616,0.,0.,-0.02743718,0.,0.,0.12845756,0.00105254,0.,-
 0.00238460,-0.06249073,0.,0.01514641,-0.01502165,0.,-0.00775663,-0.098
 46144,0.,-0.25079852,-0.02626270,0.,-0.05929528,0.02158463,0.,0.608568
 59,0.00077148,0.,0.00012106,-0.05524907,0.,-0.04368100,-0.00198623,0.,
 -0.00121471,0.02268673,0.,0.03032196,-0.01156062,0.,0.02714476,-0.1714
 2526,0.,0.14185962,0.53633650,0.,0.00692318,0.,0.,0.01703521,0.,0.,0.0
 0705729,0.,0.,0.01792332,0.,0.,-0.00849374,0.,0.,-0.06857772,0.,0.,0.1
 0339202,0.00242174,0.,-0.00591488,-0.02322758,0.,-0.04867456,-0.006342
 05,0.,-0.00391975,-0.02147470,0.,-0.07448282,-0.00443845,0.,0.00616708
 ,0.08902562,0.,-0.28115931,-0.02190678,0.,0.53371938,-0.00022594,0.,0.
 00033283,0.00890159,0.,-0.00708390,0.00076787,0.,-0.00010528,0.0023490
 0,0.,-0.00309411,-0.00039911,0.,0.00152941,-0.00715635,0.,-0.00616858,
 -0.02002738,0.,0.02478354,0.29634099,0.,-0.00151255,0.,0.,-0.00822085,
 0.,0.,0.00227083,0.,0.,0.00327156,0.,0.,0.00238344,0.,0.,0.00483691,0.
 ,0.,-0.01316054,0.,0.,0.01366279,-0.00045705,0.,0.00047946,0.02563815,
 0.,-0.00340029,0.00128897,0.,0.00020441,-0.00295622,0.,-0.00710222,-0.
 00058255,0.,0.00103765,-0.00621897,0.,0.00147199,-0.01362890,0.,0.0138
 6971,-0.20638263,0.,0.24752277,0.00552941,0.,-0.03234816,-0.10597487,0
 .,-0.02575836,-0.00730773,0.,-0.00151167,-0.03430159,0.,0.02054998,-0.
 00047784,0.,0.00700884,-0.10822880,0.,0.04390830,-0.29954614,0.,-0.038
 84132,-0.28055067,0.,0.20329919,0.83085823,0.,-0.00590153,0.,0.,-0.048
 46517,0.,0.,0.00476020,0.,0.,0.01117260,0.,0.,0.00650512,0.,0.,0.01178
 503,0.,0.,-0.06209903,0.,0.,-0.00353158,0.,0.,0.08577435,0.00560244,0.
 ,-0.00683123,-0.00392313,0.,-0.37095478,0.00311832,0.,0.00020151,0.057
 51173,0.,-0.05452974,0.00285180,0.,-0.00526405,0.03397293,0.,-0.023792
 64,-0.11901600,0.,-0.13960484,0.19618871,0.,-0.25408349,-0.17630680,0.
 ,0.85485927\\0.00005735,0.,0.00004389,0.00004819,0.,-0.00036074,-0.000
 03134,0.,0.00001487,-0.00001391,0.,0.00000087,-0.00008874,0.,-0.000032
 69,0.00019720,0.,-0.00027226,-0.00040001,0.,0.00018199,-0.00005403,0.,
 -0.00006334,0.00028529,0.,0.00048742\\\@


 DEMOCRATS BUY MOST OF THE BOOKS THAT HAVE BEEN
 BANNED; REPUBLICANS FORM CENSORSHIP COMMITTEES AND
 READ THEM AS A GROUP.
 Job cpu time:  0 days  0 hours 36 minutes 49.6 seconds.
 File lengths (MBytes):  RWF=  506 Int=    0 D2E=    0 Chk=    3 Scr=    1
 Normal termination of Gaussian 98.
