 Entering Gaussian System, Link 0=g03
 Initial command:
 /usr/local/apps/g03b05/g03/l1.exe /wrk/rdj3/Gau-19914.inp -scrdir=/wrk/rdj3/
 Entering Link 1 = /usr/local/apps/g03b05/g03/l1.exe PID=     15646.
  
 Copyright (c) 1988,1990,1992,1993,1995,1998,2003, Gaussian, Inc.
                  All Rights Reserved.
  
 This is the Gaussian(R) 03 program.  It is based on the
 the Gaussian(R) 98 system (copyright 1998, Gaussian, Inc.),
 the Gaussian(R) 94 system (copyright 1995, Gaussian, Inc.),
 the Gaussian 92(TM) system (copyright 1992, Gaussian, Inc.),
 the Gaussian 90(TM) system (copyright 1990, Gaussian, Inc.),
 the Gaussian 88(TM) system (copyright 1988, Gaussian, Inc.),
 the Gaussian 86(TM) system (copyright 1986, Carnegie Mellon
 University), and the Gaussian 82(TM) system (copyright 1983,
 Carnegie Mellon University). Gaussian is a federally registered
 trademark of Gaussian, Inc.
  
 This software contains proprietary and confidential information,
 including trade secrets, belonging to Gaussian, Inc.
  
 This software is provided under written license and may be
 used, copied, transmitted, or stored only in accord with that
 written license.
  
 The following legend is applicable only to US Government
 contracts under DFARS:
  
                    RESTRICTED RIGHTS LEGEND
  
 Use, duplication or disclosure by the US Government is subject
 to restrictions as set forth in subparagraph (c)(1)(ii) of the
 Rights in Technical Data and Computer Software clause at DFARS
 252.227-7013.
  
 Gaussian, Inc.
 Carnegie Office Park, Building 6, Pittsburgh, PA 15106 USA
  
 The following legend is applicable only to US Government
 contracts under FAR:
  
                    RESTRICTED RIGHTS LEGEND
  
 Use, reproduction and disclosure by the US Government is subject
 to restrictions as set forth in subparagraph (c) of the
 Commercial Computer Software - Restricted Rights clause at FAR
 52.227-19.
  
 Gaussian, Inc.
 Carnegie Office Park, Building 6, Pittsburgh, PA 15106 USA
  
  
 ---------------------------------------------------------------
 Warning -- This program may not be used in any manner that
 competes with the business of Gaussian, Inc. or will provide
 assistance to any competitor of Gaussian, Inc.  The licensee
 of this program is prohibited from giving any competitor of
 Gaussian, Inc. access to this program.  By using this program,
 the user acknowledges that Gaussian, Inc. is engaged in the
 business of creating and licensing software in the field of
 computational chemistry and represents and warrants to the
 licensee that it is not a competitor of Gaussian, Inc. and that
 it will not use this program in any manner prohibited above.
 ---------------------------------------------------------------
  

 Cite this work as:
 Gaussian 03, Revision B.05,
 M. J. Frisch, G. W. Trucks, H. B. Schlegel, G. E. Scuseria, 
 M. A. Robb, J. R. Cheeseman, J. A. Montgomery, Jr., T. Vreven, 
 K. N. Kudin, J. C. Burant, J. M. Millam, S. S. Iyengar, J. Tomasi, 
 V. Barone, B. Mennucci, M. Cossi, G. Scalmani, N. Rega, 
 G. A. Petersson, H. Nakatsuji, M. Hada, M. Ehara, K. Toyota, 
 R. Fukuda, J. Hasegawa, M. Ishida, T. Nakajima, Y. Honda, O. Kitao, 
 H. Nakai, M. Klene, X. Li, J. E. Knox, H. P. Hratchian, J. B. Cross, 
 C. Adamo, J. Jaramillo, R. Gomperts, R. E. Stratmann, O. Yazyev, 
 A. J. Austin, R. Cammi, C. Pomelli, J. W. Ochterski, P. Y. Ayala, 
 K. Morokuma, G. A. Voth, P. Salvador, J. J. Dannenberg, 
 V. G. Zakrzewski, S. Dapprich, A. D. Daniels, M. C. Strain, 
 O. Farkas, D. K. Malick, A. D. Rabuck, K. Raghavachari, 
 J. B. Foresman, J. V. Ortiz, Q. Cui, A. G. Baboul, S. Clifford, 
 J. Cioslowski, B. B. Stefanov, G. Liu, A. Liashenko, P. Piskorz, 
 I. Komaromi, R. L. Martin, D. J. Fox, T. Keith, M. A. Al-Laham, 
 C. Y. Peng, A. Nanayakkara, M. Challacombe, P. M. W. Gill, 
 B. Johnson, W. Chen, M. W. Wong, C. Gonzalez, and J. A. Pople, 
 Gaussian, Inc., Pittsburgh PA, 2003.
 
 *************************************************
 Gaussian 03:  IBM64-RS6000-G03RevB.05  8-Nov-2003
                    12-Jul-2006 
 *************************************************
 %mem=24000000
 ---------------------------
 #MP2/cc-pVTZ opt freq=numer
 ---------------------------
 1/18=20,38=1/1,3;
 2/9=110,17=6,18=5,40=1/2;
 3/5=16,6=1,11=9,16=1,25=1,30=1/1,2,3;
 4//1;
 5/5=2,38=5/2;
 8/6=4,10=1/1;
 9/15=2,16=-3/6;
 10/5=1/2;
 6/7=2,8=2,9=2,10=2/1;
 7/12=2/1,2,3,16;
 1/18=20/3(1);
 99//99;
 2/9=110/2;
 3/5=16,6=1,11=9,16=1,25=1,30=1/1,2,3;
 4/5=5,16=3/1;
 5/5=2,38=5/2;
 8/6=4,10=1/1;
 9/15=2,16=-3/6;
 10/5=1/2;
 7/12=2/1,2,3,16;
 1/18=20/3(-8);
 2/9=110/2;
 6/7=2,8=2,9=2,10=2/1;
 99//99;
 ------------------------------------------------
 1H pyrazole C3H4N2 casno=288131 method=3 basis=6
 ------------------------------------------------
 Symbolic Z-matrix:
 Charge =  0 Multiplicity = 1
 H                    -1.9125    0.       -0.75938 
 C                    -1.08438   0.       -0.21875 
 H                     0.43438   0.       -1.63125 
 C                     0.15      0.       -0.68437 
 H                     1.9125    0.        0.37188 
 C                     0.92188   0.        0.375 
 N                     0.18125   0.        1.41875 
 H                    -1.74063   0.        1.63125 
 N                    -1.00313   0.        1.05313 
 

 GradGradGradGradGradGradGradGradGradGradGradGradGradGradGradGradGradGrad
 Berny optimization.
 Initialization pass.
                           ----------------------------
                           !    Initial Parameters    !
                           ! (Angstroms and Degrees)  !
 --------------------------                            --------------------------
 ! Name  Definition              Value          Derivative Info.                !
 --------------------------------------------------------------------------------
 ! R1    R(1,2)                  0.989          estimate D2E/DX2                !
 ! R2    R(2,4)                  1.3193         estimate D2E/DX2                !
 ! R3    R(2,9)                  1.2745         estimate D2E/DX2                !
 ! R4    R(3,4)                  0.9887         estimate D2E/DX2                !
 ! R5    R(4,6)                  1.3108         estimate D2E/DX2                !
 ! R6    R(5,6)                  0.9906         estimate D2E/DX2                !
 ! R7    R(6,7)                  1.2798         estimate D2E/DX2                !
 ! R8    R(7,9)                  1.2395         estimate D2E/DX2                !
 ! R9    R(8,9)                  0.9371         estimate D2E/DX2                !
 ! A1    A(1,2,4)              126.195          estimate D2E/DX2                !
 ! A2    A(1,2,9)              126.7929         estimate D2E/DX2                !
 ! A3    A(4,2,9)              107.012          estimate D2E/DX2                !
 ! A4    A(2,4,3)              127.3838         estimate D2E/DX2                !
 ! A5    A(2,4,6)              105.4104         estimate D2E/DX2                !
 ! A6    A(3,4,6)              127.2058         estimate D2E/DX2                !
 ! A7    A(4,6,5)              125.8968         estimate D2E/DX2                !
 ! A8    A(4,6,7)              108.5636         estimate D2E/DX2                !
 ! A9    A(5,6,7)              125.5395         estimate D2E/DX2                !
 ! A10   A(6,7,9)              108.203          estimate D2E/DX2                !
 ! A11   A(2,9,7)              110.811          estimate D2E/DX2                !
 ! A12   A(2,9,8)              124.4376         estimate D2E/DX2                !
 ! A13   A(7,9,8)              124.7513         estimate D2E/DX2                !
 ! D1    D(1,2,4,3)              0.0            estimate D2E/DX2                !
 ! D2    D(1,2,4,6)            180.0            estimate D2E/DX2                !
 ! D3    D(9,2,4,3)            180.0            estimate D2E/DX2                !
 ! D4    D(9,2,4,6)              0.0            estimate D2E/DX2                !
 ! D5    D(1,2,9,7)            180.0            estimate D2E/DX2                !
 ! D6    D(1,2,9,8)              0.0            estimate D2E/DX2                !
 ! D7    D(4,2,9,7)              0.0            estimate D2E/DX2                !
 ! D8    D(4,2,9,8)            180.0            estimate D2E/DX2                !
 ! D9    D(2,4,6,5)            180.0            estimate D2E/DX2                !
 ! D10   D(2,4,6,7)              0.0            estimate D2E/DX2                !
 ! D11   D(3,4,6,5)              0.0            estimate D2E/DX2                !
 ! D12   D(3,4,6,7)            180.0            estimate D2E/DX2                !
 ! D13   D(4,6,7,9)              0.0            estimate D2E/DX2                !
 ! D14   D(5,6,7,9)            180.0            estimate D2E/DX2                !
 ! D15   D(6,7,9,2)              0.0            estimate D2E/DX2                !
 ! D16   D(6,7,9,8)            180.0            estimate D2E/DX2                !
 --------------------------------------------------------------------------------
 Trust Radius=3.00D-01 FncErr=1.00D-07 GrdErr=1.00D-07
 Number of steps in this run=  48 maximum allowed number of steps= 100.
 GradGradGradGradGradGradGradGradGradGradGradGradGradGradGradGradGradGrad

                          Input orientation:                          
 ---------------------------------------------------------------------
 Center     Atomic     Atomic              Coordinates (Angstroms)
 Number     Number      Type              X           Y           Z
 ---------------------------------------------------------------------
    1          1             0       -1.912500     .000000    -.759375
    2          6             0       -1.084375     .000000    -.218750
    3          1             0         .434375     .000000   -1.631250
    4          6             0         .150000     .000000    -.684375
    5          1             0        1.912500     .000000     .371875
    6          6             0         .921875     .000000     .375000
    7          7             0         .181250     .000000    1.418750
    8          1             0       -1.740625     .000000    1.631250
    9          7             0       -1.003125     .000000    1.053125
 ---------------------------------------------------------------------
                    Distance matrix (angstroms):
                    1          2          3          4          5
     1  H     .000000
     2  C     .988972    .000000
     3  H    2.503595   2.074068    .000000
     4  C    2.063863   1.319276    .988656    .000000
     5  H    3.988778   3.054521   2.489450   2.054768    .000000
     6  C    3.052947   2.092266   2.064630   1.310750    .990630
     7  N    3.021261   2.069592   3.060486   2.103357   2.023159
     8  H    2.396796   1.962948   3.921037   2.989412   3.864110
     9  N    2.027836   1.274468   3.045041   2.085331   2.994156
                    6          7          8          9
     6  C     .000000
     7  N    1.279820    .000000
     8  H    2.943989   1.933587    .000000
     9  N    2.040950   1.239526    .937088    .000000
 Stoichiometry    C3H4N2
 Framework group  CS[SG(C3H4N2)]
 Deg. of freedom    15
 Full point group                 CS      NOp   2
 Largest Abelian subgroup         CS      NOp   2
 Largest concise Abelian subgroup C1      NOp   1
                         Standard orientation:                         
 ---------------------------------------------------------------------
 Center     Atomic     Atomic              Coordinates (Angstroms)
 Number     Number      Type              X           Y           Z
 ---------------------------------------------------------------------
    1          1             0        1.974407     .585689     .000000
    2          6             0        1.028833     .295936     .000000
    3          1             0        1.140941   -1.775099     .000000
    4          6             0         .595873    -.950271     .000000
    5          1             0       -1.344123   -1.627388     .000000
    6          6             0        -.712074    -.864589     .000000
    7          7             0       -1.039336     .372682     .000000
    8          1             0         .028336    1.984773     .000000
    9          7             0         .000000    1.048113     .000000
 ---------------------------------------------------------------------
 Rotational constants (GHZ):     11.1878017     10.4520035      5.4036966
 Standard basis: CC-pVTZ (5D, 7F)
 There are   140 symmetry adapted basis functions of A'  symmetry.
 There are    66 symmetry adapted basis functions of A"  symmetry.
 Integral buffers will be    131072 words long.
 Raffenetti 1 integral format.
 Two-electron integral symmetry is turned on.
   206 basis functions,   333 primitive gaussians,   235 cartesian basis functions
    18 alpha electrons       18 beta electrons
       nuclear repulsion energy       173.7391745845 Hartrees.
 NAtoms=    9 NActive=    9 NUniq=    9 SFac= 1.00D+00 NAtFMM=   60 Big=F
 One-electron integrals computed using PRISM.
 NBasis=   206 RedAO= T  NBF=   140    66
 NBsUse=   206 1.00D-06 NBFU=   140    66
 Harris functional with IExCor=  205 diagonalized for initial guess.
 ExpMin= 1.03D-01 ExpMax= 1.14D+04 ExpMxC= 3.89D+02 IAcc=1 IRadAn=         1 AccDes= 1.00D-06
 HarFok:  IExCor= 205 AccDes= 1.00D-06 IRadAn=         1 IDoV=1
 ScaDFX=  1.000000  1.000000  1.000000  1.000000
 Initial guess orbital symmetries:
       Occupied  (A') (A') (A') (A') (A') (A') (A') (A') (A') (A')
                 (A') (A') (A') (A") (A') (A") (A') (A")
       Virtual   (A") (A") (A') (A') (A') (A') (A') (A') (A') (A')
                 (A") (A') (A') (A") (A') (A") (A') (A') (A') (A')
                 (A') (A') (A") (A") (A') (A') (A') (A') (A") (A')
                 (A") (A') (A") (A') (A") (A') (A') (A") (A') (A')
                 (A') (A') (A') (A") (A") (A') (A') (A") (A') (A')
                 (A") (A') (A') (A") (A') (A") (A') (A') (A') (A')
                 (A') (A") (A') (A') (A") (A') (A") (A') (A') (A")
                 (A') (A") (A') (A') (A') (A") (A') (A') (A') (A")
                 (A") (A') (A') (A") (A') (A") (A') (A') (A") (A')
                 (A') (A") (A') (A") (A') (A') (A") (A") (A') (A")
                 (A') (A") (A') (A') (A") (A") (A') (A') (A") (A')
                 (A') (A") (A') (A') (A") (A') (A') (A") (A') (A")
                 (A') (A') (A") (A') (A") (A') (A") (A') (A') (A")
                 (A') (A") (A') (A") (A') (A') (A') (A") (A') (A')
                 (A") (A') (A') (A") (A") (A') (A') (A') (A") (A')
                 (A') (A") (A') (A") (A") (A') (A") (A') (A') (A')
                 (A") (A') (A') (A") (A') (A") (A') (A') (A') (A")
                 (A') (A') (A") (A') (A") (A') (A') (A') (A') (A')
                 (A') (A') (A') (A') (A') (A') (A') (A')
 The electronic state of the initial guess is 1-A'.
 Requested convergence on RMS density matrix=1.00D-08 within 128 cycles.
 Requested convergence on MAX density matrix=1.00D-06.
 Requested convergence on             energy=1.00D-06.
 No special actions if energy rises.
 Integral accuracy reduced to 1.0D-05 until final iterations.
 Initial convergence to 1.0D-05 achieved.  Increase integral accuracy.
 SCF Done:  E(RHF) =  -224.826727223     A.U. after   13 cycles
             Convg  =     .9209D-08             -V/T =  1.9935
             S**2   =    .0000
 ExpMin= 1.03D-01 ExpMax= 1.14D+04 ExpMxC= 3.89D+02 IAcc=1 IRadAn=         1 AccDes= 1.00D-06
 HarFok:  IExCor= 205 AccDes= 1.00D-06 IRadAn=         1 IDoV=1
 ScaDFX=  1.000000  1.000000  1.000000  1.000000
 Range of M.O.s used for correlation:     6   206
 NBasis=   206 NAE=    18 NBE=    18 NFC=     5 NFV=     0
 NROrb=    201 NOA=    13 NOB=    13 NVA=   188 NVB=   188

 **** Warning!!: The largest alpha MO coefficient is   .13783338D+02

 Disk-based method using ON**2 memory for 13 occupieds at a time.
 Estimated scratch disk usage=   311869568 words.
 Actual    scratch disk usage=   297152640 words.
 JobTyp=1 Pass  1:  I=   6 to  18 NPSUse=  1 ParTrn=F ParDer=F DoDerP=T.
 Spin components of T(2) and E(2):
     alpha-alpha T2 =        .3577911985D-01 E2=      -.1133229512D+00
     alpha-beta  T2 =        .1853673941D+00 E2=      -.6433163916D+00
     beta-beta   T2 =        .3577911985D-01 E2=      -.1133229512D+00
 ANorm=     .1121126948D+01
 E2 =     -.8699622940D+00 EUMP2 =     -.22569668951655D+03
          Differentiating once with respect to electric field.
                with respect to dipole field.
          Differentiating once with respect to nuclear coordinates.
          There are   1 degrees of freedom in the 1st order CPHF.
 Petite list used in FoFDir.
 MinBra= 0 MaxBra= 3 Meth= 1.
 IRaf=       0 NMat=   1 IRICut=       1 DoRegI=T DoRafI=F ISym2E= 1 JSym2E=1.
     1 vectors were produced by pass  0.
 AX will form   1 AO Fock derivatives at one time.
     1 vectors were produced by pass  1.
     1 vectors were produced by pass  2.
     1 vectors were produced by pass  3.
     1 vectors were produced by pass  4.
     1 vectors were produced by pass  5.
     1 vectors were produced by pass  6.
     1 vectors were produced by pass  7.
     1 vectors were produced by pass  8.
     1 vectors were produced by pass  9.
     1 vectors were produced by pass 10.
     1 vectors were produced by pass 11.
     1 vectors were produced by pass 12.
     1 vectors were produced by pass 13.
     1 vectors were produced by pass 14.
 Inv2:  IOpt= 1 Iter= 1 AM= 6.59D-16 Conv= 1.00D-12.
 Inverted reduced A of dimension   15 with in-core refinement.
 End of Minotr Frequency-dependent properties file   721 does not exist.

 **********************************************************************

            Population analysis using the SCF density.

 **********************************************************************

 Orbital symmetries:
       Occupied  (A') (A') (A') (A') (A') (A') (A') (A') (A') (A')
                 (A') (A') (A") (A') (A') (A') (A") (A")
       Virtual   (A') (A') (A') (A") (A') (A") (A') (A') (A') (A')
                 (A") (A') (A") (A') (A") (A') (A') (A') (A') (A')
                 (A') (A') (A') (A") (A") (A') (A') (A") (A') (A')
                 (A") (A') (A") (A') (A") (A') (A') (A") (A') (A')
                 (A') (A") (A') (A') (A") (A') (A') (A") (A') (A')
                 (A') (A') (A") (A") (A') (A') (A") (A') (A') (A')
                 (A') (A") (A') (A") (A') (A') (A") (A') (A') (A')
                 (A") (A') (A') (A") (A') (A') (A') (A") (A') (A")
                 (A") (A') (A") (A') (A') (A") (A') (A') (A") (A')
                 (A') (A") (A') (A") (A') (A') (A") (A") (A') (A")
                 (A') (A") (A') (A') (A") (A") (A') (A") (A') (A')
                 (A') (A") (A') (A") (A') (A") (A') (A') (A') (A")
                 (A') (A") (A') (A') (A") (A') (A') (A") (A") (A")
                 (A') (A') (A") (A') (A') (A') (A") (A') (A') (A")
                 (A') (A') (A') (A") (A") (A') (A') (A') (A") (A')
                 (A") (A') (A') (A") (A') (A") (A") (A') (A') (A')
                 (A") (A') (A') (A") (A') (A") (A') (A') (A') (A")
                 (A') (A') (A") (A') (A") (A') (A') (A') (A') (A')
                 (A') (A') (A') (A') (A') (A') (A') (A')
 The electronic state is 1-A'.
 Alpha  occ. eigenvalues --  -15.63220 -15.55695 -11.23100 -11.20855 -11.17562
 Alpha  occ. eigenvalues --   -1.45421  -1.12938  -1.08340   -.86746   -.83499
 Alpha  occ. eigenvalues --    -.77494   -.65486   -.65355   -.61158   -.56929
 Alpha  occ. eigenvalues --    -.44208   -.37717   -.34531
 Alpha virt. eigenvalues --     .13925    .17008    .18136    .19075    .21187
 Alpha virt. eigenvalues --     .24317    .31462    .32331    .34113    .37800
 Alpha virt. eigenvalues --     .42062    .47862    .48770    .49543    .55379
 Alpha virt. eigenvalues --     .55414    .57166    .58780    .60101    .63161
 Alpha virt. eigenvalues --     .66199    .66739    .67551    .67635    .73181
 Alpha virt. eigenvalues --     .74110    .77693    .77943    .80112    .82734
 Alpha virt. eigenvalues --     .92282    .93410    .96450    .97309    .98536
 Alpha virt. eigenvalues --    1.02369   1.04631   1.08018   1.13212   1.20294
 Alpha virt. eigenvalues --    1.21853   1.23216   1.23874   1.24164   1.26437
 Alpha virt. eigenvalues --    1.29541   1.33744   1.40737   1.41386   1.44607
 Alpha virt. eigenvalues --    1.50184   1.50927   1.52099   1.57784   1.59409
 Alpha virt. eigenvalues --    1.64129   1.65243   1.67555   1.75152   1.77247
 Alpha virt. eigenvalues --    1.80899   1.81091   1.84991   1.96305   1.97917
 Alpha virt. eigenvalues --    2.06613   2.09424   2.15899   2.18984   2.32618
 Alpha virt. eigenvalues --    2.37537   2.42510   2.46957   2.48975   2.53905
 Alpha virt. eigenvalues --    2.64109   2.68251   2.71201   2.75765   2.83196
 Alpha virt. eigenvalues --    2.88775   2.90581   2.94365   2.98242   3.03667
 Alpha virt. eigenvalues --    3.08506   3.12040   3.16726   3.22873   3.23256
 Alpha virt. eigenvalues --    3.24486   3.25338   3.27220   3.27303   3.32136
 Alpha virt. eigenvalues --    3.35843   3.36675   3.37548   3.39325   3.42486
 Alpha virt. eigenvalues --    3.44403   3.44842   3.48779   3.53922   3.55222
 Alpha virt. eigenvalues --    3.58153   3.61835   3.65721   3.66527   3.74364
 Alpha virt. eigenvalues --    3.80144   3.81135   3.82985   3.89579   3.95694
 Alpha virt. eigenvalues --    3.96759   3.96963   4.00660   4.03320   4.07242
 Alpha virt. eigenvalues --    4.11750   4.14170   4.16389   4.18233   4.18978
 Alpha virt. eigenvalues --    4.28538   4.31306   4.32175   4.33394   4.37623
 Alpha virt. eigenvalues --    4.40303   4.45313   4.47520   4.52203   4.54238
 Alpha virt. eigenvalues --    4.70572   4.71564   4.73628   4.75442   4.84215
 Alpha virt. eigenvalues --    4.88422   4.91278   4.92080   4.92393   4.98497
 Alpha virt. eigenvalues --    5.01267   5.03667   5.05246   5.11368   5.19928
 Alpha virt. eigenvalues --    5.23615   5.25834   5.30874   5.33671   5.38539
 Alpha virt. eigenvalues --    5.42986   5.44760   5.48320   5.56611   5.64972
 Alpha virt. eigenvalues --    5.65302   5.66808   5.77446   5.79515   5.84476
 Alpha virt. eigenvalues --    5.91694   5.94543   5.98703   6.09102   6.13392
 Alpha virt. eigenvalues --    6.24368   6.34150   6.41672   6.47954   6.54756
 Alpha virt. eigenvalues --    6.68911   6.86011   6.95621   7.03976   7.30742
 Alpha virt. eigenvalues --    7.43790   7.69003   7.83029  10.65797  14.14258
 Alpha virt. eigenvalues --   15.15376  16.38968  16.84181
          Condensed to atoms (all electrons):
              1          2          3          4          5          6
     1  H     .444428    .424373   -.000267   -.030055   -.000192    .002999
     2  C     .424373   5.097206   -.052270    .514663    .012086   -.076933
     3  H    -.000267   -.052270    .472015    .419518   -.002406   -.049027
     4  C    -.030055    .514663    .419518   5.127062   -.056532    .485376
     5  H    -.000192    .012086   -.002406   -.056532    .439767    .435991
     6  C     .002999   -.076933   -.049027    .485376    .435991   4.926846
     7  N     .006334   -.185715    .011151   -.112757   -.025413    .648340
     8  H    -.001740   -.044701   -.000255    .007198   -.000258    .002199
     9  N    -.030099    .528972    .002127   -.144403    .002487   -.150587
              7          8          9
     1  H     .006334   -.001740   -.030099
     2  C    -.185715   -.044701    .528972
     3  H     .011151   -.000255    .002127
     4  C    -.112757    .007198   -.144403
     5  H    -.025413   -.000258    .002487
     6  C     .648340    .002199   -.150587
     7  N    6.531555   -.038177    .354042
     8  H    -.038177    .456570    .430254
     9  N     .354042    .430254   5.931898
 Mulliken atomic charges:
              1
     1  H     .184219
     2  C    -.217683
     3  H     .199415
     4  C    -.210071
     5  H     .194468
     6  C    -.225204
     7  N    -.189361
     8  H     .188910
     9  N     .075309
 Sum of Mulliken charges=    .00000
 Atomic charges with hydrogens summed into heavy atoms:
              1
     1  H     .000000
     2  C    -.033464
     3  H     .000000
     4  C    -.010657
     5  H     .000000
     6  C    -.030736
     7  N    -.189361
     8  H     .000000
     9  N     .264218
 Sum of Mulliken charges=    .00000
 Electronic spatial extent (au):  <R**2>=   259.0958
 Charge=      .0000 electrons
 Dipole moment (field-independent basis, Debye):
    X=     2.1537    Y=      .9160    Z=      .0000  Tot=     2.3404
 Quadrupole moment (field-independent basis, Debye-Ang):
   XX=   -29.9483   YY=   -21.9725   ZZ=   -31.1224
   XY=     2.6808   XZ=      .0000   YZ=      .0000
 Traceless Quadrupole moment (field-independent basis, Debye-Ang):
   XX=    -2.2672   YY=     5.7086   ZZ=    -3.4413
   XY=     2.6808   XZ=      .0000   YZ=      .0000
 Octapole moment (field-independent basis, Debye-Ang**2):
  XXX=     8.8950  YYY=    11.1332  ZZZ=      .0000  XYY=      .2928
  XXY=    -2.3006  XXZ=      .0000  XZZ=     -.8389  YZZ=     2.2398
  YYZ=      .0000  XYZ=      .0000
 Hexadecapole moment (field-independent basis, Debye-Ang**3):
 XXXX=  -152.6775 YYYY=  -120.8848 ZZZZ=   -32.8052 XXXY=     7.6602
 XXXZ=      .0000 YYYX=      .5498 YYYZ=      .0000 ZZZX=      .0000
 ZZZY=      .0000 XXYY=   -47.4884 XXZZ=   -33.7740 YYZZ=   -33.3686
 XXYZ=      .0000 YYXZ=      .0000 ZZXY=     -.0797
 N-N= 1.737391745845D+02 E-N=-8.742254643268D+02  KE= 2.262987758354D+02
 Symmetry A'   KE= 2.183844004780D+02
 Symmetry A"   KE= 7.914375357306D+00
 ***** Axes restored to original set *****
 -------------------------------------------------------------------
 Center     Atomic                   Forces (Hartrees/Bohr)
 Number     Number              X              Y              Z
 -------------------------------------------------------------------
    1          1           -.072911799     .000000000    -.036221676
    2          6           -.019600487     .000000000    -.053841226
    3          1            .020196210     .000000000    -.077991897
    4          6           -.008828833     .000000000    -.041264070
    5          1            .078179600     .000000000     .011511997
    6          6            .009213922     .000000000     .011398366
    7          7            .079996088     .000000000     .139493599
    8          1           -.053886790     .000000000     .056327988
    9          7           -.032357910     .000000000    -.009413080
 -------------------------------------------------------------------
 Cartesian Forces:  Max      .139493599 RMS      .046232902

 GradGradGradGradGradGradGradGradGradGradGradGradGradGradGradGradGradGrad
 Berny optimization.
 Internal  Forces:  Max      .120524037 RMS      .045664688
 Search for a local minimum.
 Step number   1 out of a maximum of  48
 All quantities printed in internal units (Hartrees-Bohrs-Radians)
 Second derivative matrix not updated -- first step.
     Eigenvalues ---     .03204    .03245    .03263    .03273    .03342
     Eigenvalues ---     .03375    .16000    .16000    .16000    .16000
     Eigenvalues ---     .22000    .22938    .49374    .49681    .49740
     Eigenvalues ---     .56490    .56686    .60708    .68179    .73042
     Eigenvalues ---     .827791000.000001000.000001000.000001000.00000
     Eigenvalues --- 1000.000001000.000001000.000001000.000001000.00000
     Eigenvalues --- 1000.000001000.000001000.000001000.000001000.00000
     Eigenvalues --- 1000.000001000.000001000.00000
 RFO step:  Lambda=-1.09453235D-01.
 Linear search not attempted -- first point.
 Maximum step size (    .300) exceeded in Quadratic search.
    -- Step size scaled by    .743
 Iteration  1 RMS(Cart)=   .06267878 RMS(Int)=   .00079219
 Iteration  2 RMS(Cart)=   .00100101 RMS(Int)=   .00000810
 Iteration  3 RMS(Cart)=   .00000071 RMS(Int)=   .00000807
 Variable       Old X    -DE/DX   Delta X   Delta X   Delta X     New X
                                 (Linear)    (Quad)   (Total)
    R1        1.86889    .08085    .00000    .09911    .09911   1.96800
    R2        2.49307    .07720    .00000    .07678    .07677   2.56984
    R3        2.40839    .10813    .00000    .09522    .09521   2.50360
    R4        1.86829    .08051    .00000    .09859    .09859   1.96688
    R5        2.47696    .12052    .00000    .11635    .11636   2.59332
    R6        1.87202    .07814    .00000    .09628    .09628   1.96829
    R7        2.41851    .07769    .00000    .06877    .06878   2.48729
    R8        2.34237    .11599    .00000    .08992    .08992   2.43229
    R9        1.77084    .07716    .00000    .08003    .08003   1.85087
    A1        2.20252    .01379    .00000    .03626    .03627   2.23879
    A2        2.21295   -.00402    .00000   -.01285   -.01284   2.20012
    A3        1.86771   -.00977    .00000   -.02341   -.02343   1.84428
    A4        2.22327   -.00297    .00000   -.00304   -.00304   2.22023
    A5        1.83976    .00016    .00000   -.00984   -.00985   1.82991
    A6        2.22016    .00281    .00000    .01289    .01289   2.23305
    A7        2.19731    .00175    .00000    .01267    .01266   2.20997
    A8        1.89479    .01851    .00000    .03538    .03540   1.93019
    A9        2.19108   -.02026    .00000   -.04805   -.04805   2.14302
   A10        1.88850   -.02707    .00000   -.05018   -.05016   1.83834
   A11        1.93402    .01817    .00000    .04806    .04804   1.98206
   A12        2.17185    .00073    .00000    .00304    .00305   2.17490
   A13        2.17732   -.01890    .00000   -.05110   -.05109   2.12623
    D1         .00000    .00000    .00000    .00000    .00000    .00000
    D2        3.14159    .00000    .00000    .00000    .00000   3.14159
    D3        3.14159    .00000    .00000    .00000    .00000   3.14159
    D4         .00000    .00000    .00000    .00000    .00000    .00000
    D5        3.14159    .00000    .00000    .00000    .00000   3.14159
    D6         .00000    .00000    .00000    .00000    .00000    .00000
    D7         .00000    .00000    .00000    .00000    .00000    .00000
    D8        3.14159    .00000    .00000    .00000    .00000   3.14159
    D9        3.14159    .00000    .00000    .00000    .00000   3.14159
   D10         .00000    .00000    .00000    .00000    .00000    .00000
   D11         .00000    .00000    .00000    .00000    .00000    .00000
   D12        3.14159    .00000    .00000    .00000    .00000   3.14159
   D13         .00000    .00000    .00000    .00000    .00000    .00000
   D14        3.14159    .00000    .00000    .00000    .00000   3.14159
   D15         .00000    .00000    .00000    .00000    .00000    .00000
   D16        3.14159    .00000    .00000    .00000    .00000   3.14159
         Item               Value     Threshold  Converged?
 Maximum Force             .120524      .000450     NO 
 RMS     Force             .045665      .000300     NO 
 Maximum Displacement      .179712      .001800     NO 
 RMS     Displacement      .062635      .001200     NO 
 Predicted change in Energy=-5.604208D-02
 GradGradGradGradGradGradGradGradGradGradGradGradGradGradGradGradGradGrad

                          Input orientation:                          
 ---------------------------------------------------------------------
 Center     Atomic     Atomic              Coordinates (Angstroms)
 Number     Number      Type              X           Y           Z
 ---------------------------------------------------------------------
    1          1             0       -2.007600     .000000    -.794537
    2          6             0       -1.118137     .000000    -.252861
    3          1             0         .457841     .000000   -1.722849
    4          6             0         .156593     .000000    -.726570
    5          1             0        1.989540     .000000     .419647
    6          6             0         .948269     .000000     .394378
    7          7             0         .208894     .000000    1.483302
    8          1             0       -1.766821     .000000    1.688238
    9          7             0       -1.009204     .000000    1.067501
 ---------------------------------------------------------------------
                    Distance matrix (angstroms):
                    1          2          3          4          5
     1  H     .000000
     2  C    1.041420    .000000
     3  H    2.634418   2.155126    .000000
     4  C    2.165259   1.359903   1.040827    .000000
     5  H    4.177483   3.179610   2.633702   2.161829    .000000
     6  C    3.186013   2.165399   2.173286   1.372325   1.041577
     7  N    3.178269   2.185240   3.215801   2.210491   2.074141
     8  H    2.494423   2.046621   4.072424   3.087203   3.964791
     9  N    2.112813   1.324849   3.152503   2.139573   3.067927
                    6          7          8          9
     6  C     .000000
     7  N    1.316219    .000000
     8  H    3.007622   1.986315    .000000
     9  N    2.069975   1.287111    .979437    .000000
 Stoichiometry    C3H4N2
 Framework group  CS[SG(C3H4N2)]
 Deg. of freedom    15
 Full point group                 CS      NOp   2
 Largest Abelian subgroup         CS      NOp   2
 Largest concise Abelian subgroup C1      NOp   1
                         Standard orientation:                         
 ---------------------------------------------------------------------
 Center     Atomic     Atomic              Coordinates (Angstroms)
 Number     Number      Type              X           Y           Z
 ---------------------------------------------------------------------
    1          1             0        2.069110     .633799     .000000
    2          6             0        1.083166     .298433     .000000
    3          1             0        1.200980   -1.853470     .000000
    4          6             0         .629500    -.983567     .000000
    5          1             0       -1.425268   -1.655455     .000000
    6          6             0        -.738325    -.872518     .000000
    7          7             0       -1.100026     .393027     .000000
    8          1             0         .009310    2.040699     .000000
    9          7             0         .000000    1.061306     .000000
 ---------------------------------------------------------------------
 Rotational constants (GHZ):     10.1320766      9.9539782      5.0211189
 Standard basis: CC-pVTZ (5D, 7F)
 There are   140 symmetry adapted basis functions of A'  symmetry.
 There are    66 symmetry adapted basis functions of A"  symmetry.
 Integral buffers will be    131072 words long.
 Raffenetti 1 integral format.
 Two-electron integral symmetry is turned on.
   206 basis functions,   333 primitive gaussians,   235 cartesian basis functions
    18 alpha electrons       18 beta electrons
       nuclear repulsion energy       167.3828810780 Hartrees.
 NAtoms=    9 NActive=    9 NUniq=    9 SFac= 1.00D+00 NAtFMM=   60 Big=F
 One-electron integrals computed using PRISM.
 NBasis=   206 RedAO= T  NBF=   140    66
 NBsUse=   206 1.00D-06 NBFU=   140    66
 Initial guess read from the read-write file:
 Initial guess orbital symmetries:
       Occupied  (A') (A') (A') (A') (A') (A') (A') (A') (A') (A')
                 (A') (A') (A") (A') (A') (A') (A") (A")
       Virtual   (A') (A') (A') (A") (A') (A") (A') (A') (A') (A')
                 (A") (A') (A") (A') (A") (A') (A') (A') (A') (A')
                 (A') (A') (A') (A") (A") (A') (A') (A") (A') (A')
                 (A") (A') (A") (A') (A") (A') (A') (A") (A') (A')
                 (A') (A") (A') (A') (A") (A') (A') (A") (A') (A')
                 (A') (A') (A") (A") (A') (A') (A") (A') (A') (A')
                 (A') (A") (A') (A") (A') (A') (A") (A') (A') (A')
                 (A") (A') (A') (A") (A') (A') (A') (A") (A') (A")
                 (A") (A') (A") (A') (A') (A") (A') (A') (A") (A')
                 (A') (A") (A') (A") (A') (A') (A") (A") (A') (A")
                 (A') (A") (A') (A') (A") (A") (A') (A") (A') (A')
                 (A') (A") (A') (A") (A') (A") (A') (A') (A') (A")
                 (A') (A") (A') (A') (A") (A') (A') (A") (A") (A")
                 (A') (A') (A") (A') (A') (A') (A") (A') (A') (A")
                 (A') (A') (A') (A") (A") (A') (A') (A') (A") (A')
                 (A") (A') (A') (A") (A') (A") (A") (A') (A') (A')
                 (A") (A') (A') (A") (A') (A") (A') (A') (A') (A")
                 (A') (A') (A") (A') (A") (A') (A') (A') (A') (A')
                 (A') (A') (A') (A') (A') (A') (A') (A')
 Harris functional with IExCor=  205 diagonalized for initial guess.
 ExpMin= 1.03D-01 ExpMax= 1.14D+04 ExpMxC= 3.89D+02 IAcc=1 IRadAn=         1 AccDes= 1.00D-06
 HarFok:  IExCor= 205 AccDes= 1.00D-06 IRadAn=         1 IDoV=1
 ScaDFX=  1.000000  1.000000  1.000000  1.000000
 Requested convergence on RMS density matrix=1.00D-08 within 128 cycles.
 Requested convergence on MAX density matrix=1.00D-06.
 Requested convergence on             energy=1.00D-06.
 No special actions if energy rises.
 Integral accuracy reduced to 1.0D-05 until final iterations.
 Initial convergence to 1.0D-05 achieved.  Increase integral accuracy.
 SCF Done:  E(RHF) =  -224.870083943     A.U. after   13 cycles
             Convg  =     .5999D-08             -V/T =  1.9988
             S**2   =    .0000
 ExpMin= 1.03D-01 ExpMax= 1.14D+04 ExpMxC= 3.89D+02 IAcc=1 IRadAn=         1 AccDes= 1.00D-06
 HarFok:  IExCor= 205 AccDes= 1.00D-06 IRadAn=         1 IDoV=1
 ScaDFX=  1.000000  1.000000  1.000000  1.000000
 Range of M.O.s used for correlation:     6   206
 NBasis=   206 NAE=    18 NBE=    18 NFC=     5 NFV=     0
 NROrb=    201 NOA=    13 NOB=    13 NVA=   188 NVB=   188

 **** Warning!!: The largest alpha MO coefficient is   .12921324D+02

 Disk-based method using ON**2 memory for 13 occupieds at a time.
 Estimated scratch disk usage=   310976144 words.
 Actual    scratch disk usage=   296330384 words.
 JobTyp=1 Pass  1:  I=   6 to  18 NPSUse=  1 ParTrn=F ParDer=F DoDerP=T.
 Spin components of T(2) and E(2):
     alpha-alpha T2 =        .3767677163D-01 E2=      -.1139990283D+00
     alpha-beta  T2 =        .1973509408D+00 E2=      -.6519661622D+00
     beta-beta   T2 =        .3767677163D-01 E2=      -.1139990283D+00
 ANorm=     .1128142050D+01
 E2 =     -.8799642189D+00 EUMP2 =     -.22575004816193D+03
          Differentiating once with respect to electric field.
                with respect to dipole field.
          Differentiating once with respect to nuclear coordinates.
          There are   1 degrees of freedom in the 1st order CPHF.
 Petite list used in FoFDir.
 MinBra= 0 MaxBra= 3 Meth= 1.
 IRaf=       0 NMat=   1 IRICut=       1 DoRegI=T DoRafI=F ISym2E= 1 JSym2E=1.
     1 vectors were produced by pass  0.
 AX will form   1 AO Fock derivatives at one time.
     1 vectors were produced by pass  1.
     1 vectors were produced by pass  2.
     1 vectors were produced by pass  3.
     1 vectors were produced by pass  4.
     1 vectors were produced by pass  5.
     1 vectors were produced by pass  6.
     1 vectors were produced by pass  7.
     1 vectors were produced by pass  8.
     1 vectors were produced by pass  9.
     1 vectors were produced by pass 10.
     1 vectors were produced by pass 11.
     1 vectors were produced by pass 12.
     1 vectors were produced by pass 13.
     1 vectors were produced by pass 14.
 Inv2:  IOpt= 1 Iter= 1 AM= 4.72D-16 Conv= 1.00D-12.
 Inverted reduced A of dimension   15 with in-core refinement.
 End of Minotr Frequency-dependent properties file   721 does not exist.
 ***** Axes restored to original set *****
 -------------------------------------------------------------------
 Center     Atomic                   Forces (Hartrees/Bohr)
 Number     Number              X              Y              Z
 -------------------------------------------------------------------
    1          1           -.026906066     .000000000    -.007735286
    2          6            .000571372     .000000000    -.021353210
    3          1            .007101522     .000000000    -.026275405
    4          6            .000334487     .000000000    -.009048946
    5          1            .026900454     .000000000     .006907516
    6          6            .002990634     .000000000    -.007243529
    7          7            .034520599     .000000000     .051294289
    8          1           -.015913037     .000000000     .021123787
    9          7           -.029599964     .000000000    -.007669216
 -------------------------------------------------------------------
 Cartesian Forces:  Max      .051294289 RMS      .017588750

 GradGradGradGradGradGradGradGradGradGradGradGradGradGradGradGradGradGrad
 Berny optimization.
 Internal  Forces:  Max      .048459200 RMS      .016027401
 Search for a local minimum.
 Step number   2 out of a maximum of  48
 All quantities printed in internal units (Hartrees-Bohrs-Radians)
 Update second derivatives using D2CorX and points  1  2
 Trust test= 9.52D-01 RLast= 3.00D-01 DXMaxT set to 4.24D-01
     Eigenvalues ---     .03204    .03247    .03260    .03273    .03343
     Eigenvalues ---     .03374    .15875    .16000    .16000    .16027
     Eigenvalues ---     .22019    .23775    .49439    .49711    .50919
     Eigenvalues ---     .57116    .58118    .61231    .68352    .72451
     Eigenvalues ---     .810801000.000001000.000001000.000001000.00000
     Eigenvalues --- 1000.000001000.000001000.000001000.000001000.00000
     Eigenvalues --- 1000.000001000.000001000.000001000.000001000.00000
     Eigenvalues --- 1000.000001000.000001000.00000
 RFO step:  Lambda=-2.35836079D-03.
 Quartic linear search produced a step of   .67091.
 Iteration  1 RMS(Cart)=   .04945732 RMS(Int)=   .00116072
 Iteration  2 RMS(Cart)=   .00132867 RMS(Int)=   .00003838
 Iteration  3 RMS(Cart)=   .00000192 RMS(Int)=   .00003835
 Iteration  4 RMS(Cart)=   .00000000 RMS(Int)=   .00003835
 Variable       Old X    -DE/DX   Delta X   Delta X   Delta X     New X
                                 (Linear)    (Quad)   (Total)
    R1        1.96800    .02700    .06650    .00124    .06773   2.03573
    R2        2.56984    .02828    .05151    .00353    .05497   2.62481
    R3        2.50360    .03472    .06388   -.00559    .05826   2.56186
    R4        1.96688    .02721    .06614    .00228    .06842   2.03530
    R5        2.59332    .03590    .07807   -.01573    .06233   2.65565
    R6        1.96829    .02706    .06459    .00453    .06912   2.03741
    R7        2.48729    .02988    .04615    .00711    .05332   2.54061
    R8        2.43229    .04846    .06033    .01593    .07631   2.50859
    R9        1.85087    .02570    .05369   -.00130    .05239   1.90326
    A1        2.23879    .00739    .02433    .04421    .06859   2.30738
    A2        2.20012   -.00715   -.00861   -.05960   -.06816   2.13195
    A3        1.84428   -.00023   -.01572    .01539   -.00043   1.84385
    A4        2.22023   -.00162   -.00204   -.00020   -.00219   2.21803
    A5        1.82991    .00165   -.00661   -.00109   -.00778   1.82213
    A6        2.23305   -.00003    .00865    .00129    .00997   2.24302
    A7        2.20997    .00337    .00849    .03614    .04462   2.25459
    A8        1.93019    .00556    .02375   -.00228    .02151   1.95170
    A9        2.14302   -.00893   -.03224   -.03387   -.06613   2.07690
   A10        1.83834   -.00790   -.03365    .00945   -.02407   1.81427
   A11        1.98206    .00092    .03223   -.02148    .01077   1.99283
   A12        2.17490    .00533    .00205    .04504    .04709   2.22198
   A13        2.12623   -.00625   -.03428   -.02357   -.05785   2.06837
    D1         .00000    .00000    .00000    .00000    .00000    .00000
    D2        3.14159    .00000    .00000    .00000    .00000   3.14159
    D3        3.14159    .00000    .00000    .00000    .00000   3.14159
    D4         .00000    .00000    .00000    .00000    .00000    .00000
    D5        3.14159    .00000    .00000    .00000    .00000   3.14159
    D6         .00000    .00000    .00000    .00000    .00000    .00000
    D7         .00000    .00000    .00000    .00000    .00000    .00000
    D8        3.14159    .00000    .00000    .00000    .00000   3.14159
    D9        3.14159    .00000    .00000    .00000    .00000   3.14159
   D10         .00000    .00000    .00000    .00000    .00000    .00000
   D11         .00000    .00000    .00000    .00000    .00000    .00000
   D12        3.14159    .00000    .00000    .00000    .00000   3.14159
   D13         .00000    .00000    .00000    .00000    .00000    .00000
   D14        3.14159    .00000    .00000    .00000    .00000   3.14159
   D15         .00000    .00000    .00000    .00000    .00000    .00000
   D16        3.14159    .00000    .00000    .00000    .00000   3.14159
         Item               Value     Threshold  Converged?
 Maximum Force             .048459      .000450     NO 
 RMS     Force             .016027      .000300     NO 
 Maximum Displacement      .151639      .001800     NO 
 RMS     Displacement      .049406      .001200     NO 
 Predicted change in Energy=-7.481907D-03
 GradGradGradGradGradGradGradGradGradGradGradGradGradGradGradGradGradGrad

                          Input orientation:                          
 ---------------------------------------------------------------------
 Center     Atomic     Atomic              Coordinates (Angstroms)
 Number     Number      Type              X           Y           Z
 ---------------------------------------------------------------------
    1          1             0       -2.087844     .000000    -.786180
    2          6             0       -1.133648     .000000    -.286176
    3          1             0         .484246     .000000   -1.794767
    4          6             0         .170395     .000000    -.764474
    5          1             0        2.041852     .000000     .480233
    6          6             0         .967227     .000000     .393090
    7          7             0         .222573     .000000    1.512462
    8          1             0       -1.778077     .000000    1.736732
    9          7             0       -1.027350     .000000    1.065330
 ---------------------------------------------------------------------
                    Distance matrix (angstroms):
                    1          2          3          4          5
     1  H     .000000
     2  C    1.077262    .000000
     3  H    2.762769   2.212110    .000000
     4  C    2.258343   1.388992   1.077036    .000000
     5  H    4.319513   3.266678   2.757130   2.247587    .000000
     6  C    3.274773   2.207958   2.240533   1.405310   1.078153
     7  N    3.259107   2.252650   3.317564   2.277533   2.091715
     8  H    2.541858   2.123074   4.193995   3.170580   4.021275
     9  N    2.133714   1.355679   3.234977   2.186956   3.124474
                    6          7          8          9
     6  C     .000000
     7  N    1.344434    .000000
     8  H    3.056480   2.013181    .000000
     9  N    2.104814   1.327491   1.007161    .000000
 Stoichiometry    C3H4N2
 Framework group  CS[SG(C3H4N2)]
 Deg. of freedom    15
 Full point group                 CS      NOp   2
 Largest Abelian subgroup         CS      NOp   2
 Largest concise Abelian subgroup C1      NOp   1
                         Standard orientation:                         
 ---------------------------------------------------------------------
 Center     Atomic     Atomic              Coordinates (Angstroms)
 Number     Number      Type              X           Y           Z
 ---------------------------------------------------------------------
    1          1             0        2.104236     .725278     .000000
    2          6             0        1.112665     .304232     .000000
    3          1             0        1.253871   -1.903367     .000000
    4          6             0         .655968   -1.007533     .000000
    5          1             0       -1.493017   -1.665948     .000000
    6          6             0        -.744422    -.890049     .000000
    7          7             0       -1.138137     .395443     .000000
    8          1             0        -.043396    2.084952     .000000
    9          7             0         .000000    1.078727     .000000
 ---------------------------------------------------------------------
 Rotational constants (GHZ):      9.6890432      9.4410512      4.7817199
 Standard basis: CC-pVTZ (5D, 7F)
 There are   140 symmetry adapted basis functions of A'  symmetry.
 There are    66 symmetry adapted basis functions of A"  symmetry.
 Integral buffers will be    131072 words long.
 Raffenetti 1 integral format.
 Two-electron integral symmetry is turned on.
   206 basis functions,   333 primitive gaussians,   235 cartesian basis functions
    18 alpha electrons       18 beta electrons
       nuclear repulsion energy       163.2738888107 Hartrees.
 NAtoms=    9 NActive=    9 NUniq=    9 SFac= 1.00D+00 NAtFMM=   60 Big=F
 One-electron integrals computed using PRISM.
 NBasis=   206 RedAO= T  NBF=   140    66
 NBsUse=   206 1.00D-06 NBFU=   140    66
 Initial guess read from the read-write file:
 Initial guess orbital symmetries:
       Occupied  (A') (A') (A') (A') (A') (A') (A') (A') (A') (A')
                 (A') (A") (A') (A') (A') (A') (A") (A")
       Virtual   (A') (A') (A") (A') (A') (A") (A') (A') (A') (A')
                 (A") (A') (A') (A") (A') (A") (A') (A') (A') (A')
                 (A') (A') (A') (A") (A") (A') (A') (A') (A") (A')
                 (A") (A') (A') (A") (A") (A') (A') (A") (A') (A')
                 (A') (A") (A') (A') (A") (A') (A') (A") (A') (A')
                 (A') (A') (A") (A") (A') (A') (A") (A') (A') (A')
                 (A') (A") (A') (A') (A") (A') (A") (A') (A') (A')
                 (A') (A") (A') (A") (A') (A') (A") (A') (A') (A")
                 (A") (A') (A') (A") (A') (A") (A') (A') (A") (A')
                 (A') (A") (A') (A") (A') (A") (A') (A") (A') (A")
                 (A') (A") (A') (A') (A") (A") (A') (A") (A') (A')
                 (A') (A') (A") (A") (A') (A') (A") (A') (A') (A")
                 (A') (A") (A') (A') (A") (A') (A") (A') (A") (A")
                 (A') (A") (A') (A') (A') (A') (A') (A") (A') (A")
                 (A') (A') (A') (A') (A") (A') (A') (A") (A') (A")
                 (A") (A') (A') (A') (A") (A") (A') (A") (A') (A')
                 (A') (A") (A') (A") (A') (A") (A') (A') (A") (A')
                 (A') (A') (A") (A") (A') (A') (A') (A') (A') (A')
                 (A') (A') (A') (A') (A') (A') (A') (A')
 Harris functional with IExCor=  205 diagonalized for initial guess.
 ExpMin= 1.03D-01 ExpMax= 1.14D+04 ExpMxC= 3.89D+02 IAcc=1 IRadAn=         1 AccDes= 1.00D-06
 HarFok:  IExCor= 205 AccDes= 1.00D-06 IRadAn=         1 IDoV=1
 ScaDFX=  1.000000  1.000000  1.000000  1.000000
 Requested convergence on RMS density matrix=1.00D-08 within 128 cycles.
 Requested convergence on MAX density matrix=1.00D-06.
 Requested convergence on             energy=1.00D-06.
 No special actions if energy rises.
 Integral accuracy reduced to 1.0D-05 until final iterations.
 Initial convergence to 1.0D-05 achieved.  Increase integral accuracy.
 SCF Done:  E(RHF) =  -224.871850052     A.U. after   13 cycles
             Convg  =     .8023D-08             -V/T =  2.0019
             S**2   =    .0000
 ExpMin= 1.03D-01 ExpMax= 1.14D+04 ExpMxC= 3.89D+02 IAcc=1 IRadAn=         1 AccDes= 1.00D-06
 HarFok:  IExCor= 205 AccDes= 1.00D-06 IRadAn=         1 IDoV=1
 ScaDFX=  1.000000  1.000000  1.000000  1.000000
 Range of M.O.s used for correlation:     6   206
 NBasis=   206 NAE=    18 NBE=    18 NFC=     5 NFV=     0
 NROrb=    201 NOA=    13 NOB=    13 NVA=   188 NVB=   188

 **** Warning!!: The largest alpha MO coefficient is   .10794167D+02

 Disk-based method using ON**2 memory for 13 occupieds at a time.
 Estimated scratch disk usage=   310581616 words.
 Actual    scratch disk usage=   295789936 words.
 JobTyp=1 Pass  1:  I=   6 to  18 NPSUse=  1 ParTrn=F ParDer=F DoDerP=T.
 Spin components of T(2) and E(2):
     alpha-alpha T2 =        .3912740290D-01 E2=      -.1146751706D+00
     alpha-beta  T2 =        .2064481971D+00 E2=      -.6588175709D+00
     beta-beta   T2 =        .3912740290D-01 E2=      -.1146751706D+00
 ANorm=     .1133447398D+01
 E2 =     -.8881679121D+00 EUMP2 =     -.22576001796400D+03
          Differentiating once with respect to electric field.
                with respect to dipole field.
          Differentiating once with respect to nuclear coordinates.
          There are   1 degrees of freedom in the 1st order CPHF.
 Petite list used in FoFDir.
 MinBra= 0 MaxBra= 3 Meth= 1.
 IRaf=       0 NMat=   1 IRICut=       1 DoRegI=T DoRafI=F ISym2E= 1 JSym2E=1.
     1 vectors were produced by pass  0.
 AX will form   1 AO Fock derivatives at one time.
     1 vectors were produced by pass  1.
     1 vectors were produced by pass  2.
     1 vectors were produced by pass  3.
     1 vectors were produced by pass  4.
     1 vectors were produced by pass  5.
     1 vectors were produced by pass  6.
     1 vectors were produced by pass  7.
     1 vectors were produced by pass  8.
     1 vectors were produced by pass  9.
     1 vectors were produced by pass 10.
     1 vectors were produced by pass 11.
     1 vectors were produced by pass 12.
     1 vectors were produced by pass 13.
     1 vectors were produced by pass 14.
 Inv2:  IOpt= 1 Iter= 1 AM= 4.91D-16 Conv= 1.00D-12.
 Inverted reduced A of dimension   15 with in-core refinement.
 End of Minotr Frequency-dependent properties file   721 does not exist.
 ***** Axes restored to original set *****
 -------------------------------------------------------------------
 Center     Atomic                   Forces (Hartrees/Bohr)
 Number     Number              X              Y              Z
 -------------------------------------------------------------------
    1          1            .001090496     .000000000     .000987931
    2          6            .002519286     .000000000    -.003373327
    3          1           -.000556377     .000000000     .001718440
    4          6           -.002661349     .000000000     .002249029
    5          1           -.001561104     .000000000    -.000578466
    6          6            .001774170     .000000000    -.001172700
    7          7            .008543614     .000000000     .002873849
    8          1            .000869649     .000000000    -.001441312
    9          7           -.010018385     .000000000    -.001263444
 -------------------------------------------------------------------
 Cartesian Forces:  Max      .010018385 RMS      .002910007

 GradGradGradGradGradGradGradGradGradGradGradGradGradGradGradGradGradGrad
 Berny optimization.
 Internal  Forces:  Max      .008535265 RMS      .001724055
 Search for a local minimum.
 Step number   3 out of a maximum of  48
 All quantities printed in internal units (Hartrees-Bohrs-Radians)
 Update second derivatives using D2CorX and points  1  2  3
 Trust test= 1.33D+00 RLast= 2.42D-01 DXMaxT set to 6.00D-01
     Eigenvalues ---     .03203    .03248    .03250    .03273    .03342
     Eigenvalues ---     .03373    .15140    .16000    .16004    .16019
     Eigenvalues ---     .22060    .23485    .47100    .49514    .49715
     Eigenvalues ---     .57365    .58730    .59891    .66293    .68933
     Eigenvalues ---     .808491000.000001000.000001000.000001000.00000
     Eigenvalues --- 1000.000001000.000001000.000001000.000001000.00000
     Eigenvalues --- 1000.000001000.000001000.000001000.000001000.00000
     Eigenvalues --- 1000.000001000.000001000.00000
 RFO step:  Lambda=-1.68978475D-04.
 Quartic linear search produced a step of  -.00373.
 Iteration  1 RMS(Cart)=   .00345067 RMS(Int)=   .00000611
 Iteration  2 RMS(Cart)=   .00000717 RMS(Int)=   .00000140
 Iteration  3 RMS(Cart)=   .00000000 RMS(Int)=   .00000140
 Variable       Old X    -DE/DX   Delta X   Delta X   Delta X     New X
                                 (Linear)    (Quad)   (Total)
    R1        2.03573   -.00142   -.00025   -.00194   -.00219   2.03354
    R2        2.62481   -.00333   -.00020   -.00569   -.00590   2.61892
    R3        2.56186   -.00023   -.00022    .00096    .00074   2.56260
    R4        2.03530   -.00181   -.00025   -.00270   -.00295   2.03235
    R5        2.65565   -.00083   -.00023   -.00135   -.00158   2.65408
    R6        2.03741   -.00160   -.00026   -.00233   -.00259   2.03483
    R7        2.54061    .00005   -.00020    .00101    .00082   2.54143
    R8        2.50859    .00854   -.00028    .01155    .01126   2.51986
    R9        1.90326   -.00161   -.00020   -.00192   -.00211   1.90114
    A1        2.30738    .00020   -.00026    .00306    .00281   2.31019
    A2        2.13195   -.00055    .00025   -.00241   -.00216   2.12979
    A3        1.84385    .00036    .00000   -.00065   -.00065   1.84320
    A4        2.21803   -.00137    .00001   -.00316   -.00316   2.21488
    A5        1.82213    .00268    .00003    .00576    .00579   1.82792
    A6        2.24302   -.00131   -.00004   -.00259   -.00263   2.24039
    A7        2.25459   -.00048   -.00017   -.00162   -.00179   2.25280
    A8        1.95170    .00004   -.00008   -.00161   -.00168   1.95001
    A9        2.07690    .00044    .00025    .00323    .00347   2.08037
   A10        1.81427   -.00169    .00009   -.00167   -.00159   1.81268
   A11        1.99283   -.00138   -.00004   -.00183   -.00187   1.99096
   A12        2.22198    .00022   -.00018   -.00162   -.00180   2.22019
   A13        2.06837    .00116    .00022    .00345    .00367   2.07204
    D1         .00000    .00000    .00000    .00000    .00000    .00000
    D2        3.14159    .00000    .00000    .00000    .00000   3.14159
    D3        3.14159    .00000    .00000    .00000    .00000   3.14159
    D4         .00000    .00000    .00000    .00000    .00000    .00000
    D5        3.14159    .00000    .00000    .00000    .00000   3.14159
    D6         .00000    .00000    .00000    .00000    .00000    .00000
    D7         .00000    .00000    .00000    .00000    .00000    .00000
    D8        3.14159    .00000    .00000    .00000    .00000   3.14159
    D9        3.14159    .00000    .00000    .00000    .00000   3.14159
   D10         .00000    .00000    .00000    .00000    .00000    .00000
   D11         .00000    .00000    .00000    .00000    .00000    .00000
   D12        3.14159    .00000    .00000    .00000    .00000   3.14159
   D13         .00000    .00000    .00000    .00000    .00000    .00000
   D14        3.14159    .00000    .00000    .00000    .00000   3.14159
   D15         .00000    .00000    .00000    .00000    .00000    .00000
   D16        3.14159    .00000    .00000    .00000    .00000   3.14159
         Item               Value     Threshold  Converged?
 Maximum Force             .008535      .000450     NO 
 RMS     Force             .001724      .000300     NO 
 Maximum Displacement      .009786      .001800     NO 
 RMS     Displacement      .003449      .001200     NO 
 Predicted change in Energy=-8.462327D-05
 GradGradGradGradGradGradGradGradGradGradGradGradGradGradGradGradGradGrad

                          Input orientation:                          
 ---------------------------------------------------------------------
 Center     Atomic     Atomic              Coordinates (Angstroms)
 Number     Number      Type              X           Y           Z
 ---------------------------------------------------------------------
    1          1             0       -2.086339     .000000    -.786345
    2          6             0       -1.133061     .000000    -.287089
    3          1             0         .482092     .000000   -1.789919
    4          6             0         .169283     .000000    -.760943
    5          1             0        2.043022     .000000     .475055
    6          6             0         .969341     .000000     .393380
    7          7             0         .226146     .000000    1.514239
    8          1             0       -1.781752     .000000    1.732860
    9          7             0       -1.029357     .000000    1.065012
 ---------------------------------------------------------------------
                    Distance matrix (angstroms):
                    1          2          3          4          5
     1  H     .000000
     2  C    1.076102    .000000
     3  H    2.757535   2.206177    .000000
     4  C    2.255766   1.385871   1.075472    .000000
     5  H    4.317726   3.266247   2.750747   2.244680    .000000
     6  C    3.275505   2.209781   2.237008   1.404476   1.076783
     7  N    3.261944   2.256596   3.314056   2.275892   2.093069
     8  H    2.537552   2.121555   4.187477   3.166322   4.026285
     9  N    2.131838   1.356071   3.230341   2.184227   3.128507
                    6          7          8          9
     6  C     .000000
     7  N    1.344865    .000000
     8  H    3.059856   2.019766    .000000
     9  N    2.108526   1.333451   1.006042    .000000
 Stoichiometry    C3H4N2
 Framework group  CS[SG(C3H4N2)]
 Deg. of freedom    15
 Full point group                 CS      NOp   2
 Largest Abelian subgroup         CS      NOp   2
 Largest concise Abelian subgroup C1      NOp   1
                         Standard orientation:                         
 ---------------------------------------------------------------------
 Center     Atomic     Atomic              Coordinates (Angstroms)
 Number     Number      Type              X           Y           Z
 ---------------------------------------------------------------------
    1          1             0        2.102654     .728498     .000000
    2          6             0        1.113150     .305557     .000000
    3          1             0        1.256375   -1.895966     .000000
    4          6             0         .656908   -1.003061     .000000
    5          1             0       -1.485350   -1.673373     .000000
    6          6             0        -.743260    -.893139     .000000
    7          7             0       -1.141816     .391312     .000000
    8          1             0        -.041754    2.085218     .000000
    9          7             0         .000000    1.080042     .000000
 ---------------------------------------------------------------------
 Rotational constants (GHZ):      9.6679554      9.4496388      4.7787753
 Standard basis: CC-pVTZ (5D, 7F)
 There are   140 symmetry adapted basis functions of A'  symmetry.
 There are    66 symmetry adapted basis functions of A"  symmetry.
 Integral buffers will be    131072 words long.
 Raffenetti 1 integral format.
 Two-electron integral symmetry is turned on.
   206 basis functions,   333 primitive gaussians,   235 cartesian basis functions
    18 alpha electrons       18 beta electrons
       nuclear repulsion energy       163.2141921496 Hartrees.
 NAtoms=    9 NActive=    9 NUniq=    9 SFac= 1.00D+00 NAtFMM=   60 Big=F
 One-electron integrals computed using PRISM.
 NBasis=   206 RedAO= T  NBF=   140    66
 NBsUse=   206 1.00D-06 NBFU=   140    66
 Initial guess read from the read-write file:
 Initial guess orbital symmetries:
       Occupied  (A') (A') (A') (A') (A') (A') (A') (A') (A') (A')
                 (A') (A") (A') (A') (A') (A') (A") (A")
       Virtual   (A') (A") (A') (A') (A') (A") (A') (A') (A') (A')
                 (A") (A') (A') (A") (A') (A') (A') (A") (A') (A')
                 (A') (A') (A') (A") (A") (A') (A') (A') (A') (A")
                 (A") (A') (A') (A") (A') (A") (A') (A") (A') (A')
                 (A') (A") (A') (A") (A') (A') (A') (A') (A") (A')
                 (A') (A") (A') (A") (A') (A") (A') (A') (A') (A')
                 (A') (A") (A') (A') (A") (A') (A") (A') (A') (A')
                 (A') (A") (A') (A") (A') (A') (A") (A') (A') (A")
                 (A") (A') (A') (A') (A") (A") (A') (A') (A") (A')
                 (A") (A') (A') (A") (A') (A") (A') (A") (A') (A")
                 (A') (A') (A") (A') (A") (A") (A') (A') (A') (A")
                 (A') (A') (A") (A') (A") (A') (A') (A") (A') (A')
                 (A") (A") (A') (A') (A") (A") (A') (A') (A") (A")
                 (A") (A') (A') (A') (A') (A') (A') (A") (A') (A")
                 (A') (A') (A') (A') (A") (A') (A') (A') (A") (A")
                 (A') (A') (A") (A') (A") (A') (A") (A') (A") (A')
                 (A') (A") (A') (A") (A') (A") (A") (A') (A') (A')
                 (A') (A') (A") (A") (A') (A') (A') (A') (A') (A')
                 (A') (A') (A') (A') (A') (A') (A') (A')
 Requested convergence on RMS density matrix=1.00D-08 within 128 cycles.
 Requested convergence on MAX density matrix=1.00D-06.
 Requested convergence on             energy=1.00D-06.
 No special actions if energy rises.
 SCF Done:  E(RHF) =  -224.871911250     A.U. after   10 cycles
             Convg  =     .7508D-08             -V/T =  2.0019
             S**2   =    .0000
 ExpMin= 1.03D-01 ExpMax= 1.14D+04 ExpMxC= 3.89D+02 IAcc=1 IRadAn=         1 AccDes= 1.00D-06
 HarFok:  IExCor= 205 AccDes= 1.00D-06 IRadAn=         1 IDoV=1
 ScaDFX=  1.000000  1.000000  1.000000  1.000000
 Range of M.O.s used for correlation:     6   206
 NBasis=   206 NAE=    18 NBE=    18 NFC=     5 NFV=     0
 NROrb=    201 NOA=    13 NOB=    13 NVA=   188 NVB=   188

 **** Warning!!: The largest alpha MO coefficient is   .10933586D+02

 Disk-based method using ON**2 memory for 13 occupieds at a time.
 Estimated scratch disk usage=   310581616 words.
 Actual    scratch disk usage=   295789936 words.
 JobTyp=1 Pass  1:  I=   6 to  18 NPSUse=  1 ParTrn=F ParDer=F DoDerP=T.
 Spin components of T(2) and E(2):
     alpha-alpha T2 =        .3913331844D-01 E2=      -.1146613874D+00
     alpha-beta  T2 =        .2065107388D+00 E2=      -.6588996145D+00
     beta-beta   T2 =        .3913331844D-01 E2=      -.1146613874D+00
 ANorm=     .1133480205D+01
 E2 =     -.8882223893D+00 EUMP2 =     -.22576013363948D+03
          Differentiating once with respect to electric field.
                with respect to dipole field.
          Differentiating once with respect to nuclear coordinates.
          There are   1 degrees of freedom in the 1st order CPHF.
 Petite list used in FoFDir.
 MinBra= 0 MaxBra= 3 Meth= 1.
 IRaf=       0 NMat=   1 IRICut=       1 DoRegI=T DoRafI=F ISym2E= 1 JSym2E=1.
     1 vectors were produced by pass  0.
 AX will form   1 AO Fock derivatives at one time.
     1 vectors were produced by pass  1.
     1 vectors were produced by pass  2.
     1 vectors were produced by pass  3.
     1 vectors were produced by pass  4.
     1 vectors were produced by pass  5.
     1 vectors were produced by pass  6.
     1 vectors were produced by pass  7.
     1 vectors were produced by pass  8.
     1 vectors were produced by pass  9.
     1 vectors were produced by pass 10.
     1 vectors were produced by pass 11.
     1 vectors were produced by pass 12.
     1 vectors were produced by pass 13.
     1 vectors were produced by pass 14.
 Inv2:  IOpt= 1 Iter= 1 AM= 6.42D-16 Conv= 1.00D-12.
 Inverted reduced A of dimension   15 with in-core refinement.
 End of Minotr Frequency-dependent properties file   721 does not exist.
 ***** Axes restored to original set *****
 -------------------------------------------------------------------
 Center     Atomic                   Forces (Hartrees/Bohr)
 Number     Number              X              Y              Z
 -------------------------------------------------------------------
    1          1            .000474544     .000000000     .000387470
    2          6            .001825552     .000000000    -.000808616
    3          1           -.000108703     .000000000     .000553394
    4          6           -.000860131     .000000000     .000274448
    5          1           -.000659462     .000000000    -.000162004
    6          6           -.000554022     .000000000    -.000469722
    7          7            .004193169     .000000000     .001531344
    8          1            .000607655     .000000000    -.000344144
    9          7           -.004918602     .000000000    -.000962169
 -------------------------------------------------------------------
 Cartesian Forces:  Max      .004918602 RMS      .001388011

 GradGradGradGradGradGradGradGradGradGradGradGradGradGradGradGradGradGrad
 Berny optimization.
 Internal  Forces:  Max      .003639937 RMS      .000745378
 Search for a local minimum.
 Step number   4 out of a maximum of  48
 All quantities printed in internal units (Hartrees-Bohrs-Radians)
 Update second derivatives using D2CorX and points  1  2  3  4
 Trust test= 1.37D+00 RLast= 1.72D-02 DXMaxT set to 6.00D-01
     Eigenvalues ---     .03203    .03247    .03250    .03273    .03342
     Eigenvalues ---     .03373    .15021    .15735    .16006    .16251
     Eigenvalues ---     .23222    .24435    .38844    .47222    .49529
     Eigenvalues ---     .49767    .57519    .59888    .62980    .68910
     Eigenvalues ---     .741601000.000001000.000001000.000001000.00000
     Eigenvalues --- 1000.000001000.000001000.000001000.000001000.00000
     Eigenvalues --- 1000.000001000.000001000.000001000.000001000.00000
     Eigenvalues --- 1000.000001000.000001000.00000
 RFO step:  Lambda=-2.42554401D-05.
 Quartic linear search produced a step of   .59516.
 Iteration  1 RMS(Cart)=   .00216477 RMS(Int)=   .00000339
 Iteration  2 RMS(Cart)=   .00000374 RMS(Int)=   .00000076
 Iteration  3 RMS(Cart)=   .00000000 RMS(Int)=   .00000076
 Variable       Old X    -DE/DX   Delta X   Delta X   Delta X     New X
                                 (Linear)    (Quad)   (Total)
    R1        2.03354   -.00060   -.00130   -.00040   -.00171   2.03183
    R2        2.61892   -.00148   -.00351   -.00147   -.00498   2.61393
    R3        2.56260   -.00012    .00044    .00026    .00070   2.56330
    R4        2.03235   -.00056   -.00176    .00006   -.00170   2.03065
    R5        2.65408   -.00054   -.00094   -.00082   -.00175   2.65232
    R6        2.03483   -.00067   -.00154   -.00047   -.00202   2.03281
    R7        2.54143   -.00020    .00049   -.00027    .00022   2.54164
    R8        2.51986    .00364    .00670    .00279    .00949   2.52935
    R9        1.90114   -.00068   -.00126   -.00043   -.00168   1.89946
    A1        2.31019   -.00017    .00167   -.00120    .00047   2.31066
    A2        2.12979   -.00042   -.00129   -.00205   -.00333   2.12646
    A3        1.84320    .00059   -.00039    .00325    .00286   1.84607
    A4        2.21488   -.00018   -.00188    .00237    .00049   2.21537
    A5        1.82792    .00048    .00345   -.00348   -.00003   1.82789
    A6        2.24039   -.00030   -.00157    .00111   -.00046   2.23993
    A7        2.25280   -.00048   -.00107   -.00196   -.00302   2.24978
    A8        1.95001    .00073   -.00100    .00445    .00345   1.95347
    A9        2.08037   -.00025    .00207   -.00250   -.00043   2.07994
   A10        1.81268   -.00106   -.00094   -.00283   -.00377   1.80892
   A11        1.99096   -.00075   -.00111   -.00140   -.00251   1.98845
   A12        2.22019    .00051   -.00107    .00351    .00244   2.22262
   A13        2.07204    .00023    .00218   -.00211    .00007   2.07212
    D1         .00000    .00000    .00000    .00000    .00000    .00000
    D2        3.14159    .00000    .00000    .00000    .00000   3.14159
    D3        3.14159    .00000    .00000    .00000    .00000   3.14159
    D4         .00000    .00000    .00000    .00000    .00000    .00000
    D5        3.14159    .00000    .00000    .00000    .00000   3.14159
    D6         .00000    .00000    .00000    .00000    .00000    .00000
    D7         .00000    .00000    .00000    .00000    .00000    .00000
    D8        3.14159    .00000    .00000    .00000    .00000   3.14159
    D9        3.14159    .00000    .00000    .00000    .00000   3.14159
   D10         .00000    .00000    .00000    .00000    .00000    .00000
   D11         .00000    .00000    .00000    .00000    .00000    .00000
   D12        3.14159    .00000    .00000    .00000    .00000   3.14159
   D13         .00000    .00000    .00000    .00000    .00000    .00000
   D14        3.14159    .00000    .00000    .00000    .00000   3.14159
   D15         .00000    .00000    .00000    .00000    .00000    .00000
   D16        3.14159    .00000    .00000    .00000    .00000   3.14159
         Item               Value     Threshold  Converged?
 Maximum Force             .003640      .000450     NO 
 RMS     Force             .000745      .000300     NO 
 Maximum Displacement      .006378      .001800     NO 
 RMS     Displacement      .002164      .001200     NO 
 Predicted change in Energy=-3.044948D-05
 GradGradGradGradGradGradGradGradGradGradGradGradGradGradGradGradGradGrad

                          Input orientation:                          
 ---------------------------------------------------------------------
 Center     Atomic     Atomic              Coordinates (Angstroms)
 Number     Number      Type              X           Y           Z
 ---------------------------------------------------------------------
    1          1             0       -2.083736     .000000    -.786065
    2          6             0       -1.131065     .000000    -.287598
    3          1             0         .481975     .000000   -1.788383
    4          6             0         .168840     .000000    -.760444
    5          1             0        2.041089     .000000     .471680
    6          6             0         .968238     .000000     .393206
    7          7             0         .228726     .000000    1.516635
    8          1             0       -1.783380     .000000    1.732048
    9          7             0       -1.031313     .000000    1.065172
 ---------------------------------------------------------------------
                    Distance matrix (angstroms):
                    1          2          3          4          5
     1  H     .000000
     2  C    1.075199    .000000
     3  H    2.754545   2.203237    .000000
     4  C    2.252722   1.383235   1.074575    .000000
     5  H    4.312321   3.261758   2.745673   2.241304    .000000
     6  C    3.271885   2.206936   2.235125   1.403548   1.075717
     7  N    3.263420   2.259267   3.314706   2.277867   2.092031
     8  H    2.535963   2.122377   4.186319   3.166020   4.026797
     9  N    2.129477   1.356442   3.229987   2.184775   3.129199
                    6          7          8          9
     6  C     .000000
     7  N    1.344980    .000000
     8  H    3.060049   2.023603    .000000
     9  N    2.109441   1.338475   1.005151    .000000
 Stoichiometry    C3H4N2
 Framework group  CS[SG(C3H4N2)]
 Deg. of freedom    15
 Full point group                 CS      NOp   2
 Largest Abelian subgroup         CS      NOp   2
 Largest concise Abelian subgroup C1      NOp   1
                         Standard orientation:                         
 ---------------------------------------------------------------------
 Center     Atomic     Atomic              Coordinates (Angstroms)
 Number     Number      Type              X           Y           Z
 ---------------------------------------------------------------------
    1          1             0        2.100178     .729503     .000000
    2          6             0        1.112268     .305137     .000000
    3          1             0        1.258352   -1.893252     .000000
    4          6             0         .658633   -1.001597     .000000
    5          1             0       -1.478731   -1.676224     .000000
    6          6             0        -.740751    -.893567     .000000
    7          7             0       -1.145439     .389086     .000000
    8          1             0        -.042628    2.085783     .000000
    9          7             0         .000000    1.081536     .000000
 ---------------------------------------------------------------------
 Rotational constants (GHZ):      9.6717778      9.4381454      4.7767667
 Standard basis: CC-pVTZ (5D, 7F)
 There are   140 symmetry adapted basis functions of A'  symmetry.
 There are    66 symmetry adapted basis functions of A"  symmetry.
 Integral buffers will be    131072 words long.
 Raffenetti 1 integral format.
 Two-electron integral symmetry is turned on.
   206 basis functions,   333 primitive gaussians,   235 cartesian basis functions
    18 alpha electrons       18 beta electrons
       nuclear repulsion energy       163.1738289642 Hartrees.
 NAtoms=    9 NActive=    9 NUniq=    9 SFac= 1.00D+00 NAtFMM=   60 Big=F
 One-electron integrals computed using PRISM.
 NBasis=   206 RedAO= T  NBF=   140    66
 NBsUse=   206 1.00D-06 NBFU=   140    66
 Initial guess read from the read-write file:
 Initial guess orbital symmetries:
       Occupied  (A') (A') (A') (A') (A') (A') (A') (A') (A') (A')
                 (A') (A') (A") (A') (A') (A') (A") (A")
       Virtual   (A') (A") (A') (A') (A') (A") (A') (A') (A') (A')
                 (A") (A') (A') (A") (A') (A') (A') (A") (A') (A')
                 (A') (A') (A') (A") (A") (A') (A') (A') (A') (A")
                 (A") (A') (A') (A") (A') (A") (A') (A") (A') (A')
                 (A') (A") (A') (A") (A') (A') (A') (A') (A") (A')
                 (A') (A") (A') (A") (A') (A") (A') (A') (A') (A')
                 (A') (A") (A') (A') (A") (A') (A") (A') (A') (A')
                 (A') (A") (A') (A") (A') (A') (A") (A') (A') (A")
                 (A") (A') (A') (A') (A") (A") (A') (A') (A") (A')
                 (A") (A') (A') (A") (A') (A") (A') (A") (A') (A")
                 (A') (A') (A") (A') (A") (A") (A') (A') (A') (A")
                 (A') (A') (A") (A') (A") (A') (A') (A") (A') (A')
                 (A") (A") (A') (A') (A") (A") (A') (A') (A") (A")
                 (A") (A') (A') (A') (A') (A') (A') (A") (A') (A")
                 (A') (A') (A') (A') (A") (A') (A') (A') (A") (A")
                 (A') (A') (A") (A') (A") (A') (A") (A') (A") (A')
                 (A') (A") (A') (A") (A') (A") (A') (A") (A') (A')
                 (A') (A') (A") (A") (A') (A') (A') (A') (A') (A')
                 (A') (A') (A') (A') (A') (A') (A') (A')
 Requested convergence on RMS density matrix=1.00D-08 within 128 cycles.
 Requested convergence on MAX density matrix=1.00D-06.
 Requested convergence on             energy=1.00D-06.
 No special actions if energy rises.
 SCF Done:  E(RHF) =  -224.871906970     A.U. after   10 cycles
             Convg  =     .8096D-08             -V/T =  2.0019
             S**2   =    .0000
 ExpMin= 1.03D-01 ExpMax= 1.14D+04 ExpMxC= 3.89D+02 IAcc=1 IRadAn=         1 AccDes= 1.00D-06
 HarFok:  IExCor= 205 AccDes= 1.00D-06 IRadAn=         1 IDoV=1
 ScaDFX=  1.000000  1.000000  1.000000  1.000000
 Range of M.O.s used for correlation:     6   206
 NBasis=   206 NAE=    18 NBE=    18 NFC=     5 NFV=     0
 NROrb=    201 NOA=    13 NOB=    13 NVA=   188 NVB=   188

 **** Warning!!: The largest alpha MO coefficient is   .10990562D+02

 Disk-based method using ON**2 memory for 13 occupieds at a time.
 Estimated scratch disk usage=   310617040 words.
 Actual    scratch disk usage=   295825360 words.
 JobTyp=1 Pass  1:  I=   6 to  18 NPSUse=  1 ParTrn=F ParDer=F DoDerP=T.
 Spin components of T(2) and E(2):
     alpha-alpha T2 =        .3913264641D-01 E2=      -.1146468166D+00
     alpha-beta  T2 =        .2065449189D+00 E2=      -.6589632206D+00
     beta-beta   T2 =        .3913264641D-01 E2=      -.1146468166D+00
 ANorm=     .1133494690D+01
 E2 =     -.8882568538D+00 EUMP2 =     -.22576016382420D+03
          Differentiating once with respect to electric field.
                with respect to dipole field.
          Differentiating once with respect to nuclear coordinates.
          There are   1 degrees of freedom in the 1st order CPHF.
 Petite list used in FoFDir.
 MinBra= 0 MaxBra= 3 Meth= 1.
[...]
 Red. masses --     2.8644                 3.0221                 1.0920
 Frc consts  --     3.7849                 4.2570                 6.9593
 IR Inten    --     4.5236                 4.1028                 1.2808
 Atom AN      X      Y      Z        X      Y      Z        X      Y      Z
   1   1      .00   -.27    .00      .34   -.36    .00     -.26   -.11    .00
   2   6     -.17    .18    .00      .03    .28    .00      .02    .01    .00
   3   1     -.11   -.18    .00      .30   -.04    .00      .26   -.39    .00
   4   6      .05   -.06    .00     -.05   -.22    .00     -.02    .03    .00
   5   1     -.05    .04    .00      .35   -.26    .00      .57    .61    .00
   6   6      .01   -.01    .00     -.10    .16    .00     -.05   -.05    .00
   7   7     -.09    .03    .00      .05   -.08    .00      .00    .00    .00
   8   1     -.84   -.16    .00      .53   -.03    .00      .00    .01    .00
   9   7      .26   -.09    .00     -.06   -.05    .00      .00    .00    .00
                    19                     20                     21
                    A'                     A'                     A'
 Frequencies --  3297.7747              3317.2126              3684.0003
 Red. masses --     1.0956                 1.1078                 1.0827
 Frc consts  --     7.0201                 7.1822                 8.6578
 IR Inten    --      .5227                  .0659                99.1692
 Atom AN      X      Y      Z        X      Y      Z        X      Y      Z
   1   1      .75    .32    .00     -.45   -.20    .00      .01    .00    .00
   2   6     -.07   -.03    .00      .04    .02    .00      .00    .00    .00
   3   1     -.19    .27    .00     -.45    .68    .00      .00    .00    .00
   4   6      .02   -.02    .00      .04   -.07    .00      .00    .00    .00
   5   1      .32    .34    .00      .20    .20    .00      .00    .00    .00
   6   6     -.03   -.03    .00     -.02   -.02    .00      .00    .00    .00
   7   7      .00    .00    .00      .00    .00    .00      .00    .00    .00
   8   1      .00   -.01    .00      .00    .01    .00     -.05   1.00    .00
   9   7      .00    .00    .00      .00    .00    .00      .00   -.08    .00

 -------------------
 - Thermochemistry -
 -------------------
 Temperature   298.150 Kelvin.  Pressure   1.00000 Atm.
 Atom  1 has atomic number  1 and mass   1.00783
 Atom  2 has atomic number  6 and mass  12.00000
 Atom  3 has atomic number  1 and mass   1.00783
 Atom  4 has atomic number  6 and mass  12.00000
 Atom  5 has atomic number  1 and mass   1.00783
 Atom  6 has atomic number  6 and mass  12.00000
 Atom  7 has atomic number  7 and mass  14.00307
 Atom  8 has atomic number  1 and mass   1.00783
 Atom  9 has atomic number  7 and mass  14.00307
 Molecular mass:    68.03745 amu.
 Principal axes and moments of inertia in atomic units:
                           1         2         3
     EIGENVALUES --   186.72216 191.10912 377.83127
           X             .86127    .50815    .00000
           Y            -.50815    .86127    .00000
           Z             .00000    .00000   1.00000
 This molecule is an asymmetric top.
 Rotational symmetry number  1.
 Rotational temperatures (Kelvin)       .46386      .45322      .22924
 Rotational constants (GHZ):           9.66538     9.44351     4.77658
 Zero-point vibrational energy     188037.9 (Joules/Mol)
                                   44.94214 (Kcal/Mol)
 Warning -- explicit consideration of   1 degrees of freedom as
           vibrations may cause significant error
 Vibrational temperatures:    809.61   921.65  1009.28  1076.99  1198.08
          (Kelvin)           1280.75  1311.63  1339.26  1526.61  1529.63
                             1668.25  1712.96  1847.90  1975.40  2094.24
                             2154.67  2224.66  4731.99  4744.76  4772.72
                             5300.45
 
 Zero-point correction=                            .071620 (Hartree/Particle)
 Thermal correction to Energy=                     .075335
 Thermal correction to Enthalpy=                   .076279
 Thermal correction to Gibbs Free Energy=          .045371
 Sum of electronic and zero-point Energies=           -225.688545
 Sum of electronic and thermal Energies=              -225.684830
 Sum of electronic and thermal Enthalpies=            -225.683886
 Sum of electronic and thermal Free Energies=         -225.714795
 
                     E (Thermal)             CV                S
                      KCal/Mol        Cal/Mol-Kelvin    Cal/Mol-Kelvin
 Total                   47.273             13.213             65.053
 Electronic                .000               .000               .000
 Translational             .889              2.981             38.570
 Rotational                .889              2.981             24.115
 Vibrational             45.496              7.251              2.368
 Vibration  1              .918              1.112               .518
                       Q            Log10(Q)             Ln(Q)
 Total Bot        .135211D-20        -20.868987        -48.052618
 Total V=0        .118520D+13         12.073793         27.800936
 Vib (Bot)        .147469D-32        -32.831298        -75.596857
 Vib (Bot)  1     .275476D+00          -.559916         -1.289255
 Vib (V=0)        .129265D+01           .111482           .256697
 Vib (V=0)  1     .107087D+01           .029735           .068467
 Electronic       .100000D+01           .000000           .000000
 Translational    .220586D+08          7.343577         16.909211
 Rotational       .415656D+05          4.618734         10.635028
 ***** Axes restored to original set *****
 -------------------------------------------------------------------
 Center     Atomic                   Forces (Hartrees/Bohr)
 Number     Number              X              Y              Z
 -------------------------------------------------------------------
    1          1           -.000007308     .000000000    -.000065529
    2          6           -.000046792     .000000000     .000367236
    3          1            .000013998     .000000000    -.000032924
    4          6            .000064602     .000000000    -.000157533
    5          1            .000039450     .000000000     .000020440
    6          6           -.000313257     .000000000     .000241838
    7          7            .000229231     .000000000    -.000039834
    8          1            .000050644     .000000000     .000061952
    9          7           -.000030568     .000000000    -.000395646
 -------------------------------------------------------------------
 Cartesian Forces:  Max      .000395646 RMS      .000142500

 GradGradGradGradGradGradGradGradGradGradGradGradGradGradGradGradGradGrad
 Berny optimization.
 Internal  Forces:  Max      .000251588 RMS      .000069804
 Search for a local minimum.
 Step number   1 out of a maximum of   2
 All quantities printed in internal units (Hartrees-Bohrs-Radians)
 Second derivative matrix not updated -- analytic derivatives used.
     Eigenvalues ---     .00809    .01148    .01569    .02739    .05923
     Eigenvalues ---     .06200    .09164    .10242    .10781    .11576
     Eigenvalues ---     .22470    .27446    .35196    .37345    .38260
     Eigenvalues ---     .38421    .38883    .44674    .48030    .49096
     Eigenvalues ---     .547011000.000001000.000001000.000001000.00000
     Eigenvalues --- 1000.000001000.000001000.000001000.000001000.00000
     Eigenvalues --- 1000.000001000.000001000.000001000.000001000.00000
     Eigenvalues --- 1000.000001000.000001000.00000
 Angle between quadratic step and forces=  31.97 degrees.
 Linear search not attempted -- first point.
 Iteration  1 RMS(Cart)=   .00025185 RMS(Int)=   .00000008
 Iteration  2 RMS(Cart)=   .00000008 RMS(Int)=   .00000001
 Variable       Old X    -DE/DX   Delta X   Delta X   Delta X     New X
                                 (Linear)    (Quad)   (Total)
    R1        2.03206    .00004    .00000    .00010    .00010   2.03216
    R2        2.61448    .00005    .00000    .00024    .00024   2.61473
    R3        2.56262   -.00021    .00000   -.00062   -.00062   2.56201
    R4        2.03076    .00004    .00000    .00007    .00007   2.03082
    R5        2.65237    .00005    .00000    .00018    .00018   2.65255
    R6        2.03313    .00004    .00000    .00014    .00014   2.03328
    R7        2.54094   -.00025    .00000   -.00060   -.00060   2.54034
    R8        2.53020    .00005    .00000    .00030    .00030   2.53050
    R9        1.89951    .00000    .00000    .00000    .00000   1.89951
    A1        2.31048   -.00005    .00000   -.00067   -.00067   2.30981
    A2        2.12664    .00006    .00000    .00052    .00052   2.12716
    A3        1.84606   -.00001    .00000    .00015    .00015   1.84621
    A4        2.21560    .00005    .00000    .00025    .00025   2.21585
    A5        1.82832   -.00010    .00000   -.00043   -.00043   1.82789
    A6        2.23926    .00005    .00000    .00019    .00019   2.23945
    A7        2.25033   -.00003    .00000   -.00017   -.00017   2.25015
    A8        1.95273    .00010    .00000    .00039    .00039   1.95313
    A9        2.08013   -.00007    .00000   -.00022   -.00022   2.07991
   A10        1.80980   -.00007    .00000   -.00023   -.00023   1.80957
   A11        1.98785    .00008    .00000    .00012    .00012   1.98798
   A12        2.22378    .00003    .00000    .00062    .00062   2.22440
   A13        2.07155   -.00012    .00000   -.00074   -.00074   2.07081
    D1         .00000    .00000    .00000    .00000    .00000    .00000
    D2        3.14159    .00000    .00000    .00000    .00000   3.14159
    D3        3.14159    .00000    .00000    .00000    .00000   3.14159
    D4         .00000    .00000    .00000    .00000    .00000    .00000
    D5        3.14159    .00000    .00000    .00000    .00000   3.14159
    D6         .00000    .00000    .00000    .00000    .00000    .00000
    D7         .00000    .00000    .00000    .00000    .00000    .00000
    D8        3.14159    .00000    .00000    .00000    .00000   3.14159
    D9        3.14159    .00000    .00000    .00000    .00000   3.14159
   D10         .00000    .00000    .00000    .00000    .00000    .00000
   D11         .00000    .00000    .00000    .00000    .00000    .00000
   D12        3.14159    .00000    .00000    .00000    .00000   3.14159
   D13         .00000    .00000    .00000    .00000    .00000    .00000
   D14        3.14159    .00000    .00000    .00000    .00000   3.14159
   D15         .00000    .00000    .00000    .00000    .00000    .00000
   D16        3.14159    .00000    .00000    .00000    .00000   3.14159
         Item               Value     Threshold  Converged?
 Maximum Force             .000252      .000450     YES
 RMS     Force             .000070      .000300     YES
 Maximum Displacement      .000770      .001800     YES
 RMS     Displacement      .000252      .001200     YES
 Predicted change in Energy=-3.276068D-07
 Optimization completed.
    -- Stationary point found.
                           ----------------------------
                           !   Optimized Parameters   !
                           ! (Angstroms and Degrees)  !
 --------------------------                            --------------------------
 ! Name  Definition              Value          Derivative Info.                !
 --------------------------------------------------------------------------------
 ! R1    R(1,2)                  1.0753         -DE/DX =    0.0                 !
 ! R2    R(2,4)                  1.3835         -DE/DX =    0.0001              !
 ! R3    R(2,9)                  1.3561         -DE/DX =   -0.0002              !
 ! R4    R(3,4)                  1.0746         -DE/DX =    0.0                 !
 ! R5    R(4,6)                  1.4036         -DE/DX =    0.0001              !
 ! R6    R(5,6)                  1.0759         -DE/DX =    0.0                 !
 ! R7    R(6,7)                  1.3446         -DE/DX =   -0.0003              !
 ! R8    R(7,9)                  1.3389         -DE/DX =    0.0001              !
 ! R9    R(8,9)                  1.0052         -DE/DX =    0.0                 !
 ! A1    A(1,2,4)              132.3809         -DE/DX =    0.0                 !
 ! A2    A(1,2,9)              121.8474         -DE/DX =    0.0001              !
 ! A3    A(4,2,9)              105.7717         -DE/DX =    0.0                 !
 ! A4    A(2,4,3)              126.9446         -DE/DX =    0.0001              !
 ! A5    A(2,4,6)              104.7551         -DE/DX =   -0.0001              !
 ! A6    A(3,4,6)              128.3002         -DE/DX =    0.0                 !
 ! A7    A(4,6,5)              128.9342         -DE/DX =    0.0                 !
 ! A8    A(4,6,7)              111.8834         -DE/DX =    0.0001              !
 ! A9    A(5,6,7)              119.1824         -DE/DX =   -0.0001              !
 ! A10   A(6,7,9)              103.6942         -DE/DX =   -0.0001              !
 ! A11   A(2,9,7)              113.8956         -DE/DX =    0.0001              !
 ! A12   A(2,9,8)              127.4131         -DE/DX =    0.0                 !
 ! A13   A(7,9,8)              118.6912         -DE/DX =   -0.0001              !
 ! D1    D(1,2,4,3)              0.0            -DE/DX =    0.0                 !
 ! D2    D(1,2,4,6)            180.0            -DE/DX =    0.0                 !
 ! D3    D(9,2,4,3)            180.0            -DE/DX =    0.0                 !
 ! D4    D(9,2,4,6)              0.0            -DE/DX =    0.0                 !
 ! D5    D(1,2,9,7)            180.0            -DE/DX =    0.0                 !
 ! D6    D(1,2,9,8)              0.0            -DE/DX =    0.0                 !
 ! D7    D(4,2,9,7)              0.0            -DE/DX =    0.0                 !
 ! D8    D(4,2,9,8)            180.0            -DE/DX =    0.0                 !
 ! D9    D(2,4,6,5)            180.0            -DE/DX =    0.0                 !
 ! D10   D(2,4,6,7)              0.0            -DE/DX =    0.0                 !
 ! D11   D(3,4,6,5)              0.0            -DE/DX =    0.0                 !
 ! D12   D(3,4,6,7)            180.0            -DE/DX =    0.0                 !
 ! D13   D(4,6,7,9)              0.0            -DE/DX =    0.0                 !
 ! D14   D(5,6,7,9)            180.0            -DE/DX =    0.0                 !
 ! D15   D(6,7,9,2)              0.0            -DE/DX =    0.0                 !
 ! D16   D(6,7,9,8)            180.0            -DE/DX =    0.0                 !
 --------------------------------------------------------------------------------
 GradGradGradGradGradGradGradGradGradGradGradGradGradGradGradGradGradGrad

 1\1\GINC-HAL6\Freq\RMP2-FC\CC-pVTZ\C3H4N2\RDJ3\13-Jul-2006\0\\#N GEOM=
 ALLCHECK GUESS=READ SCRF=CHECK GENCHK RMP2(FC)/CC-PVTZ FREQ\\1H pyrazo
 le C3H4N2 casno=288131 method=3 basis=6\\0,1\H,-1.8915913873,0.,-1.168
 7455584\C,-0.9389585204,0.,-0.6699431924\H,0.6747911479,0.,-2.17061695
 45\C,0.361276019,0.,-1.1427363415\H,2.2340599004,0.,0.0894150756\C,1.1
 610564023,0.,0.0106808913\N,0.4212858037,0.,1.1334914042\H,-1.59077980
 87,0.,1.350153029\N,-0.8393891262,0.,0.6824780621\\Version=IBM64-RS600
 0-G03RevB.05\State=1-A'\HF=-224.8719327\MP2=-225.7601652\RMSD=1.359e-0
 9\RMSF=1.425e-04\Dipole=-0.8038833,0.,-0.3960251\DipoleDeriv=0.0065918
 ,0.,-0.036857,0.,0.1921244,0.,-0.024104,0.,0.072095,0.0528146,0.,-0.15
 72258,0.,-0.128357,0.,-0.238312,0.,0.2171396,0.0939285,0.,0.0233154,0.
 ,0.1684691,0.,0.0256591,0.,-0.0134236,-0.1571276,0.,0.0549206,0.,-0.21
 08952,0.,-0.0480397,0.,-0.0479518,-0.0258554,0.,-0.0019125,0.,0.153906
 ,0.,-0.0241777,0.,0.078225,0.1509059,0.,0.0932319,0.,-0.1006315,0.,0.1
 714302,0.,0.1182438,0.0075106,0.,-0.1216687,0.,-0.2293875,0.,-0.101572
 4,0.,-0.4785005,0.2245676,0.,-0.0730942,0.,0.2938414,0.,-0.0533458,0.,
 0.2337663,-0.3533161,0.,0.2197946,0.,-0.1389129,0.,0.2928371,0.,-0.179
 6066\PG=CS [SG(C3H4N2)]\NImag=0\\0.30982411,0.,0.01953129,0.13694361,0
 .,0.12303769,-0.30641490,0.,-0.11913977,0.85247099,0.,-0.02267659,0.,0
 .,0.11329171,-0.12927590,0.,-0.12114978,0.09140571,0.,0.66046280,0.000
 37460,0.,-0.00088130,0.00241014,0.,0.02536870,0.07609805,0.,-0.0025455
 9,0.,0.,-0.00233391,0.,0.,0.02244112,0.00039708,0.,-0.00016429,-0.0046
 6746,0.,0.00044182,-0.09482874,0.,0.35452797,-0.00584362,0.,0.00991217
 ,-0.33831927,0.,0.09209549,-0.08335751,0.,0.08950759,0.62541030,0.,0.0
 0002826,0.,0.,-0.06064090,0.,0.,-0.02655563,0.,0.,0.11550656,-0.015003
 40,0.,0.01257965,0.09902529,0.,-0.13496038,0.08678977,0.,-0.34365624,-
 0.11021397,0.,0.84253045,-0.00013750,0.,0.00026571,-0.00045072,0.,-0.0
 0107787,-0.00010209,0.,-0.00033294,-0.00407943,0.,0.00458056,0.3789984
 5,0.,0.00102016,0.,0.,0.00471439,0.,0.,-0.00202561,0.,0.,0.00039445,0.
 ,0.,0.02409663,-0.00106212,0.,0.00117241,-0.00313800,0.,-0.00582039,0.
 00093570,0.,0.00028670,-0.02203422,0.,0.00644831,0.02315885,0.,0.05583
 940,-0.00449762,0.,0.00491744,-0.05579198,0.,-0.00389899,0.01295925,0.
 ,0.01268656,-0.18545005,0.,-0.11375113,-0.36158310,0.,-0.03412987,0.87
 943880,0.,0.00463104,0.,0.,0.01017704,0.,0.,-0.00286478,0.,0.,-0.06357
 965,0.,0.,-0.02910712,0.,0.,0.13465576,0.00093636,0.,-0.00221176,-0.06
 251026,0.,0.01599459,-0.01543211,0.,-0.00828516,-0.09327175,0.,-0.2438
 4708,-0.02532421,0.,-0.05959623,0.02216204,0.,0.59330185,0.00070328,0.
 ,0.00013468,-0.05567478,0.,-0.04359574,-0.00183421,0.,-0.00117293,0.02
 330340,0.,0.02969733,-0.01174486,0.,0.02777136,-0.16895984,0.,0.135435
 89,0.51866198,0.,0.00677683,0.,0.,0.01847797,0.,0.,0.00683213,0.,0.,0.
 01891539,0.,0.,-0.00793360,0.,0.,-0.07109356,0.,0.,0.10546447,0.002560
 93,0.,-0.00589744,-0.02407432,0.,-0.05069391,-0.00633836,0.,-0.0036756
 2,-0.02207658,0.,-0.07658869,-0.00358185,0.,0.00578479,0.08425162,0.,-
 0.27256341,-0.02187139,0.,0.52551298,-0.00033016,0.,0.00045392,0.00940
 616,0.,-0.00668010,0.00077577,0.,-0.00007943,0.00221001,0.,-0.00329639
 ,-0.00037054,0.,0.00148382,-0.00723873,0.,-0.00615360,-0.02103535,0.,0
 .02478386,0.29694000,0.,-0.00158360,0.,0.,-0.00752371,0.,0.,0.00219657
 ,0.,0.,0.00316924,0.,0.,0.00229524,0.,0.,0.00474519,0.,0.,-0.01252305,
 0.,0.,0.01376897,-0.00055324,0.,0.00036836,0.02520795,0.,-0.00504490,0
 .00122739,0.,0.00022508,-0.00280566,0.,-0.00713377,-0.00050666,0.,0.00
 102232,-0.00601345,0.,0.00145196,-0.01362725,0.,0.01398848,-0.20748065
 ,0.,0.24937167,0.00633171,0.,-0.03259554,-0.10763508,0.,-0.02439534,-0
 .00732303,0.,-0.00150156,-0.03391389,0.,0.02216699,-0.00052828,0.,0.00
 701837,-0.10885729,0.,0.04415257,-0.28339158,0.,-0.03359472,-0.2803760
 6,0.,0.20457517,0.81569165,0.,-0.00517337,0.,0.,-0.05347990,0.,0.,0.00
 485931,0.,0.,0.01276774,0.,0.,0.00653987,0.,0.,0.01245121,0.,0.,-0.064
 93545,0.,0.,-0.00456275,0.,0.,0.09153695,0.00507570,0.,-0.00772606,-0.
 00207968,0.,-0.35928871,0.00316555,0.,0.00028867,0.05881148,0.,-0.0553
 5264,0.00283049,0.,-0.00513471,0.03379714,0.,-0.02423773,-0.11280255,0
 .,-0.13588339,0.19697198,0.,-0.25424154,-0.18581182,0.,0.84161656\\0.0
 0000731,0.,0.00006553,0.00004679,0.,-0.00036724,-0.00001400,0.,0.00003
 292,-0.00006460,0.,0.00015753,-0.00003945,0.,-0.00002044,0.00031326,0.
 ,-0.00024184,-0.00022923,0.,0.00003983,-0.00005064,0.,-0.00006195,0.00
 003057,0.,0.00039565\\\@


 PENOTUS DIED A HUNDRED YEARS OLD WANTING BUT TWO...
 AND HE USED TO SAY BEFORE HE DIED, HAVING SPENT HIS
 WHOLE LIFE IN VAINLY SEARCHING AFTER THE PHILOSOPHER'S
 STONE, THAT IF HE HAD A MORTAL ENEMY HE DID NOT DARE
 TO ENCOUNTER OPENLY, HE WOULD ADVISE HIM ABOVE ALL
 THINGS TO GIVE HIMSELF UP TO THE STUDY AND PRACTICE
 OF ALCHEMY.  --  NICOLAS LEMERY, M.D.
 "A COURSE OF CHYMISTRY", WALTER KETTILBY, LONDON, 1686
 Job cpu time:  1 days  9 hours 27 minutes 23.7 seconds.
 File lengths (MBytes):  RWF=   2304 Int=      0 D2E=      0 Chk=     17 Scr=      1
 Normal termination of Gaussian 03 at Thu Jul 13 18:51:35 2006.
