 Entering Gaussian System, Link 0=g03
 Initial command:
 /usr/local/apps/g03b05/g03/l1.exe /wrk/rdj3/Gau-26502.inp -scrdir=/wrk/rdj3/
 Entering Link 1 = /usr/local/apps/g03b05/g03/l1.exe PID=     21650.
  
 Copyright (c) 1988,1990,1992,1993,1995,1998,2003, Gaussian, Inc.
                  All Rights Reserved.
  
 This is the Gaussian(R) 03 program.  It is based on the
 the Gaussian(R) 98 system (copyright 1998, Gaussian, Inc.),
 the Gaussian(R) 94 system (copyright 1995, Gaussian, Inc.),
 the Gaussian 92(TM) system (copyright 1992, Gaussian, Inc.),
 the Gaussian 90(TM) system (copyright 1990, Gaussian, Inc.),
 the Gaussian 88(TM) system (copyright 1988, Gaussian, Inc.),
 the Gaussian 86(TM) system (copyright 1986, Carnegie Mellon
 University), and the Gaussian 82(TM) system (copyright 1983,
 Carnegie Mellon University). Gaussian is a federally registered
 trademark of Gaussian, Inc.
  
 This software contains proprietary and confidential information,
 including trade secrets, belonging to Gaussian, Inc.
  
 This software is provided under written license and may be
 used, copied, transmitted, or stored only in accord with that
 written license.
  
 The following legend is applicable only to US Government
 contracts under DFARS:
  
                    RESTRICTED RIGHTS LEGEND
  
 Use, duplication or disclosure by the US Government is subject
 to restrictions as set forth in subparagraph (c)(1)(ii) of the
 Rights in Technical Data and Computer Software clause at DFARS
 252.227-7013.
  
 Gaussian, Inc.
 Carnegie Office Park, Building 6, Pittsburgh, PA 15106 USA
  
 The following legend is applicable only to US Government
 contracts under FAR:
  
                    RESTRICTED RIGHTS LEGEND
  
 Use, reproduction and disclosure by the US Government is subject
 to restrictions as set forth in subparagraph (c) of the
 Commercial Computer Software - Restricted Rights clause at FAR
 52.227-19.
  
 Gaussian, Inc.
 Carnegie Office Park, Building 6, Pittsburgh, PA 15106 USA
  
  
 ---------------------------------------------------------------
 Warning -- This program may not be used in any manner that
 competes with the business of Gaussian, Inc. or will provide
 assistance to any competitor of Gaussian, Inc.  The licensee
 of this program is prohibited from giving any competitor of
 Gaussian, Inc. access to this program.  By using this program,
 the user acknowledges that Gaussian, Inc. is engaged in the
 business of creating and licensing software in the field of
 computational chemistry and represents and warrants to the
 licensee that it is not a competitor of Gaussian, Inc. and that
 it will not use this program in any manner prohibited above.
 ---------------------------------------------------------------
  

 Cite this work as:
 Gaussian 03, Revision B.05,
 M. J. Frisch, G. W. Trucks, H. B. Schlegel, G. E. Scuseria, 
 M. A. Robb, J. R. Cheeseman, J. A. Montgomery, Jr., T. Vreven, 
 K. N. Kudin, J. C. Burant, J. M. Millam, S. S. Iyengar, J. Tomasi, 
 V. Barone, B. Mennucci, M. Cossi, G. Scalmani, N. Rega, 
 G. A. Petersson, H. Nakatsuji, M. Hada, M. Ehara, K. Toyota, 
 R. Fukuda, J. Hasegawa, M. Ishida, T. Nakajima, Y. Honda, O. Kitao, 
 H. Nakai, M. Klene, X. Li, J. E. Knox, H. P. Hratchian, J. B. Cross, 
 C. Adamo, J. Jaramillo, R. Gomperts, R. E. Stratmann, O. Yazyev, 
 A. J. Austin, R. Cammi, C. Pomelli, J. W. Ochterski, P. Y. Ayala, 
 K. Morokuma, G. A. Voth, P. Salvador, J. J. Dannenberg, 
 V. G. Zakrzewski, S. Dapprich, A. D. Daniels, M. C. Strain, 
 O. Farkas, D. K. Malick, A. D. Rabuck, K. Raghavachari, 
 J. B. Foresman, J. V. Ortiz, Q. Cui, A. G. Baboul, S. Clifford, 
 J. Cioslowski, B. B. Stefanov, G. Liu, A. Liashenko, P. Piskorz, 
 I. Komaromi, R. L. Martin, D. J. Fox, T. Keith, M. A. Al-Laham, 
 C. Y. Peng, A. Nanayakkara, M. Challacombe, P. M. W. Gill, 
 B. Johnson, W. Chen, M. W. Wong, C. Gonzalez, and J. A. Pople, 
 Gaussian, Inc., Pittsburgh PA, 2003.
 
 *************************************************
 Gaussian 03:  IBM64-RS6000-G03RevB.05  8-Nov-2003
                     7-Mar-2008 
 *************************************************
 %mem=24000000
 ---------------------
 #LSDA/3-21G* opt freq
 ---------------------
 1/14=-1,18=20,26=3,38=1/1,3;
 2/9=110,17=6,18=5,40=1/2;
 3/5=5,7=1,11=2,16=1,25=1,30=1,74=205/1,2,3;
 4//1;
 5/5=2,38=5/2;
 6/7=2,8=2,9=2,10=2,28=1/1;
 7//1,2,3,16;
 1/14=-1,18=20/3(1);
 99//99;
 2/9=110/2;
 3/5=5,7=1,11=2,16=1,25=1,30=1,74=205/1,2,3;
 4/5=5,16=3/1;
 5/5=2,38=5/2;
 7//1,2,3,16;
 1/14=-1,18=20/3(-5);
 2/9=110/2;
 6/7=2,8=2,9=2,10=2,19=2,28=1/1;
 99/9=1/99;
 -----------------------------------------------------------
 1hpyraz 1H-Pyrazole casno=288131 method=51 basis=8 config=1
 -----------------------------------------------------------
 Symbolic Z-matrix:
 Charge =  0 Multiplicity = 1
 H                     2.08045   0.72242   0. 
 C                     1.09639   0.3024    0. 
 H                     1.25554  -1.87978   0. 
 C                     0.66281  -0.9897    0. 
 H                    -1.47487  -1.65877   0. 
 C                    -0.74554  -0.87448   0. 
 N                    -1.12786   0.37057   0. 
 H                    -0.04808   2.06666   0. 
 N                     0.        1.07516   0. 
 

 GradGradGradGradGradGradGradGradGradGradGradGradGradGradGradGradGradGrad
 Berny optimization.
 Initialization pass.
                           ----------------------------
                           !    Initial Parameters    !
                           ! (Angstroms and Degrees)  !
 --------------------------                            --------------------------
 ! Name  Definition              Value          Derivative Info.                !
 --------------------------------------------------------------------------------
 ! R1    R(1,2)                  1.0699         estimate D2E/DX2                !
 ! R2    R(2,4)                  1.3629         estimate D2E/DX2                !
 ! R3    R(2,9)                  1.3414         estimate D2E/DX2                !
 ! R4    R(3,4)                  1.0694         estimate D2E/DX2                !
 ! R5    R(4,6)                  1.4131         estimate D2E/DX2                !
 ! R6    R(5,6)                  1.071          estimate D2E/DX2                !
 ! R7    R(6,7)                  1.3024         estimate D2E/DX2                !
 ! R8    R(7,9)                  1.3299         estimate D2E/DX2                !
 ! R9    R(8,9)                  0.9927         estimate D2E/DX2                !
 ! A1    A(1,2,4)              131.6638         estimate D2E/DX2                !
 ! A2    A(1,2,9)              121.709          estimate D2E/DX2                !
 ! A3    A(4,2,9)              106.6272         estimate D2E/DX2                !
 ! A4    A(2,4,3)              127.7894         estimate D2E/DX2                !
 ! A5    A(2,4,6)              103.8727         estimate D2E/DX2                !
 ! A6    A(3,4,6)              128.3379         estimate D2E/DX2                !
 ! A7    A(4,6,5)              128.2433         estimate D2E/DX2                !
 ! A8    A(4,6,7)              111.7472         estimate D2E/DX2                !
 ! A9    A(5,6,7)              120.0095         estimate D2E/DX2                !
 ! A10   A(6,7,9)              104.9237         estimate D2E/DX2                !
 ! A11   A(2,9,7)              112.8292         estimate D2E/DX2                !
 ! A12   A(2,9,8)              127.9532         estimate D2E/DX2                !
 ! A13   A(7,9,8)              119.2176         estimate D2E/DX2                !
 ! D1    D(1,2,4,3)              0.0            estimate D2E/DX2                !
 ! D2    D(1,2,4,6)            180.0            estimate D2E/DX2                !
 ! D3    D(9,2,4,3)            180.0            estimate D2E/DX2                !
 ! D4    D(9,2,4,6)              0.0            estimate D2E/DX2                !
 ! D5    D(1,2,9,7)            180.0            estimate D2E/DX2                !
 ! D6    D(1,2,9,8)              0.0            estimate D2E/DX2                !
 ! D7    D(4,2,9,7)              0.0            estimate D2E/DX2                !
 ! D8    D(4,2,9,8)            180.0            estimate D2E/DX2                !
 ! D9    D(2,4,6,5)            180.0            estimate D2E/DX2                !
 ! D10   D(2,4,6,7)              0.0            estimate D2E/DX2                !
 ! D11   D(3,4,6,5)              0.0            estimate D2E/DX2                !
 ! D12   D(3,4,6,7)            180.0            estimate D2E/DX2                !
 ! D13   D(4,6,7,9)              0.0            estimate D2E/DX2                !
 ! D14   D(5,6,7,9)            180.0            estimate D2E/DX2                !
 ! D15   D(6,7,9,2)              0.0            estimate D2E/DX2                !
 ! D16   D(6,7,9,8)            180.0            estimate D2E/DX2                !
 --------------------------------------------------------------------------------
 Trust Radius=3.00D-01 FncErr=1.00D-07 GrdErr=1.00D-06
 Number of steps in this run=  48 maximum allowed number of steps= 100.
 GradGradGradGradGradGradGradGradGradGradGradGradGradGradGradGradGradGrad

                          Input orientation:                          
 ---------------------------------------------------------------------
 Center     Atomic     Atomic              Coordinates (Angstroms)
 Number     Number      Type              X           Y           Z
 ---------------------------------------------------------------------
    1          1             0        2.080447     .722417     .000000
    2          6             0        1.096394     .302400     .000000
    3          1             0        1.255542   -1.879784     .000000
    4          6             0         .662812    -.989701     .000000
    5          1             0       -1.474873   -1.658768     .000000
    6          6             0        -.745544    -.874478     .000000
    7          7             0       -1.127859     .370571     .000000
    8          1             0        -.048078    2.066660     .000000
    9          7             0         .000000    1.075164     .000000
 ---------------------------------------------------------------------
                    Distance matrix (angstroms):
                    1          2          3          4          5
     1  H     .000000
     2  C    1.069941    .000000
     3  H    2.729820   2.187980    .000000
     4  C    2.222844   1.362908   1.069381    .000000
     5  H    4.279059   3.233820   2.739346   2.239944    .000000
     6  C    3.245967   2.185813   2.239416   1.413062   1.070996
     7  N    3.227541   2.225297   3.277911   2.248742   2.058795
     8  H    2.517461   2.102957   4.156182   3.137946   3.989305
     9  N    2.110140   1.341359   3.210624   2.168637   3.106386
                    6          7          8          9
     6  C     .000000
     7  N    1.302425    .000000
     8  H    3.022706   2.010633    .000000
     9  N    2.087328   1.329856    .992661    .000000
 Stoichiometry    C3H4N2
 Framework group  CS[SG(C3H4N2)]
 Deg. of freedom    15
 Full point group                 CS      NOp   2
 Largest Abelian subgroup         CS      NOp   2
 Largest concise Abelian subgroup C1      NOp   1
                         Standard orientation:                         
 ---------------------------------------------------------------------
 Center     Atomic     Atomic              Coordinates (Angstroms)
 Number     Number      Type              X           Y           Z
 ---------------------------------------------------------------------
    1          1             0        2.080447     .722417     .000000
    2          6             0        1.096394     .302400     .000000
    3          1             0        1.255542   -1.879784     .000000
    4          6             0         .662812    -.989701     .000000
    5          1             0       -1.474873   -1.658768     .000000
    6          6             0        -.745544    -.874478     .000000
    7          7             0       -1.127859     .370571     .000000
    8          1             0        -.048078    2.066660     .000000
    9          7             0         .000000    1.075164     .000000
 ---------------------------------------------------------------------
 Rotational constants (GHZ):      9.8799678      9.6409251      4.8794914
 Standard basis: 3-21G* (6D, 7F)
 There are    43 symmetry adapted basis functions of A'  symmetry.
 There are    10 symmetry adapted basis functions of A"  symmetry.
 Integral buffers will be    131072 words long.
 Raffenetti 2 integral format.
 Two-electron integral symmetry is turned on.
    53 basis functions,    87 primitive gaussians,    53 cartesian basis functions
    18 alpha electrons       18 beta electrons
       nuclear repulsion energy       164.9559149755 Hartrees.
 NAtoms=    9 NActive=    9 NUniq=    9 SFac= 1.00D+00 NAtFMM=   60 Big=F
 One-electron integrals computed using PRISM.
 NBasis=    53 RedAO= T  NBF=    43    10
 NBsUse=    53 1.00D-06 NBFU=    43    10
 Harris functional with IExCor=  205 diagonalized for initial guess.
 ExpMin= 1.83D-01 ExpMax= 2.43D+02 ExpMxC= 2.43D+02 IAcc=1 IRadAn=         1 AccDes= 1.00D-06
 HarFok:  IExCor= 205 AccDes= 1.00D-06 IRadAn=         1 IDoV=1
 ScaDFX=  1.000000  1.000000  1.000000  1.000000
 Initial guess orbital symmetries:
       Occupied  (A') (A') (A') (A') (A') (A') (A') (A') (A') (A')
                 (A') (A') (A') (A") (A') (A') (A") (A")
       Virtual   (A") (A") (A') (A') (A') (A') (A') (A') (A') (A')
                 (A') (A') (A") (A') (A") (A') (A") (A') (A') (A')
                 (A') (A') (A") (A') (A") (A') (A') (A') (A') (A')
                 (A') (A') (A') (A') (A')
 The electronic state of the initial guess is 1-A'.
 Requested convergence on RMS density matrix=1.00D-08 within 128 cycles.
 Requested convergence on MAX density matrix=1.00D-06.
 Requested convergence on             energy=1.00D-06.
 No special actions if energy rises.
 Keep R1 integrals in memory in canonical form, NReq=     2004664.
 Integral accuracy reduced to 1.0D-05 until final iterations.
 Initial convergence to 1.0D-05 achieved.  Increase integral accuracy.
 SCF Done:  E(RS-VWN) =  -223.708619448     A.U. after   16 cycles
             Convg  =     .5640D-08             -V/T =  2.0031
             S**2   =    .0000

 **********************************************************************

            Population analysis using the SCF density.

 **********************************************************************

 Orbital symmetries:
       Occupied  (A') (A') (A') (A') (A') (A') (A') (A') (A') (A')
                 (A') (A') (A") (A') (A') (A") (A") (A')
       Virtual   (A") (A") (A') (A') (A') (A') (A') (A') (A') (A')
                 (A') (A') (A") (A') (A') (A") (A") (A') (A') (A')
                 (A') (A') (A") (A') (A") (A') (A') (A') (A') (A')
                 (A') (A') (A') (A') (A')
 The electronic state is 1-A'.
 Alpha  occ. eigenvalues --  -13.87800 -13.80747  -9.76984  -9.74620  -9.72820
 Alpha  occ. eigenvalues --   -1.00937   -.77450   -.73150   -.57564   -.57015
 Alpha  occ. eigenvalues --    -.51203   -.42473   -.42119   -.40011   -.37519
 Alpha  occ. eigenvalues --    -.24838   -.23828   -.23417
 Alpha virt. eigenvalues --    -.01573    .02997    .05992    .11170    .13485
 Alpha virt. eigenvalues --     .15191    .18302    .20318    .28788    .39308
 Alpha virt. eigenvalues --     .41260    .61674    .64309    .67365    .68744
 Alpha virt. eigenvalues --     .69822    .74482    .75788    .85291    .88693
 Alpha virt. eigenvalues --     .92751    .95378    .99023   1.08334   1.10091
 Alpha virt. eigenvalues --    1.13826   1.16377   1.22889   1.31451   1.34348
 Alpha virt. eigenvalues --    1.53298   1.73362   1.75321   2.47599   2.67098
          Condensed to atoms (all electrons):
              1          2          3          4          5          6
     1  H     .451912    .367044   -.001028   -.023987   -.000033    .005645
     2  C     .367044   5.141843   -.037728    .498096    .003707   -.126227
     3  H    -.001028   -.037728    .473581    .377742   -.000834   -.019028
     4  C    -.023987    .498096    .377742   5.280597   -.046283    .392183
     5  H    -.000033    .003707   -.000834   -.046283    .469494    .388237
     6  C     .005645   -.126227   -.019028    .392183    .388237   5.069493
     7  N     .002538   -.144777    .003928   -.059775   -.043785    .446686
     8  H    -.000466   -.034009   -.000049    .004731   -.000075    .006641
     9  N    -.035866    .219575    .004179   -.058720    .004958   -.195451
              7          8          9
     1  H     .002538   -.000466   -.035866
     2  C    -.144777   -.034009    .219575
     3  H     .003928   -.000049    .004179
     4  C    -.059775    .004731   -.058720
     5  H    -.043785   -.000075    .004958
     6  C     .446686    .006641   -.195451
     7  N    6.822991   -.031178    .284232
     8  H    -.031178    .357592    .338710
     9  N     .284232    .338710   6.953429
 Mulliken atomic charges:
              1
     1  H     .234240
     2  C     .112474
     3  H     .199238
     4  C    -.364584
     5  H     .224615
     6  C     .031820
     7  N    -.280860
     8  H     .358103
     9  N    -.515047
 Sum of Mulliken charges=    .00000
 Atomic charges with hydrogens summed into heavy atoms:
              1
     1  H     .000000
     2  C     .346715
     3  H     .000000
     4  C    -.165347
     5  H     .000000
     6  C     .256436
     7  N    -.280860
     8  H     .000000
     9  N    -.156944
 Sum of Mulliken charges=    .00000
 Electronic spatial extent (au):  <R**2>=   280.3164
 Charge=      .0000 electrons
 Dipole moment (field-independent basis, Debye):
    X=     2.0313    Y=     1.1285    Z=      .0000  Tot=     2.3237
 Quadrupole moment (field-independent basis, Debye-Ang):
   XX=   -29.2994   YY=   -21.5655   ZZ=   -31.6606
   XY=     2.4088   XZ=      .0000   YZ=      .0000
 Traceless Quadrupole moment (field-independent basis, Debye-Ang):
   XX=    -1.7909   YY=     5.9430   ZZ=    -4.1521
   XY=     2.4088   XZ=      .0000   YZ=      .0000
 Octapole moment (field-independent basis, Debye-Ang**2):
  XXX=     8.2970  YYY=    12.6059  ZZZ=      .0000  XYY=      .3702
  XXY=    -2.1887  XXZ=      .0000  XZZ=    -1.4384  YZZ=     2.6232
  YYZ=      .0000  XYZ=      .0000
 Hexadecapole moment (field-independent basis, Debye-Ang**3):
 XXXX=  -164.1474 YYYY=  -123.6406 ZZZZ=   -29.7152 XXXY=     9.7702
 XXXZ=      .0000 YYYX=    -2.2554 YYYZ=      .0000 ZZZX=      .0000
 ZZZY=      .0000 XXYY=   -47.9388 XXZZ=   -35.8778 YYZZ=   -34.7753
 XXYZ=      .0000 YYXZ=      .0000 ZZXY=     -.4488
 N-N= 1.649559149755D+02 E-N=-8.525437052231D+02  KE= 2.230127671573D+02
 Symmetry A'   KE= 2.147776160959D+02
 Symmetry A"   KE= 8.235151061330D+00
 Calling FoFCou, ICntrl=  2527 FMM=F ISym2X=1 I1Cent= 0 ISCF1= 0.
 ***** Axes restored to original set *****
 -------------------------------------------------------------------
 Center     Atomic                   Forces (Hartrees/Bohr)
 Number     Number              X              Y              Z
 -------------------------------------------------------------------
    1          1            .011688322     .002307258     .000000000
    2          6            .020663222     .002643999     .000000000
    3          1            .005624283    -.008948020     .000000000
    4          6           -.008062281    -.008014500     .000000000
    5          1           -.006365465    -.009268976     .000000000
    6          6            .010838735    -.035954019     .000000000
    7          7           -.046007418     .020051431     .000000000
    8          1           -.000627854     .024438237     .000000000
    9          7            .012248455     .012744589     .000000000
 -------------------------------------------------------------------
 Cartesian Forces:  Max      .046007418 RMS      .014634115

 GradGradGradGradGradGradGradGradGradGradGradGradGradGradGradGradGradGrad
 Berny optimization.
 Internal  Forces:  Max      .042984998 RMS      .012409491
 Search for a local minimum.
 Step number   1 out of a maximum of  48
 All quantities printed in internal units (Hartrees-Bohrs-Radians)
 Second derivative matrix not updated -- first step.
     Eigenvalues ---     .02140    .02277    .02344    .02397    .02534
     Eigenvalues ---     .02554    .16000    .16000    .16000    .16000
     Eigenvalues ---     .22000    .22929    .37105    .37238    .37308
     Eigenvalues ---     .40394    .48796    .49002    .53148    .57511
     Eigenvalues ---     .639231000.000001000.000001000.000001000.00000
     Eigenvalues --- 1000.000001000.000001000.000001000.000001000.00000
     Eigenvalues --- 1000.000001000.000001000.000001000.000001000.00000
     Eigenvalues --- 1000.000001000.000001000.00000
 RFO step:  Lambda=-1.04094690D-02.
 Linear search not attempted -- first point.
 Iteration  1 RMS(Cart)=   .03114279 RMS(Int)=   .00013341
 Iteration  2 RMS(Cart)=   .00017051 RMS(Int)=   .00003407
 Iteration  3 RMS(Cart)=   .00000003 RMS(Int)=   .00003407
 Variable       Old X    -DE/DX   Delta X   Delta X   Delta X     New X
                                 (Linear)    (Quad)   (Total)
    R1        2.02190    .01166    .00000    .03045    .03045   2.05235
    R2        2.57552    .02382    .00000    .04071    .04069   2.61621
    R3        2.53480    .02663    .00000    .04691    .04695   2.58175
    R4        2.02084    .01057    .00000    .02755    .02755   2.04839
    R5        2.67030    .00849    .00000    .01534    .01527   2.68557
    R6        2.02389    .01112    .00000    .02916    .02916   2.05305
    R7        2.46123    .04298    .00000    .06509    .06507   2.52630
    R8        2.51306    .03872    .00000    .06780    .06786   2.58093
    R9        1.87586    .02444    .00000    .04884    .04884   1.92469
    A1        2.29797   -.00273    .00000   -.01172   -.01172   2.28624
    A2        2.12422    .00223    .00000    .01739    .01738   2.14160
    A3        1.86100    .00049    .00000   -.00567   -.00566   1.85534
    A4        2.23035   -.00426    .00000   -.00975   -.00970   2.22064
    A5        1.81292    .00906    .00000    .02264    .02255   1.83547
    A6        2.23992   -.00480    .00000   -.01289   -.01285   2.22707
    A7        2.23827   -.00122    .00000   -.00617   -.00614   2.23213
    A8        1.95036   -.00094    .00000   -.00743   -.00750   1.94286
    A9        2.09456    .00215    .00000    .01360    .01364   2.10820
   A10        1.83126   -.00501    .00000   -.00314   -.00308   1.82818
   A11        1.96924   -.00361    .00000   -.00640   -.00631   1.96293
   A12        2.23320    .00129    .00000    .00021    .00017   2.23337
   A13        2.08074    .00231    .00000    .00618    .00614   2.08688
    D1         .00000    .00000    .00000    .00000    .00000    .00000
    D2        3.14159    .00000    .00000    .00000    .00000   3.14159
    D3        3.14159    .00000    .00000    .00000    .00000   3.14159
    D4         .00000    .00000    .00000    .00000    .00000    .00000
    D5        3.14159    .00000    .00000    .00000    .00000   3.14159
    D6         .00000    .00000    .00000    .00000    .00000    .00000
    D7         .00000    .00000    .00000    .00000    .00000    .00000
    D8        3.14159    .00000    .00000    .00000    .00000   3.14159
    D9        3.14159    .00000    .00000    .00000    .00000   3.14159
   D10         .00000    .00000    .00000    .00000    .00000    .00000
   D11         .00000    .00000    .00000    .00000    .00000    .00000
   D12        3.14159    .00000    .00000    .00000    .00000   3.14159
   D13         .00000    .00000    .00000    .00000    .00000    .00000
   D14        3.14159    .00000    .00000    .00000    .00000   3.14159
   D15         .00000    .00000    .00000    .00000    .00000    .00000
   D16        3.14159    .00000    .00000    .00000    .00000   3.14159
         Item               Value     Threshold  Converged?
 Maximum Force             .042985      .000450     NO 
 RMS     Force             .012409      .000300     NO 
 Maximum Displacement      .103952      .001800     NO 
 RMS     Displacement      .031146      .001200     NO 
 Predicted change in Energy=-5.304630D-03
 GradGradGradGradGradGradGradGradGradGradGradGradGradGradGradGradGradGrad

                          Input orientation:                          
 ---------------------------------------------------------------------
 Center     Atomic     Atomic              Coordinates (Angstroms)
 Number     Number      Type              X           Y           Z
 ---------------------------------------------------------------------
    1          1             0        2.119737     .716823     .000000
    2          6             0        1.111846     .312261     .000000
    3          1             0        1.258894   -1.898175     .000000
    4          6             0         .658334    -.995789     .000000
    5          1             0       -1.484247   -1.707005     .000000
    6          6             0        -.759422    -.897715     .000000
    7          7             0       -1.158318     .378247     .000000
    8          1             0        -.046542    2.121669     .000000
    9          7             0        -.001441    1.104164     .000000
 ---------------------------------------------------------------------
                    Distance matrix (angstroms):
                    1          2          3          4          5
     1  H     .000000
     2  C    1.086055    .000000
     3  H    2.753046   2.215322    .000000
     4  C    2.251386   1.384438   1.083961    .000000
     5  H    4.343230   3.288941   2.749794   2.257539    .000000
     6  C    3.300952   2.228381   2.252669   1.421144   1.086427
     7  N    3.295494   2.271123   3.320393   2.277763   2.110570
     8  H    2.581929   2.148446   4.226501   3.196153   4.089712
     9  N    2.156254   1.366206   3.256146   2.201161   3.178268
                    6          7          8          9
     6  C     .000000
     7  N    1.336861    .000000
     8  H    3.102398   2.067744    .000000
     9  N    2.140573   1.365767   1.018504    .000000
 Stoichiometry    C3H4N2
 Framework group  CS[SG(C3H4N2)]
 Deg. of freedom    15
 Full point group                 CS      NOp   2
 Largest Abelian subgroup         CS      NOp   2
 Largest concise Abelian subgroup C1      NOp   1
                         Standard orientation:                         
 ---------------------------------------------------------------------
 Center     Atomic     Atomic              Coordinates (Angstroms)
 Number     Number      Type              X           Y           Z
 ---------------------------------------------------------------------
    1          1             0        2.122668     .721670     .000000
    2          6             0        1.116357     .313194     .000000
    3          1             0        1.271996   -1.896654     .000000
    4          6             0         .667933    -.996610     .000000
    5          1             0       -1.471868   -1.716148     .000000
    6          6             0        -.750193    -.904047     .000000
    7          7             0       -1.154046     .370355     .000000
    8          1             0        -.049055    2.118085     .000000
    9          7             0         .000000    1.100763     .000000
 ---------------------------------------------------------------------
 Rotational constants (GHZ):      9.4612420      9.3545373      4.7037935
 Standard basis: 3-21G* (6D, 7F)
 There are    43 symmetry adapted basis functions of A'  symmetry.
 There are    10 symmetry adapted basis functions of A"  symmetry.
 Integral buffers will be    131072 words long.
 Raffenetti 2 integral format.
 Two-electron integral symmetry is turned on.
    53 basis functions,    87 primitive gaussians,    53 cartesian basis functions
    18 alpha electrons       18 beta electrons
       nuclear repulsion energy       161.8831677495 Hartrees.
 NAtoms=    9 NActive=    9 NUniq=    9 SFac= 1.00D+00 NAtFMM=   60 Big=F
 One-electron integrals computed using PRISM.
 NBasis=    53 RedAO= T  NBF=    43    10
 NBsUse=    53 1.00D-06 NBFU=    43    10
 Initial guess read from the read-write file:
 Initial guess orbital symmetries:
       Occupied  (A') (A') (A') (A') (A') (A') (A') (A') (A') (A')
                 (A') (A') (A") (A') (A') (A") (A") (A')
       Virtual   (A") (A") (A') (A') (A') (A') (A') (A') (A') (A')
                 (A') (A') (A") (A') (A') (A") (A") (A') (A') (A')
                 (A') (A') (A") (A') (A") (A') (A') (A') (A') (A')
                 (A') (A') (A') (A') (A')
 Harris functional with IExCor=  205 diagonalized for initial guess.
 ExpMin= 1.83D-01 ExpMax= 2.43D+02 ExpMxC= 2.43D+02 IAcc=1 IRadAn=         1 AccDes= 1.00D-06
 HarFok:  IExCor= 205 AccDes= 1.00D-06 IRadAn=         1 IDoV=1
 ScaDFX=  1.000000  1.000000  1.000000  1.000000
 Requested convergence on RMS density matrix=1.00D-08 within 128 cycles.
 Requested convergence on MAX density matrix=1.00D-06.
 Requested convergence on             energy=1.00D-06.
 No special actions if energy rises.
 Keep R1 integrals in memory in canonical form, NReq=     2004664.
 Integral accuracy reduced to 1.0D-05 until final iterations.
 Initial convergence to 1.0D-05 achieved.  Increase integral accuracy.
 SCF Done:  E(RS-VWN) =  -223.714066518     A.U. after   14 cycles
             Convg  =     .8386D-08             -V/T =  2.0052
             S**2   =    .0000
 Calling FoFCou, ICntrl=  2527 FMM=F ISym2X=1 I1Cent= 0 ISCF1= 0.
 ***** Axes restored to original set *****
 -------------------------------------------------------------------
 Center     Atomic                   Forces (Hartrees/Bohr)
 Number     Number              X              Y              Z
 -------------------------------------------------------------------
    1          1            .000280551    -.000722281     .000000000
    2          6            .000706534    -.001522694     .000000000
    3          1            .000634622    -.000282362     .000000000
    4          6           -.004289524     .001413007     .000000000
    5          1           -.000369254     .000849004     .000000000
    6          6            .012482950    -.003368982     .000000000
    7          7           -.016707536     .004614171     .000000000
    8          1           -.001152030     .000409809     .000000000
    9          7            .008413687    -.001389673     .000000000
 -------------------------------------------------------------------
 Cartesian Forces:  Max      .016707536 RMS      .004582484

 GradGradGradGradGradGradGradGradGradGradGradGradGradGradGradGradGradGrad
 Berny optimization.
 Internal  Forces:  Max      .008026021 RMS      .002476720
 Search for a local minimum.
 Step number   2 out of a maximum of  48
 All quantities printed in internal units (Hartrees-Bohrs-Radians)
 Update second derivatives using D2CorX and points  1  2
 Trust test= 1.03D+00 RLast= 1.40D-01 DXMaxT set to 4.19D-01
     Eigenvalues ---     .02144    .02279    .02343    .02397    .02532
     Eigenvalues ---     .02555    .15892    .16000    .16000    .16092
     Eigenvalues ---     .21867    .22981    .37113    .37181    .37323
     Eigenvalues ---     .39992    .47085    .50243    .54532    .55767
     Eigenvalues ---     .627861000.000001000.000001000.000001000.00000
     Eigenvalues --- 1000.000001000.000001000.000001000.000001000.00000
     Eigenvalues --- 1000.000001000.000001000.000001000.000001000.00000
     Eigenvalues --- 1000.000001000.000001000.00000
 RFO step:  Lambda=-7.19655905D-04.
 Quartic linear search produced a step of   .08904.
 Iteration  1 RMS(Cart)=   .00799979 RMS(Int)=   .00008697
 Iteration  2 RMS(Cart)=   .00010107 RMS(Int)=   .00003786
 Iteration  3 RMS(Cart)=   .00000000 RMS(Int)=   .00003786
 Variable       Old X    -DE/DX   Delta X   Delta X   Delta X     New X
                                 (Linear)    (Quad)   (Total)
    R1        2.05235   -.00001    .00271   -.00034    .00237   2.05471
    R2        2.61621   -.00285    .00362   -.00785   -.00430   2.61191
    R3        2.58175    .00093    .00418    .00140    .00555   2.58731
    R4        2.04839    .00059    .00245    .00142    .00388   2.05227
    R5        2.68557   -.00409    .00136   -.01165   -.01030   2.67527
    R6        2.05305   -.00039    .00260   -.00143    .00116   2.05421
    R7        2.52630    .00638    .00579    .01006    .01591   2.54221
    R8        2.58093    .00725    .00604    .01365    .01974   2.60066
    R9        1.92469    .00046    .00435    .00040    .00475   1.92945
    A1        2.28624   -.00076   -.00104   -.00329   -.00428   2.28196
    A2        2.14160    .00081    .00155    .00736    .00895   2.15056
    A3        1.85534   -.00005   -.00050   -.00407   -.00467   1.85067
    A4        2.22064   -.00082   -.00086   -.00138   -.00220   2.21844
    A5        1.83547    .00086    .00201   -.00256   -.00064   1.83483
    A6        2.22707   -.00004   -.00114    .00394    .00284   2.22992
    A7        2.23213   -.00149   -.00055   -.00496   -.00552   2.22660
    A8        1.94286    .00468   -.00067    .02142    .02078   1.96364
    A9        2.10820   -.00319    .00121   -.01645   -.01525   2.09294
   A10        1.82818   -.00803   -.00027   -.02978   -.02992   1.79826
   A11        1.96293    .00254   -.00056    .01500    .01445   1.97738
   A12        2.23337   -.00017    .00002   -.00004   -.00003   2.23335
   A13        2.08688   -.00237    .00055   -.01497   -.01443   2.07245
    D1         .00000    .00000    .00000    .00000    .00000    .00000
    D2        3.14159    .00000    .00000    .00000    .00000   3.14159
    D3        3.14159    .00000    .00000    .00000    .00000   3.14159
    D4         .00000    .00000    .00000    .00000    .00000    .00000
    D5        3.14159    .00000    .00000    .00000    .00000   3.14159
    D6         .00000    .00000    .00000    .00000    .00000    .00000
    D7         .00000    .00000    .00000    .00000    .00000    .00000
    D8        3.14159    .00000    .00000    .00000    .00000   3.14159
    D9        3.14159    .00000    .00000    .00000    .00000   3.14159
   D10         .00000    .00000    .00000    .00000    .00000    .00000
   D11         .00000    .00000    .00000    .00000    .00000    .00000
   D12        3.14159    .00000    .00000    .00000    .00000   3.14159
   D13         .00000    .00000    .00000    .00000    .00000    .00000
   D14        3.14159    .00000    .00000    .00000    .00000   3.14159
   D15         .00000    .00000    .00000    .00000    .00000    .00000
   D16        3.14159    .00000    .00000    .00000    .00000   3.14159
         Item               Value     Threshold  Converged?
 Maximum Force             .008026      .000450     NO 
 RMS     Force             .002477      .000300     NO 
 Maximum Displacement      .036286      .001800     NO 
 RMS     Displacement      .008016      .001200     NO 
 Predicted change in Energy=-3.877444D-04
 GradGradGradGradGradGradGradGradGradGradGradGradGradGradGradGradGradGrad

                          Input orientation:                          
 ---------------------------------------------------------------------
 Center     Atomic     Atomic              Coordinates (Angstroms)
 Number     Number      Type              X           Y           Z
 ---------------------------------------------------------------------
    1          1             0        2.126223     .708572     .000000
    2          6             0        1.114516     .310218     .000000
    3          1             0        1.260306   -1.898794     .000000
    4          6             0         .658719    -.994629     .000000
    5          1             0       -1.476464   -1.704350     .000000
    6          6             0        -.753303    -.892746     .000000
    7          7             0       -1.177520     .383897     .000000
    8          1             0        -.050608    2.121112     .000000
    9          7             0        -.003028    1.101202     .000000
 ---------------------------------------------------------------------
                    Distance matrix (angstroms):
                    1          2          3          4          5
     1  H     .000000
     2  C    1.087307    .000000
     3  H    2.747394   2.213818    .000000
     4  C    2.248214   1.382164   1.086012    .000000
     5  H    4.336075   3.282021   2.743669   2.250047    .000000
     6  C    3.294828   2.221682   2.250945   1.415693   1.087043
     7  N    3.319659   2.293220   3.339712   2.296107   2.109536
     8  H    2.594969   2.153334   4.228255   3.195463   4.082551
     9  N    2.165148   1.369145   3.255148   2.197821   3.168933
                    6          7          8          9
     6  C     .000000
     7  N    1.345280    .000000
     8  H    3.094692   2.070711    .000000
     9  N    2.130432   1.376212   1.021019    .000000
 Stoichiometry    C3H4N2
 Framework group  CS[SG(C3H4N2)]
 Deg. of freedom    15
 Full point group                 CS      NOp   2
 Largest Abelian subgroup         CS      NOp   2
 Largest concise Abelian subgroup C1      NOp   1
                         Standard orientation:                         
 ---------------------------------------------------------------------
 Center     Atomic     Atomic              Coordinates (Angstroms)
 Number     Number      Type              X           Y           Z
 ---------------------------------------------------------------------
    1          1             0        2.130978     .713642     .000000
    2          6             0        1.121054     .310788     .000000
    3          1             0        1.276678   -1.897554     .000000
    4          6             0         .671071    -.996076     .000000
    5          1             0       -1.460931   -1.715296     .000000
    6          6             0        -.741390    -.900481     .000000
    7          7             0       -1.171287     .374261     .000000
    8          1             0        -.052121    2.116476     .000000
    9          7             0         .000000    1.096788     .000000
 ---------------------------------------------------------------------
 Rotational constants (GHZ):      9.5197155      9.2323272      4.6869096
 Standard basis: 3-21G* (6D, 7F)
 There are    43 symmetry adapted basis functions of A'  symmetry.
 There are    10 symmetry adapted basis functions of A"  symmetry.
 Integral buffers will be    131072 words long.
 Raffenetti 2 integral format.
 Two-electron integral symmetry is turned on.
    53 basis functions,    87 primitive gaussians,    53 cartesian basis functions
    18 alpha electrons       18 beta electrons
       nuclear repulsion energy       161.5656616560 Hartrees.
 NAtoms=    9 NActive=    9 NUniq=    9 SFac= 1.00D+00 NAtFMM=   60 Big=F
 One-electron integrals computed using PRISM.
 NBasis=    53 RedAO= T  NBF=    43    10
 NBsUse=    53 1.00D-06 NBFU=    43    10
 Initial guess read from the read-write file:
 Initial guess orbital symmetries:
       Occupied  (A') (A') (A') (A') (A') (A') (A') (A') (A') (A')
                 (A') (A') (A") (A') (A') (A") (A') (A")
       Virtual   (A") (A") (A') (A') (A') (A') (A') (A') (A') (A')
                 (A') (A') (A") (A') (A') (A") (A") (A') (A') (A')
                 (A') (A') (A") (A') (A") (A') (A') (A') (A') (A')
                 (A') (A') (A') (A') (A')
 Harris functional with IExCor=  205 diagonalized for initial guess.
 ExpMin= 1.83D-01 ExpMax= 2.43D+02 ExpMxC= 2.43D+02 IAcc=1 IRadAn=         1 AccDes= 1.00D-06
 HarFok:  IExCor= 205 AccDes= 1.00D-06 IRadAn=         1 IDoV=1
 ScaDFX=  1.000000  1.000000  1.000000  1.000000
 Requested convergence on RMS density matrix=1.00D-08 within 128 cycles.
 Requested convergence on MAX density matrix=1.00D-06.
 Requested convergence on             energy=1.00D-06.
 No special actions if energy rises.
 Keep R1 integrals in memory in canonical form, NReq=     2004664.
 Integral accuracy reduced to 1.0D-05 until final iterations.
 Initial convergence to 1.0D-05 achieved.  Increase integral accuracy.
 SCF Done:  E(RS-VWN) =  -223.714397902     A.U. after   13 cycles
             Convg  =     .7104D-08             -V/T =  2.0053
             S**2   =    .0000
 Calling FoFCou, ICntrl=  2527 FMM=F ISym2X=1 I1Cent= 0 ISCF1= 0.
 ***** Axes restored to original set *****
 -------------------------------------------------------------------
 Center     Atomic                   Forces (Hartrees/Bohr)
 Number     Number              X              Y              Z
 -------------------------------------------------------------------
    1          1           -.000993602    -.000040183     .000000000
    2          6           -.003310919     .001962473     .000000000
    3          1           -.000660228     .000657504     .000000000
    4          6           -.003146111    -.000082072     .000000000
    5          1           -.000009468     .000526144     .000000000
    6          6            .001810997    -.004687168     .000000000
    7          7           -.000280563    -.001990802     .000000000
    8          1           -.000029463    -.001379778     .000000000
    9          7            .006619358     .005033882     .000000000
 -------------------------------------------------------------------
 Cartesian Forces:  Max      .006619358 RMS      .002170544

 GradGradGradGradGradGradGradGradGradGradGradGradGradGradGradGradGradGrad
 Berny optimization.
 Internal  Forces:  Max      .004036610 RMS      .001433691
 Search for a local minimum.
 Step number   3 out of a maximum of  48
 All quantities printed in internal units (Hartrees-Bohrs-Radians)
 Update second derivatives using D2CorX and points  1  2  3
 Trust test= 8.55D-01 RLast= 5.46D-02 DXMaxT set to 4.19D-01
     Eigenvalues ---     .02143    .02278    .02340    .02397    .02532
     Eigenvalues ---     .02553    .15492    .16000    .16011    .16083
     Eigenvalues ---     .22076    .27098    .34160    .37217    .37344
     Eigenvalues ---     .38281    .45475    .49798    .55590    .58068
     Eigenvalues ---     .657701000.000001000.000001000.000001000.00000
     Eigenvalues --- 1000.000001000.000001000.000001000.000001000.00000
     Eigenvalues --- 1000.000001000.000001000.000001000.000001000.00000
     Eigenvalues --- 1000.000001000.000001000.00000
 RFO step:  Lambda=-1.55362791D-04.
 Quartic linear search produced a step of  -.13404.
 Iteration  1 RMS(Cart)=   .00338686 RMS(Int)=   .00001068
 Iteration  2 RMS(Cart)=   .00000688 RMS(Int)=   .00000860
 Iteration  3 RMS(Cart)=   .00000000 RMS(Int)=   .00000860
 Variable       Old X    -DE/DX   Delta X   Delta X   Delta X     New X
                                 (Linear)    (Quad)   (Total)
    R1        2.05471   -.00094   -.00032   -.00139   -.00171   2.05301
    R2        2.61191    .00186    .00058    .00135    .00194   2.61385
    R3        2.58731   -.00404   -.00074   -.00441   -.00514   2.58217
    R4        2.05227   -.00091   -.00052   -.00083   -.00135   2.05091
    R5        2.67527   -.00343    .00138   -.01043   -.00905   2.66622
    R6        2.05421   -.00039   -.00016   -.00048   -.00063   2.05358
    R7        2.54221    .00126   -.00213    .00730    .00515   2.54736
    R8        2.60066    .00347   -.00265    .01206    .00940   2.61007
    R9        1.92945   -.00138   -.00064   -.00081   -.00145   1.92800
    A1        2.28196   -.00043    .00057   -.00196   -.00140   2.28056
    A2        2.15056   -.00112   -.00120   -.00147   -.00268   2.14788
    A3        1.85067    .00155    .00063    .00343    .00408   1.85475
    A4        2.21844   -.00046    .00030   -.00163   -.00134   2.21710
    A5        1.83483    .00128    .00009    .00358    .00368   1.83851
    A6        2.22992   -.00082   -.00038   -.00195   -.00234   2.22758
    A7        2.22660    .00143    .00074    .00417    .00492   2.23152
    A8        1.96364   -.00216   -.00278   -.00129   -.00408   1.95955
    A9        2.09294    .00072    .00204   -.00289   -.00084   2.09211
   A10        1.79826    .00207    .00401   -.00008    .00390   1.80216
   A11        1.97738   -.00275   -.00194   -.00564   -.00757   1.96981
   A12        2.23335    .00148    .00000    .00573    .00573   2.23907
   A13        2.07245    .00127    .00193   -.00008    .00185   2.07430
    D1         .00000    .00000    .00000    .00000    .00000    .00000
    D2        3.14159    .00000    .00000    .00000    .00000   3.14159
    D3        3.14159    .00000    .00000    .00000    .00000   3.14159
    D4         .00000    .00000    .00000    .00000    .00000    .00000
    D5        3.14159    .00000    .00000    .00000    .00000   3.14159
    D6         .00000    .00000    .00000    .00000    .00000    .00000
    D7         .00000    .00000    .00000    .00000    .00000    .00000
    D8        3.14159    .00000    .00000    .00000    .00000   3.14159
    D9        3.14159    .00000    .00000    .00000    .00000   3.14159
   D10         .00000    .00000    .00000    .00000    .00000    .00000
   D11         .00000    .00000    .00000    .00000    .00000    .00000
   D12        3.14159    .00000    .00000    .00000    .00000   3.14159
   D13         .00000    .00000    .00000    .00000    .00000    .00000
   D14        3.14159    .00000    .00000    .00000    .00000   3.14159
   D15         .00000    .00000    .00000    .00000    .00000    .00000
   D16        3.14159    .00000    .00000    .00000    .00000   3.14159
         Item               Value     Threshold  Converged?
 Maximum Force             .004037      .000450     NO 
 RMS     Force             .001434      .000300     NO 
 Maximum Displacement      .009036      .001800     NO 
 RMS     Displacement      .003389      .001200     NO 
 Predicted change in Energy=-8.589462D-05
 GradGradGradGradGradGradGradGradGradGradGradGradGradGradGradGradGradGrad

                          Input orientation:                          
 ---------------------------------------------------------------------
 Center     Atomic     Atomic              Coordinates (Angstroms)
 Number     Number      Type              X           Y           Z
 ---------------------------------------------------------------------
    1          1             0        2.123945     .707637     .000000
    2          6             0        1.112398     .311345     .000000
    3          1             0        1.257974   -1.897276     .000000
    4          6             0         .655854    -.994327     .000000
    5          1             0       -1.475923   -1.707758     .000000
    6          6             0        -.751727    -.897528     .000000
    7          7             0       -1.175888     .382007     .000000
    8          1             0        -.048348    2.124731     .000000
    9          7             0         .000555    1.105650     .000000
 ---------------------------------------------------------------------
                    Distance matrix (angstroms):
                    1          2          3          4          5
     1  H     .000000
     2  C    1.086405    .000000
     3  H    2.745083   2.213414    .000000
     4  C    2.247659   1.383189   1.085296    .000000
     5  H    4.335111   3.282709   2.740458   2.247990    .000000
     6  C    3.293333   2.221786   2.244636   1.410905   1.086707
     7  N    3.315861   2.289376   3.334488   2.291194   2.111193
     8  H    2.593648   2.153067   4.228831   3.197564   4.089736
     9  N    2.160370   1.366424   3.255559   2.199845   3.177302
                    6          7          8          9
     6  C     .000000
     7  N    1.348006    .000000
     8  H    3.103029   2.075677    .000000
     9  N    2.139778   1.381187   1.020253    .000000
 Stoichiometry    C3H4N2
 Framework group  CS[SG(C3H4N2)]
 Deg. of freedom    15
 Full point group                 CS      NOp   2
 Largest Abelian subgroup         CS      NOp   2
 Largest concise Abelian subgroup C1      NOp   1
                         Standard orientation:                         
 ---------------------------------------------------------------------
 Center     Atomic     Atomic              Coordinates (Angstroms)
 Number     Number      Type              X           Y           Z
 ---------------------------------------------------------------------
    1          1             0        2.126250     .718852     .000000
    2          6             0        1.117633     .315158     .000000
    3          1             0        1.279389   -1.892337     .000000
    4          6             0         .670669    -.993824     .000000
    5          1             0       -1.455823   -1.722857     .000000
    6          6             0        -.737583    -.907342     .000000
    7          7             0       -1.171109     .369049     .000000
    8          1             0        -.056369    2.119989     .000000
    9          7             0         .000000    1.101294     .000000
 ---------------------------------------------------------------------
 Rotational constants (GHZ):      9.4660943      9.2762174      4.6850970
 Standard basis: 3-21G* (6D, 7F)
 There are    43 symmetry adapted basis functions of A'  symmetry.
 There are    10 symmetry adapted basis functions of A"  symmetry.
 Integral buffers will be    131072 words long.
 Raffenetti 2 integral format.
 Two-electron integral symmetry is turned on.
    53 basis functions,    87 primitive gaussians,    53 cartesian basis functions
    18 alpha electrons       18 beta electrons
       nuclear repulsion energy       161.5229643829 Hartrees.
 NAtoms=    9 NActive=    9 NUniq=    9 SFac= 1.00D+00 NAtFMM=   60 Big=F
 One-electron integrals computed using PRISM.
 NBasis=    53 RedAO= T  NBF=    43    10
 NBsUse=    53 1.00D-06 NBFU=    43    10
 Initial guess read from the read-write file:
 Initial guess orbital symmetries:
       Occupied  (A') (A') (A') (A') (A') (A') (A') (A') (A') (A')
                 (A') (A') (A") (A') (A') (A") (A') (A")
       Virtual   (A") (A") (A') (A') (A') (A') (A') (A') (A') (A')
                 (A') (A') (A") (A') (A') (A") (A") (A') (A') (A')
                 (A') (A') (A") (A') (A") (A') (A') (A') (A') (A')
                 (A') (A') (A') (A') (A')
 Requested convergence on RMS density matrix=1.00D-08 within 128 cycles.
 Requested convergence on MAX density matrix=1.00D-06.
 Requested convergence on             energy=1.00D-06.
 No special actions if energy rises.
 Keep R1 integrals in memory in canonical form, NReq=     2004664.
 EnCoef did     2 forward-backward iterations
 SCF Done:  E(RS-VWN) =  -223.714488506     A.U. after    9 cycles
             Convg  =     .9372D-08             -V/T =  2.0053
             S**2   =    .0000
 Calling FoFCou, ICntrl=  2527 FMM=F ISym2X=1 I1Cent= 0 ISCF1= 0.
 ***** Axes restored to original set *****
 -------------------------------------------------------------------
 Center     Atomic                   Forces (Hartrees/Bohr)
 Number     Number              X              Y              Z
 -------------------------------------------------------------------
    1          1           -.000189710    -.000084199     .000000000
    2          6           -.001562564     .001195052     .000000000
    3          1           -.000082612     .000316313     .000000000
    4          6            .000056969    -.000189950     .000000000
    5          1           -.000121211     .000442528     .000000000
    6          6            .000201469     .000483377     .000000000
    7          7           -.000551356    -.000835113     .000000000
    8          1           -.000210842    -.000917207     .000000000
    9          7            .002459858    -.000410801     .000000000
 -------------------------------------------------------------------
 Cartesian Forces:  Max      .002459858 RMS      .000684500

 GradGradGradGradGradGradGradGradGradGradGradGradGradGradGradGradGradGrad
 Berny optimization.
 Internal  Forces:  Max      .002043303 RMS      .000429740
 Search for a local minimum.
 Step number   4 out of a maximum of  48
 All quantities printed in internal units (Hartrees-Bohrs-Radians)
 Update second derivatives using D2CorX and points  1  2  3  4
 Trust test= 1.05D+00 RLast= 2.08D-02 DXMaxT set to 4.19D-01
     Eigenvalues ---     .02142    .02277    .02342    .02397    .02532
     Eigenvalues ---     .02553    .14275    .16002    .16007    .16035
     Eigenvalues ---     .22090    .26903    .36940    .37287    .37448
     Eigenvalues ---     .39055    .44851    .49109    .53592    .56682
     Eigenvalues ---     .647691000.000001000.000001000.000001000.00000
     Eigenvalues --- 1000.000001000.000001000.000001000.000001000.00000
     Eigenvalues --- 1000.000001000.000001000.000001000.000001000.00000
     Eigenvalues --- 1000.000001000.000001000.00000
 RFO step:  Lambda=-1.52337205D-05.
 Quartic linear search produced a step of   .07240.
 Iteration  1 RMS(Cart)=   .00117579 RMS(Int)=   .00000116
 Iteration  2 RMS(Cart)=   .00000119 RMS(Int)=   .00000022
 Iteration  3 RMS(Cart)=   .00000000 RMS(Int)=   .00000022
 Variable       Old X    -DE/DX   Delta X   Delta X   Delta X     New X
                                 (Linear)    (Quad)   (Total)
    R1        2.05301   -.00021   -.00012   -.00043   -.00056   2.05245
    R2        2.61385   -.00013    .00014   -.00010    .00004   2.61388
    R3        2.58217   -.00204   -.00037   -.00373   -.00410   2.57806
    R4        2.05091   -.00031   -.00010   -.00072   -.00082   2.05009
    R5        2.66622   -.00014   -.00066   -.00028   -.00094   2.66528
    R6        2.05358   -.00025   -.00005   -.00056   -.00060   2.05298
    R7        2.54736   -.00091    .00037   -.00090   -.00052   2.54684
    R8        2.61007    .00045    .00068    .00133    .00201   2.61208
    R9        1.92800   -.00091   -.00010   -.00171   -.00181   1.92619
    A1        2.28056   -.00004   -.00010   -.00015   -.00025   2.28031
    A2        2.14788   -.00005   -.00019    .00011   -.00009   2.14779
    A3        1.85475    .00009    .00030    .00004    .00033   1.85509
    A4        2.21710   -.00005   -.00010   -.00065   -.00075   2.21635
    A5        1.83851   -.00013    .00027   -.00030   -.00003   1.83848
    A6        2.22758    .00019   -.00017    .00095    .00078   2.22836
    A7        2.23152    .00039    .00036    .00235    .00270   2.23423
    A8        1.95955   -.00001   -.00030    .00044    .00015   1.95970
    A9        2.09211   -.00038   -.00006   -.00279   -.00285   2.08926
   A10        1.80216   -.00029    .00028   -.00135   -.00107   1.80108
   A11        1.96981    .00034   -.00055    .00117    .00062   1.97043
   A12        2.23907    .00009    .00041    .00118    .00160   2.24067
   A13        2.07430   -.00043    .00013   -.00235   -.00222   2.07208
    D1         .00000    .00000    .00000    .00000    .00000    .00000
    D2        3.14159    .00000    .00000    .00000    .00000   3.14159
    D3        3.14159    .00000    .00000    .00000    .00000   3.14159
    D4         .00000    .00000    .00000    .00000    .00000    .00000
    D5        3.14159    .00000    .00000    .00000    .00000   3.14159
    D6         .00000    .00000    .00000    .00000    .00000    .00000
    D7         .00000    .00000    .00000    .00000    .00000    .00000
    D8        3.14159    .00000    .00000    .00000    .00000   3.14159
    D9        3.14159    .00000    .00000    .00000    .00000   3.14159
   D10         .00000    .00000    .00000    .00000    .00000    .00000
   D11         .00000    .00000    .00000    .00000    .00000    .00000
   D12        3.14159    .00000    .00000    .00000    .00000   3.14159
   D13         .00000    .00000    .00000    .00000    .00000    .00000
   D14        3.14159    .00000    .00000    .00000    .00000   3.14159
   D15         .00000    .00000    .00000    .00000    .00000    .00000
   D16        3.14159    .00000    .00000    .00000    .00000   3.14159
         Item               Value     Threshold  Converged?
 Maximum Force             .002043      .000450     NO 
 RMS     Force             .000430      .000300     NO 
 Maximum Displacement      .003641      .001800     NO 
 RMS     Displacement      .001176      .001200     YES
 Predicted change in Energy=-7.980477D-06
 GradGradGradGradGradGradGradGradGradGradGradGradGradGradGradGradGradGrad

                          Input orientation:                          
 ---------------------------------------------------------------------
 Center     Atomic     Atomic              Coordinates (Angstroms)
 Number     Number      Type              X           Y           Z
 ---------------------------------------------------------------------
    1          1             0        2.123247     .707922     .000000
    2          6             0        1.111996     .311682     .000000
    3          1             0        1.258676   -1.896100     .000000
    4          6             0         .655844    -.994147     .000000
    5          1             0       -1.477216   -1.705998     .000000
    6          6             0        -.751267    -.897767     .000000
    7          7             0       -1.175877     .381327     .000000
    8          1             0        -.048508    2.122804     .000000
    9          7             0         .001945    1.104758     .000000
 ---------------------------------------------------------------------
                    Distance matrix (angstroms):
                    1          2          3          4          5
     1  H     .000000
     2  C    1.086110    .000000
     3  H    2.743796   2.212649    .000000
     4  C    2.247290   1.383208   1.084862    .000000
     5  H    4.334783   3.282538   2.742489   2.248706    .000000
     6  C    3.292578   2.221377   2.244224   1.410408   1.086388
     7  N    3.315250   2.288933   3.333725   2.290661   2.108964
     8  H    2.591990   2.151031   4.226147   3.195543   4.086677
     9  N    2.158102   1.364252   3.253386   2.198405   3.176203
                    6          7          8          9
     6  C     .000000
     7  N    1.347729    .000000
     8  H    3.101245   2.074537    .000000
     9  N    2.139494   1.382251   1.019296    .000000
 Stoichiometry    C3H4N2
 Framework group  CS[SG(C3H4N2)]
 Deg. of freedom    15
 Full point group                 CS      NOp   2
 Largest Abelian subgroup         CS      NOp   2
 Largest concise Abelian subgroup C1      NOp   1
                         Standard orientation:                         
 ---------------------------------------------------------------------
 Center     Atomic     Atomic              Coordinates (Angstroms)
 Number     Number      Type              X           Y           Z
 ---------------------------------------------------------------------
    1          1             0        2.124552     .721582     .000000
    2          6             0        1.116656     .316885     .000000
    3          1             0        1.281824   -1.889591     .000000
    4          6             0         .671458    -.992719     .000000
    5          1             0       -1.455565   -1.722413     .000000
    6          6             0        -.736411    -.908129     .000000
    7          7             0       -1.171721     .367363     .000000
    8          1             0        -.058980    2.118222     .000000
    9          7             0         .000000    1.100635     .000000
 ---------------------------------------------------------------------
 Rotational constants (GHZ):      9.4717632      9.2818203      4.6879149
 Standard basis: 3-21G* (6D, 7F)
 There are    43 symmetry adapted basis functions of A'  symmetry.
 There are    10 symmetry adapted basis functions of A"  symmetry.
 Integral buffers will be    131072 words long.
 Raffenetti 2 integral format.
 Two-electron integral symmetry is turned on.
    53 basis functions,    87 primitive gaussians,    53 cartesian basis functions
    18 alpha electrons       18 beta electrons
       nuclear repulsion energy       161.5722601542 Hartrees.
 NAtoms=    9 NActive=    9 NUniq=    9 SFac= 1.00D+00 NAtFMM=   60 Big=F
 One-electron integrals computed using PRISM.
 NBasis=    53 RedAO= T  NBF=    43    10
 NBsUse=    53 1.00D-06 NBFU=    43    10
 Initial guess read from the read-write file:
 Initial guess orbital symmetries:
       Occupied  (A') (A') (A') (A') (A') (A') (A') (A') (A') (A')
                 (A') (A') (A") (A') (A') (A") (A') (A")
       Virtual   (A") (A") (A') (A') (A') (A') (A') (A') (A') (A')
                 (A') (A') (A") (A') (A') (A") (A") (A') (A') (A')
                 (A') (A') (A") (A') (A") (A') (A') (A') (A') (A')
                 (A') (A') (A') (A') (A')
 Requested convergence on RMS density matrix=1.00D-08 within 128 cycles.
 Requested convergence on MAX density matrix=1.00D-06.
 Requested convergence on             energy=1.00D-06.
 No special actions if energy rises.
 Keep R1 integrals in memory in canonical form, NReq=     2004664.
 SCF Done:  E(RS-VWN) =  -223.714498066     A.U. after    9 cycles
             Convg  =     .5638D-08             -V/T =  2.0053
             S**2   =    .0000
 Calling FoFCou, ICntrl=  2527 FMM=F ISym2X=1 I1Cent= 0 ISCF1= 0.
 ***** Axes restored to original set *****
 -------------------------------------------------------------------
 Center     Atomic                   Forces (Hartrees/Bohr)
 Number     Number              X              Y              Z
 -------------------------------------------------------------------
    1          1            .000030355    -.000070281     .000000000
    2          6           -.000688456     .000432975     .000000000
    3          1            .000034580     .000027733     .000000000
    4          6            .000290221    -.000368950     .000000000
    5          1           -.000054601     .000073566     .000000000
    6          6           -.000114205     .000491199     .000000000
    7          7           -.000073694    -.000321831     .000000000
    8          1           -.000093259    -.000107808     .000000000
    9          7            .000669061    -.000156603     .000000000
 -------------------------------------------------------------------
 Cartesian Forces:  Max      .000688456 RMS      .000254865

 GradGradGradGradGradGradGradGradGradGradGradGradGradGradGradGradGradGrad
 Berny optimization.
 Internal  Forces:  Max      .000518323 RMS      .000128005
 Search for a local minimum.
 Step number   5 out of a maximum of  48
 All quantities printed in internal units (Hartrees-Bohrs-Radians)
 Update second derivatives using D2CorX and points  1  2  3  4  5

 Trust test= 1.20D+00 RLast= 7.24D-03 DXMaxT set to 4.19D-01
     Eigenvalues ---     .02141    .02276    .02342    .02397    .02532
     Eigenvalues ---     .02552    .12365    .15990    .16010    .16214
     Eigenvalues ---     .22111    .27895    .36837    .37265    .37328
     Eigenvalues ---     .40912    .42657    .49336    .51004    .57412
     Eigenvalues ---     .610991000.000001000.000001000.000001000.00000
     Eigenvalues --- 1000.000001000.000001000.000001000.000001000.00000
     Eigenvalues --- 1000.000001000.000001000.000001000.000001000.00000
     Eigenvalues --- 1000.000001000.000001000.00000
 RFO step:  Lambda=-1.35202272D-06.
 Quartic linear search produced a step of   .34555.
 Iteration  1 RMS(Cart)=   .00064155 RMS(Int)=   .00000036
 Iteration  2 RMS(Cart)=   .00000042 RMS(Int)=   .00000007
 Variable       Old X    -DE/DX   Delta X   Delta X   Delta X     New X
                                 (Linear)    (Quad)   (Total)
    R1        2.05245    .00000   -.00019    .00011   -.00008   2.05237
    R2        2.61388    .00007    .00001    .00030    .00032   2.61420
    R3        2.57806   -.00052   -.00142   -.00036   -.00178   2.57628
    R4        2.05009    .00000   -.00028    .00017   -.00012   2.04998
    R5        2.66528    .00016   -.00032    .00048    .00016   2.66544
    R6        2.05298   -.00002   -.00021    .00009   -.00012   2.05286
    R7        2.54684   -.00035   -.00018   -.00030   -.00048   2.54636
    R8        2.61208    .00006    .00069   -.00003    .00067   2.61274
    R9        1.92619   -.00010   -.00063    .00016   -.00046   1.92573
    A1        2.28031   -.00014   -.00009   -.00100   -.00109   2.27922
    A2        2.14779   -.00001   -.00003    .00009    .00006   2.14785
    A3        1.85509    .00015    .00012    .00091    .00103   1.85612
    A4        2.21635    .00007   -.00026    .00025   -.00001   2.21634
    A5        1.83848   -.00025   -.00001   -.00109   -.00110   1.83738
    A6        2.22836    .00018    .00027    .00084    .00111   2.22947
    A7        2.23423    .00003    .00093   -.00005    .00088   2.23511
    A8        1.95970    .00009    .00005    .00055    .00060   1.96030
    A9        2.08926   -.00013   -.00098   -.00050   -.00148   2.08778
   A10        1.80108   -.00003   -.00037    .00006   -.00031   1.80077
   A11        1.97043    .00004    .00022   -.00043   -.00021   1.97022
   A12        2.24067    .00009    .00055    .00079    .00134   2.24201
   A13        2.07208   -.00012   -.00077   -.00036   -.00113   2.07096
    D1         .00000    .00000    .00000    .00000    .00000    .00000
    D2        3.14159    .00000    .00000    .00000    .00000   3.14159
    D3        3.14159    .00000    .00000    .00000    .00000   3.14159
    D4         .00000    .00000    .00000    .00000    .00000    .00000
    D5        3.14159    .00000    .00000    .00000    .00000   3.14159
    D6         .00000    .00000    .00000    .00000    .00000    .00000
    D7         .00000    .00000    .00000    .00000    .00000    .00000
    D8        3.14159    .00000    .00000    .00000    .00000   3.14159
    D9        3.14159    .00000    .00000    .00000    .00000   3.14159
   D10         .00000    .00000    .00000    .00000    .00000    .00000
   D11         .00000    .00000    .00000    .00000    .00000    .00000
   D12        3.14159    .00000    .00000    .00000    .00000   3.14159
   D13         .00000    .00000    .00000    .00000    .00000    .00000
   D14        3.14159    .00000    .00000    .00000    .00000   3.14159
   D15         .00000    .00000    .00000    .00000    .00000    .00000
   D16        3.14159    .00000    .00000    .00000    .00000   3.14159
         Item               Value     Threshold  Converged?
 Maximum Force             .000518      .000450     NO 
 RMS     Force             .000128      .000300     YES
 Maximum Displacement      .002118      .001800     NO 
 RMS     Displacement      .000642      .001200     YES
 Predicted change in Energy=-1.120282D-06
 GradGradGradGradGradGradGradGradGradGradGradGradGradGradGradGradGradGrad

                          Input orientation:                          
 ---------------------------------------------------------------------
 Center     Atomic     Atomic              Coordinates (Angstroms)
 Number     Number      Type              X           Y           Z
 ---------------------------------------------------------------------
    1          1             0        2.122824     .707606     .000000
    2          6             0        1.111463     .311760     .000000
    3          1             0        1.259634   -1.896017     .000000
    4          6             0         .656186    -.994551     .000000
    5          1             0       -1.477908   -1.704877     .000000
    6          6             0        -.750971    -.897618     .000000
    7          7             0       -1.175766     .381146     .000000
    8          1             0        -.049051    2.122391     .000000
    9          7             0         .002431    1.104641     .000000
 ---------------------------------------------------------------------
                    Distance matrix (angstroms):
                    1          2          3          4          5
     1  H     .000000
     2  C    1.086069    .000000
     3  H    2.742982   2.212744    .000000
     4  C    2.246857   1.383375   1.084800    .000000
     5  H    4.334206   3.282021   2.744207   2.249204    .000000
     6  C    3.291723   2.220643   2.244847   1.410492   1.086326
     7  N    3.314705   2.288281   3.334164   2.290981   2.107791
     8  H    2.592037   2.150622   4.226141   3.195730   4.085292
     9  N    2.157244   1.363309   3.253384   2.198636   3.175656
                    6          7          8          9
     6  C     .000000
     7  N    1.347475    .000000
     8  H    3.100507   2.073986    .000000
     9  N    2.139311   1.382603   1.019052    .000000
 Stoichiometry    C3H4N2
 Framework group  CS[SG(C3H4N2)]
 Deg. of freedom    15
 Full point group                 CS      NOp   2
 Largest Abelian subgroup         CS      NOp   2
 Largest concise Abelian subgroup C1      NOp   1
                         Standard orientation:                         
 ---------------------------------------------------------------------
 Center     Atomic     Atomic              Coordinates (Angstroms)
 Number     Number      Type              X           Y           Z
 ---------------------------------------------------------------------
    1          1             0        2.123772     .722054     .000000
    2          6             0        1.115900     .317409     .000000
    3          1             0        1.283306   -1.888993     .000000
    4          6             0         .672024    -.992820     .000000
    5          1             0       -1.455798   -1.721717     .000000
    6          6             0        -.735924    -.908153     .000000
    7          7             0       -1.171847     .366860     .000000
    8          1             0        -.060349    2.117858     .000000
    9          7             0         .000000    1.100595     .000000
 ---------------------------------------------------------------------
 Rotational constants (GHZ):      9.4731909      9.2837226      4.6887499
 Standard basis: 3-21G* (6D, 7F)
 There are    43 symmetry adapted basis functions of A'  symmetry.
 There are    10 symmetry adapted basis functions of A"  symmetry.
 Integral buffers will be    131072 words long.
 Raffenetti 2 integral format.
 Two-electron integral symmetry is turned on.
    53 basis functions,    87 primitive gaussians,    53 cartesian basis functions
    18 alpha electrons       18 beta electrons
       nuclear repulsion energy       161.5875238885 Hartrees.
 NAtoms=    9 NActive=    9 NUniq=    9 SFac= 1.00D+00 NAtFMM=   60 Big=F
 One-electron integrals computed using PRISM.
 NBasis=    53 RedAO= T  NBF=    43    10
 NBsUse=    53 1.00D-06 NBFU=    43    10
 Initial guess read from the read-write file:
 Initial guess orbital symmetries:
       Occupied  (A') (A') (A') (A') (A') (A') (A') (A') (A') (A')
                 (A') (A') (A") (A') (A') (A") (A') (A")
       Virtual   (A") (A") (A') (A') (A') (A') (A') (A') (A') (A')
                 (A') (A') (A") (A') (A') (A") (A") (A') (A') (A')
                 (A') (A') (A") (A') (A") (A') (A') (A') (A') (A')
                 (A') (A') (A') (A') (A')
 Requested convergence on RMS density matrix=1.00D-08 within 128 cycles.
 Requested convergence on MAX density matrix=1.00D-06.
 Requested convergence on             energy=1.00D-06.
 No special actions if energy rises.
 Keep R1 integrals in memory in canonical form, NReq=     2004664.
 SCF Done:  E(RS-VWN) =  -223.714499125     A.U. after    9 cycles
             Convg  =     .3064D-08             -V/T =  2.0053
             S**2   =    .0000
 Calling FoFCou, ICntrl=  2527 FMM=F ISym2X=1 I1Cent= 0 ISCF1= 0.
 ***** Axes restored to original set *****
 -------------------------------------------------------------------
 Center     Atomic                   Forces (Hartrees/Bohr)
 Number     Number              X              Y              Z
 -------------------------------------------------------------------
    1          1            .000069632    -.000033903     .000000000
    2          6            .000055228     .000075244     .000000000
    3          1            .000008896    -.000011103     .000000000
    4          6            .000083941    -.000023424     .000000000
    5          1            .000000057    -.000056613     .000000000
    6          6           -.000239291     .000186367     .000000000
    7          7            .000030666    -.000134373     .000000000
    8          1            .000026599     .000091579     .000000000
    9          7           -.000035727    -.000093774     .000000000
 -------------------------------------------------------------------
 Cartesian Forces:  Max      .000239291 RMS      .000075979

 GradGradGradGradGradGradGradGradGradGradGradGradGradGradGradGradGradGrad
 Berny optimization.
 Internal  Forces:  Max      .000147821 RMS      .000044792
 Search for a local minimum.
 Step number   6 out of a maximum of  48
 All quantities printed in internal units (Hartrees-Bohrs-Radians)
 Update second derivatives using D2CorX and points  1  2  3  4  5
                                                        6
 Trust test= 9.45D-01 RLast= 3.93D-03 DXMaxT set to 4.19D-01
     Eigenvalues ---     .02140    .02276    .02342    .02398    .02532
     Eigenvalues ---     .02552    .11933    .15974    .16016    .16519
     Eigenvalues ---     .24076    .27083    .36520    .37198    .37528
     Eigenvalues ---     .38843    .41056    .49734    .51269    .58523
     Eigenvalues ---     .601481000.000001000.000001000.000001000.00000
     Eigenvalues --- 1000.000001000.000001000.000001000.000001000.00000
     Eigenvalues --- 1000.000001000.000001000.000001000.000001000.00000
     Eigenvalues --- 1000.000001000.000001000.00000
 RFO step:  Lambda=-1.80177172D-07.
 Quartic linear search produced a step of  -.10748.
 Iteration  1 RMS(Cart)=   .00013324 RMS(Int)=   .00000002
 Iteration  2 RMS(Cart)=   .00000002 RMS(Int)=   .00000001
 Variable       Old X    -DE/DX   Delta X   Delta X   Delta X     New X
                                 (Linear)    (Quad)   (Total)
    R1        2.05237    .00005    .00001    .00010    .00011   2.05248
    R2        2.61420    .00003   -.00003    .00007    .00004   2.61424
    R3        2.57628    .00004    .00019   -.00008    .00011   2.57639
    R4        2.04998    .00001    .00001    .00001    .00003   2.05000
    R5        2.66544    .00015   -.00002    .00036    .00034   2.66579
    R6        2.05286    .00004    .00001    .00008    .00009   2.05295
    R7        2.54636   -.00013    .00005   -.00030   -.00025   2.54611
    R8        2.61274    .00006   -.00007    .00002   -.00005   2.61269
    R9        1.92573    .00009    .00005    .00010    .00015   1.92588
    A1        2.27922   -.00002    .00012   -.00025   -.00013   2.27909
    A2        2.14785    .00008   -.00001    .00033    .00032   2.14817
    A3        1.85612   -.00006   -.00011   -.00008   -.00019   1.85592
    A4        2.21634   -.00002    .00000   -.00009   -.00009   2.21625
    A5        1.83738    .00002    .00012   -.00002    .00010   1.83748
    A6        2.22947    .00000   -.00012    .00011   -.00001   2.22946
    A7        2.23511   -.00004   -.00010   -.00020   -.00030   2.23481
    A8        1.96030   -.00002   -.00006   -.00007   -.00013   1.96017
    A9        2.08778    .00006    .00016    .00027    .00043   2.08820
   A10        1.80077    .00003    .00003    .00008    .00011   1.80088
   A11        1.97022    .00003    .00002    .00009    .00011   1.97033
   A12        2.24201   -.00003   -.00014   -.00009   -.00024   2.24178
   A13        2.07096    .00001    .00012    .00000    .00012   2.07108
    D1         .00000    .00000    .00000    .00000    .00000    .00000
    D2        3.14159    .00000    .00000    .00000    .00000   3.14159
    D3        3.14159    .00000    .00000    .00000    .00000   3.14159
    D4         .00000    .00000    .00000    .00000    .00000    .00000
    D5        3.14159    .00000    .00000    .00000    .00000   3.14159
    D6         .00000    .00000    .00000    .00000    .00000    .00000
    D7         .00000    .00000    .00000    .00000    .00000    .00000
    D8        3.14159    .00000    .00000    .00000    .00000   3.14159
    D9        3.14159    .00000    .00000    .00000    .00000   3.14159
   D10         .00000    .00000    .00000    .00000    .00000    .00000
   D11         .00000    .00000    .00000    .00000    .00000    .00000
   D12        3.14159    .00000    .00000    .00000    .00000   3.14159
   D13         .00000    .00000    .00000    .00000    .00000    .00000
   D14        3.14159    .00000    .00000    .00000    .00000   3.14159
   D15         .00000    .00000    .00000    .00000    .00000    .00000
   D16        3.14159    .00000    .00000    .00000    .00000   3.14159
         Item               Value     Threshold  Converged?
 Maximum Force             .000148      .000450     YES
 RMS     Force             .000045      .000300     YES
 Maximum Displacement      .000404      .001800     YES
 RMS     Displacement      .000133      .001200     YES
 Predicted change in Energy=-1.008248D-07
 Optimization completed.
    -- Stationary point found.
                           ----------------------------
                           !   Optimized Parameters   !
                           ! (Angstroms and Degrees)  !
 --------------------------                            --------------------------
 ! Name  Definition              Value          Derivative Info.                !
 --------------------------------------------------------------------------------
 ! R1    R(1,2)                  1.0861         -DE/DX =    0.0001              !
 ! R2    R(2,4)                  1.3834         -DE/DX =    0.0                 !
 ! R3    R(2,9)                  1.3633         -DE/DX =    0.0                 !
 ! R4    R(3,4)                  1.0848         -DE/DX =    0.0                 !
 ! R5    R(4,6)                  1.4105         -DE/DX =    0.0001              !
 ! R6    R(5,6)                  1.0863         -DE/DX =    0.0                 !
 ! R7    R(6,7)                  1.3475         -DE/DX =   -0.0001              !
 ! R8    R(7,9)                  1.3826         -DE/DX =    0.0001              !
 ! R9    R(8,9)                  1.0191         -DE/DX =    0.0001              !
 ! A1    A(1,2,4)              130.5899         -DE/DX =    0.0                 !
 ! A2    A(1,2,9)              123.0625         -DE/DX =    0.0001              !
 ! A3    A(4,2,9)              106.3476         -DE/DX =   -0.0001              !
 ! A4    A(2,4,3)              126.9868         -DE/DX =    0.0                 !
 ! A5    A(2,4,6)              105.2738         -DE/DX =    0.0                 !
 ! A6    A(3,4,6)              127.7393         -DE/DX =    0.0                 !
 ! A7    A(4,6,5)              128.0624         -DE/DX =    0.0                 !
 ! A8    A(4,6,7)              112.3167         -DE/DX =    0.0                 !
 ! A9    A(5,6,7)              119.6209         -DE/DX =    0.0001              !
 ! A10   A(6,7,9)              103.1767         -DE/DX =    0.0                 !
 ! A11   A(2,9,7)              112.8851         -DE/DX =    0.0                 !
 ! A12   A(2,9,8)              128.4579         -DE/DX =    0.0                 !
 ! A13   A(7,9,8)              118.657          -DE/DX =    0.0                 !
 ! D1    D(1,2,4,3)              0.0            -DE/DX =    0.0                 !
 ! D2    D(1,2,4,6)            180.0            -DE/DX =    0.0                 !
 ! D3    D(9,2,4,3)            180.0            -DE/DX =    0.0                 !
[...]
   8   1      .42   -.06    .00     -.48    .01    .00     -.79   -.13    .00
   9   7      .09   -.06    .00      .08    .05    .00      .13   -.07    .00
                    16                     17                     18
                    A'                     A'                     A'
 Frequencies --  1421.6804              1505.9502              3214.7379
 Red. masses --     2.7710                 3.0970                 1.0933
 Frc consts  --     3.2998                 4.1382                 6.6572
 IR Inten    --    11.0606                14.1074                 1.0513
 Atom AN      X      Y      Z        X      Y      Z        X      Y      Z
   1   1      .00   -.38    .00      .32   -.28    .00     -.22   -.09    .00
   2   6     -.19    .14    .00      .06    .27    .00      .02    .01    .00
   3   1     -.32   -.38    .00      .36    .01    .00      .23   -.35    .00
   4   6      .20   -.01    .00     -.07   -.24    .00     -.02    .03    .00
   5   1      .13   -.24    .00      .34   -.21    .00      .58    .65    .00
   6   6     -.16    .03    .00     -.09    .16    .00     -.05   -.06    .00
   7   7      .01    .02    .00      .04   -.09    .00      .00    .00    .00
   8   1     -.60   -.15    .00      .59    .00    .00      .00    .01    .00
   9   7      .16   -.08    .00     -.07   -.04    .00      .00    .00    .00
                    19                     20                     21
                    A'                     A'                     A'
 Frequencies --  3220.7686              3247.4522              3543.5048
 Red. masses --     1.0954                 1.1071                 1.0827
 Frc consts  --     6.6947                 6.8790                 8.0097
 IR Inten    --      .0808                  .3833                92.6812
 Atom AN      X      Y      Z        X      Y      Z        X      Y      Z
   1   1      .81    .33    .00     -.38   -.16    .00      .02    .01    .00
   2   6     -.07   -.03    .00      .04    .02    .00      .00    .00    .00
   3   1     -.17    .24    .00     -.48    .71    .00      .00   -.01    .00
   4   6      .02   -.02    .00      .04   -.07    .00      .00    .00    .00
   5   1      .25    .28    .00      .20    .22    .00      .00    .00    .00
   6   6     -.02   -.03    .00     -.02   -.02    .00      .00    .00    .00
   7   7      .00    .00    .00      .00    .00    .00      .00    .00    .00
   8   1      .00   -.02    .00      .00    .02    .00     -.07    .99    .00
   9   7      .00    .00    .00      .00    .00    .00      .01   -.08    .00

 -------------------
 - Thermochemistry -
 -------------------
 Temperature   298.150 Kelvin.  Pressure   1.00000 Atm.
 Atom  1 has atomic number  1 and mass   1.00783
 Atom  2 has atomic number  6 and mass  12.00000
 Atom  3 has atomic number  1 and mass   1.00783
 Atom  4 has atomic number  6 and mass  12.00000
 Atom  5 has atomic number  1 and mass   1.00783
 Atom  6 has atomic number  6 and mass  12.00000
 Atom  7 has atomic number  7 and mass  14.00307
 Atom  8 has atomic number  1 and mass   1.00783
 Atom  9 has atomic number  7 and mass  14.00307
 Molecular mass:    68.03745 amu.
 Principal axes and moments of inertia in atomic units:
                           1         2         3
     EIGENVALUES --   190.51038 194.39844 384.90882
           X             .97517    .22147    .00000
           Y            -.22147    .97517    .00000
           Z             .00000    .00000   1.00000
 This molecule is an asymmetric top.
 Rotational symmetry number  1.
 Rotational temperatures (Kelvin)       .45464      .44555      .22502
 Rotational constants (GHZ):           9.47319     9.28372     4.68875
 Zero-point vibrational energy     183753.3 (Joules/Mol)
                                   43.91810 (Kcal/Mol)
 Warning -- explicit consideration of   1 degrees of freedom as
           vibrations may cause significant error
 Vibrational temperatures:    886.44   933.40   980.81  1080.06  1213.19
          (Kelvin)           1308.65  1328.30  1347.83  1424.47  1513.56
                             1625.86  1637.94  1786.38  1908.89  1982.96
                             2045.48  2166.72  4625.29  4633.96  4672.35
                             5098.31
 
 Zero-point correction=                            .069988 (Hartree/Particle)
 Thermal correction to Energy=                     .073692
 Thermal correction to Enthalpy=                   .074636
 Thermal correction to Gibbs Free Energy=          .043724
 Sum of electronic and zero-point Energies=           -223.644511
 Sum of electronic and thermal Energies=              -223.640807
 Sum of electronic and thermal Enthalpies=            -223.639863
 Sum of electronic and thermal Free Energies=         -223.670776
 
                     E (Thermal)             CV                S
                      KCal/Mol        Cal/Mol-Kelvin    Cal/Mol-Kelvin
 Total                   46.243             13.297             65.062
 Electronic                .000               .000               .000
 Translational             .889              2.981             38.570
 Rotational                .889              2.981             24.170
 Vibrational             44.465              7.335              2.321
 Vibration  1              .976               .998               .423
                       Q            Log10(Q)             Ln(Q)
 Total Bot        .773788D-20        -20.111378        -46.308159
 Total V=0        .120441D+13         12.080773         27.817008
 Vib (Bot)        .820755D-32        -32.085786        -73.880253
 Vib (Bot)  1     .238337D+00          -.622808         -1.434069
 Vib (V=0)        .127751D+01           .106365           .244914
 Vib (V=0)  1     .105390D+01           .022799           .052497
 Electronic       .100000D+01           .000000           .000000
 Translational    .220586D+08          7.343577         16.909211
 Rotational       .427397D+05          4.630831         10.662883
 ***** Axes restored to original set *****
 -------------------------------------------------------------------
 Center     Atomic                   Forces (Hartrees/Bohr)
 Number     Number              X              Y              Z
 -------------------------------------------------------------------
    1          1            .000069634    -.000033902     .000000000
    2          6            .000055235     .000075230     .000000000
    3          1            .000008894    -.000011101     .000000000
    4          6            .000083948    -.000023426     .000000000
    5          1            .000000049    -.000056622     .000000000
    6          6           -.000239276     .000186362     .000000000
    7          7            .000030678    -.000134346     .000000000
    8          1            .000026601     .000091572     .000000000
    9          7           -.000035763    -.000093768     .000000000
 -------------------------------------------------------------------
 Cartesian Forces:  Max      .000239276 RMS      .000075976

 GradGradGradGradGradGradGradGradGradGradGradGradGradGradGradGradGradGrad
 Berny optimization.
 Internal  Forces:  Max      .000147821 RMS      .000044790
 Search for a local minimum.
 Step number   1 out of a maximum of   2
 All quantities printed in internal units (Hartrees-Bohrs-Radians)
 Second derivative matrix not updated -- analytic derivatives used.
     Eigenvalues ---     .00942    .01267    .01675    .02732    .06064
     Eigenvalues ---     .06381    .09104    .10039    .10438    .11179
     Eigenvalues ---     .20547    .25079    .31575    .34883    .36462
     Eigenvalues ---     .36765    .37235    .42248    .44711    .47544
     Eigenvalues ---     .543771000.000001000.000001000.000001000.00000
     Eigenvalues --- 1000.000001000.000001000.000001000.000001000.00000
     Eigenvalues --- 1000.000001000.000001000.000001000.000001000.00000
     Eigenvalues --- 1000.000001000.000001000.00000
 Angle between quadratic step and forces=  35.50 degrees.
 Linear search not attempted -- first point.
 Iteration  1 RMS(Cart)=   .00020045 RMS(Int)=   .00000006
 Iteration  2 RMS(Cart)=   .00000006 RMS(Int)=   .00000000
 Variable       Old X    -DE/DX   Delta X   Delta X   Delta X     New X
                                 (Linear)    (Quad)   (Total)
    R1        2.05237    .00005    .00000    .00013    .00013   2.05251
    R2        2.61420    .00003    .00000    .00005    .00005   2.61425
    R3        2.57628    .00004    .00000    .00012    .00012   2.57640
    R4        2.04998    .00001    .00000    .00004    .00004   2.05002
    R5        2.66544    .00015    .00000    .00043    .00043   2.66587
    R6        2.05286    .00004    .00000    .00012    .00012   2.05298
    R7        2.54636   -.00013    .00000   -.00039   -.00039   2.54596
    R8        2.61274    .00006    .00000    .00010    .00010   2.61284
    R9        1.92573    .00009    .00000    .00020    .00020   1.92593
    A1        2.27922   -.00002    .00000   -.00039   -.00039   2.27884
    A2        2.14785    .00008    .00000    .00051    .00051   2.14836
    A3        1.85612   -.00006    .00000   -.00013   -.00013   1.85599
    A4        2.21634   -.00002    .00000   -.00009   -.00009   2.21625
    A5        1.83738    .00002    .00000    .00003    .00003   1.83740
    A6        2.22947    .00000    .00000    .00006    .00006   2.22953
    A7        2.23511   -.00004    .00000   -.00053   -.00053   2.23458
    A8        1.96030   -.00002    .00000   -.00006   -.00006   1.96024
    A9        2.08778    .00006    .00000    .00059    .00059   2.08837
   A10        1.80077    .00003    .00000    .00012    .00012   1.80089
   A11        1.97022    .00003    .00000    .00004    .00004   1.97025
   A12        2.24201   -.00003    .00000   -.00015   -.00015   2.24186
   A13        2.07096    .00001    .00000    .00011    .00011   2.07107
    D1         .00000    .00000    .00000    .00000    .00000    .00000
    D2        3.14159    .00000    .00000    .00000    .00000   3.14159
    D3        3.14159    .00000    .00000    .00000    .00000   3.14159
    D4         .00000    .00000    .00000    .00000    .00000    .00000
    D5        3.14159    .00000    .00000    .00000    .00000   3.14159
    D6         .00000    .00000    .00000    .00000    .00000    .00000
    D7         .00000    .00000    .00000    .00000    .00000    .00000
    D8        3.14159    .00000    .00000    .00000    .00000   3.14159
    D9        3.14159    .00000    .00000    .00000    .00000   3.14159
   D10         .00000    .00000    .00000    .00000    .00000    .00000
   D11         .00000    .00000    .00000    .00000    .00000    .00000
   D12        3.14159    .00000    .00000    .00000    .00000   3.14159
   D13         .00000    .00000    .00000    .00000    .00000    .00000
   D14        3.14159    .00000    .00000    .00000    .00000   3.14159
   D15         .00000    .00000    .00000    .00000    .00000    .00000
   D16        3.14159    .00000    .00000    .00000    .00000   3.14159
         Item               Value     Threshold  Converged?
 Maximum Force             .000148      .000450     YES
 RMS     Force             .000045      .000300     YES
 Maximum Displacement      .000581      .001800     YES
 RMS     Displacement      .000200      .001200     YES
 Predicted change in Energy=-1.409236D-07
 Optimization completed.
    -- Stationary point found.
                           ----------------------------
                           !   Optimized Parameters   !
                           ! (Angstroms and Degrees)  !
 --------------------------                            --------------------------
 ! Name  Definition              Value          Derivative Info.                !
 --------------------------------------------------------------------------------
 ! R1    R(1,2)                  1.0861         -DE/DX =    0.0001              !
 ! R2    R(2,4)                  1.3834         -DE/DX =    0.0                 !
 ! R3    R(2,9)                  1.3633         -DE/DX =    0.0                 !
 ! R4    R(3,4)                  1.0848         -DE/DX =    0.0                 !
 ! R5    R(4,6)                  1.4105         -DE/DX =    0.0001              !
 ! R6    R(5,6)                  1.0863         -DE/DX =    0.0                 !
 ! R7    R(6,7)                  1.3475         -DE/DX =   -0.0001              !
 ! R8    R(7,9)                  1.3826         -DE/DX =    0.0001              !
 ! R9    R(8,9)                  1.0191         -DE/DX =    0.0001              !
 ! A1    A(1,2,4)              130.5899         -DE/DX =    0.0                 !
 ! A2    A(1,2,9)              123.0625         -DE/DX =    0.0001              !
 ! A3    A(4,2,9)              106.3476         -DE/DX =   -0.0001              !
 ! A4    A(2,4,3)              126.9868         -DE/DX =    0.0                 !
 ! A5    A(2,4,6)              105.2738         -DE/DX =    0.0                 !
 ! A6    A(3,4,6)              127.7393         -DE/DX =    0.0                 !
 ! A7    A(4,6,5)              128.0624         -DE/DX =    0.0                 !
 ! A8    A(4,6,7)              112.3167         -DE/DX =    0.0                 !
 ! A9    A(5,6,7)              119.6209         -DE/DX =    0.0001              !
 ! A10   A(6,7,9)              103.1767         -DE/DX =    0.0                 !
 ! A11   A(2,9,7)              112.8851         -DE/DX =    0.0                 !
 ! A12   A(2,9,8)              128.4579         -DE/DX =    0.0                 !
 ! A13   A(7,9,8)              118.657          -DE/DX =    0.0                 !
 ! D1    D(1,2,4,3)              0.0            -DE/DX =    0.0                 !
 ! D2    D(1,2,4,6)            180.0            -DE/DX =    0.0                 !
 ! D3    D(9,2,4,3)            180.0            -DE/DX =    0.0                 !
 ! D4    D(9,2,4,6)              0.0            -DE/DX =    0.0                 !
 ! D5    D(1,2,9,7)            180.0            -DE/DX =    0.0                 !
 ! D6    D(1,2,9,8)              0.0            -DE/DX =    0.0                 !
 ! D7    D(4,2,9,7)              0.0            -DE/DX =    0.0                 !
 ! D8    D(4,2,9,8)            180.0            -DE/DX =    0.0                 !
 ! D9    D(2,4,6,5)            180.0            -DE/DX =    0.0                 !
 ! D10   D(2,4,6,7)              0.0            -DE/DX =    0.0                 !
 ! D11   D(3,4,6,5)              0.0            -DE/DX =    0.0                 !
 ! D12   D(3,4,6,7)            180.0            -DE/DX =    0.0                 !
 ! D13   D(4,6,7,9)              0.0            -DE/DX =    0.0                 !
 ! D14   D(5,6,7,9)            180.0            -DE/DX =    0.0                 !
 ! D15   D(6,7,9,2)              0.0            -DE/DX =    0.0                 !
 ! D16   D(6,7,9,8)            180.0            -DE/DX =    0.0                 !
 --------------------------------------------------------------------------------
 GradGradGradGradGradGradGradGradGradGradGradGradGradGradGradGradGradGrad

 1\1\GINC-HAL6\Freq\RSVWN\3-21G*\C3H4N2\RDJ3\07-Mar-2008\0\\#N GEOM=ALL
 CHECK GUESS=READ SCRF=CHECK GENCHK RSVWN/3-21G* FREQ\\1hpyraz 1H-Pyraz
 ole casno=288131 method=51 basis=8 config=1\\0,1\H,2.1299843585,0.7035
 184833,0.\C,1.1186232951,0.3076723313,0.\H,1.2667951734,-1.9001051633,
 0.\C,0.6633465584,-0.9986390288,0.\H,-1.4707472205,-1.7089646844,0.\C,
 -0.7438106804,-0.9017053162,0.\N,-1.1686053207,0.3770587067,0.\H,-0.04
 18904547,2.1183031913,0.\N,0.0095914786,1.1005527582,0.\\Version=IBM64
 -RS6000-G03RevB.05\State=1-A'\HF=-223.7144991\RMSD=2.258e-09\RMSF=7.59
 8e-05\Dipole=0.8314412,0.4117763,0.\DipoleDeriv=0.0330111,-0.0348122,0
 .,-0.0327478,0.0905082,0.,0.,0.,0.2062525,-0.0773401,-0.161245,0.,0.00
 81627,0.2650538,0.,0.,0.,-0.1035267,0.073003,0.0588425,0.,0.0537605,0.
 0469246,0.,0.,0.,0.1763233,-0.1481331,-0.13613,0.,-0.0864953,-0.158304
 ,0.,0.,0.,-0.2237111,0.0471506,-0.0507977,0.,-0.0597952,0.04958,0.,0.,
 0.,0.168033,0.2064041,0.0886537,0.,0.0764989,-0.0164797,0.,0.,0.,-0.12
 22425,-0.3279728,0.2653403,0.,0.1367907,-0.0677543,0.,0.,0.,-0.1846121
 ,0.2034557,-0.0181947,0.,-0.008412,0.2834707,0.,0.,0.,0.3646721,-0.009
 5786,-0.0116569,0.,-0.0877625,-0.4929992,0.,0.,0.,-0.2811884\Polar=43.
 4475652,2.2910517,45.0694018,0.,0.,12.4875089\PG=CS [SG(C3H4N2)]\NImag
 =0\\0.32271643,0.10732458,0.08890564,0.,0.,0.01970237,-0.30875782,-0.1
 0903227,0.,0.80271063,-0.10105865,-0.09384651,0.,0.12467783,0.63557099
 ,0.,0.,-0.02526726,0.,0.,0.12485621,-0.00010267,0.00086028,0.,0.010333
 94,-0.01339099,0.,0.14536538,-0.00061647,0.00040624,0.,0.01902835,-0.0
 1039670,0.,-0.14765488,0.27010507,0.,0.,-0.00291664,0.,0.,-0.00058806,
 0.,0.,0.02265515,0.00179112,-0.02302008,0.,-0.12557328,-0.06926197,0.,
 -0.14645473,0.13650012,0.,0.61104146,0.00361068,0.00239125,0.,-0.08587
 268,-0.32783206,0.,0.13980018,-0.26188356,0.,-0.12745147,0.79563636,0.
 ,0.,0.00181865,0.,0.,-0.06999592,0.,0.,-0.02850219,0.,0.,0.12746841,0.
 00009158,-0.00112855,0.,-0.00499341,0.00114008,0.,0.00033243,0.0005533
 1,0.,-0.00737188,-0.02073225,0.,0.19100789,-0.00007327,0.00049464,0.,0
 .00384528,-0.00044455,0.,-0.00097407,-0.00009808,0.,0.00669030,0.00786
 468,0.,0.15516253,0.22402804,0.,0.,0.00068954,0.,0.,0.00425272,0.,0.,-
 0.00202267,0.,0.,0.00137213,0.,0.,0.02371182,-0.00022885,-0.00220510,0
 .,-0.04715062,-0.08268094,0.,-0.00297075,-0.00504806,0.,-0.28117496,0.
 01712232,0.,-0.19074417,-0.14484694,0.,0.67385277,0.00222272,-0.005727
 18,0.,-0.02304492,0.00305846,0.,0.02539699,0.00462634,0.,-0.00418597,-
 0.10389402,0.,-0.15162974,-0.20769764,0.,0.15325124,0.72829865,0.,0.,0
 .00479315,0.,0.,0.01459332,0.,0.,-0.00169031,0.,0.,-0.07164043,0.,0.,-
 0.03029353,0.,0.,0.14168907,-0.00019737,0.00443086,0.,-0.10032534,0.01
 335470,0.,-0.00489378,-0.00289993,0.,-0.04127122,0.01710455,0.,0.00856
 784,-0.01912017,0.,-0.10698164,0.04065650,0.,0.40680078,0.00181607,-0.
 00274698,0.,-0.01824415,-0.02387684,0.,0.00215318,0.00091600,0.,0.0785
 9957,-0.02607241,0.,0.01038223,-0.01881030,0.,0.09735073,-0.29399891,0
 .,-0.04420775,0.49637239,0.,0.,0.00577146,0.,0.,0.01830592,0.,0.,0.006
 06883,0.,0.,0.02178198,0.,0.,-0.00667462,0.,0.,-0.07217776,0.,0.,0.100
 98935,-0.00020107,-0.00065341,0.,0.00836040,0.02558240,0.,0.00078650,0
 .00086748,0.,-0.00573204,0.00373113,0.,0.00087105,-0.00120354,0.,-0.00
 752809,-0.00576575,0.,0.00426661,-0.03296832,0.,0.06274617,0.00053984,
 -0.00013191,0.,-0.00672073,-0.00667352,0.,-0.00023652,-0.00018767,0.,0
 .00246689,0.00201411,0.,0.00026289,-0.00019338,0.,-0.00343595,0.002242
 86,0.,0.00263149,-0.01205182,0.,-0.02111756,0.44487505,0.,0.,-0.001395
 83,0.,0.,-0.00538536,0.,0.,0.00174630,0.,0.,0.00353620,0.,0.,0.0016320
 8,0.,0.,0.00463690,0.,0.,-0.00939839,0.,0.,0.01462793,-0.01511135,0.02
 342370,0.,-0.23460450,0.10163753,0.,-0.00239632,-0.00072992,0.,-0.0052
 5446,0.05268755,0.,0.00223867,0.00051987,0.,-0.03707369,-0.03690108,0.
 ,-0.16596589,-0.09488155,0.,-0.06356952,0.02560964,0.,0.52173707,-0.01
 376552,0.01025482,0.,0.09536328,-0.17555927,0.,-0.00595416,-0.00348766
 ,0.,-0.00033739,-0.08822435,0.,0.00598951,-0.00514342,0.,-0.02950730,-
 0.12690857,0.,-0.01195025,-0.11973114,0.,0.03152757,-0.42989372,0.,-0.
 07136575,0.93869331,0.,0.,-0.00319543,0.,0.,-0.06077157,0.,0.,0.005249
 59,0.,0.,0.01416117,0.,0.,0.00733254,0.,0.,0.01008960,0.,0.,-0.0646667
 7,0.,0.,-0.00999983,0.,0.,0.10180070\\-0.00006963,0.00003390,0.,-0.000
 05523,-0.00007523,0.,-0.00000889,0.00001110,0.,-0.00008395,0.00002343,
 0.,-0.00000005,0.00005662,0.,0.00023928,-0.00018636,0.,-0.00003068,0.0
 0013435,0.,-0.00002660,-0.00009157,0.,0.00003576,0.00009377,0.\\\@


 BULLDOZER: SOMEONE WHO SLEEPS THROUGH SPEECHES.
 Job cpu time:  0 days  0 hours  0 minutes 37.8 seconds.
 File lengths (MBytes):  RWF=     14 Int=      0 D2E=      0 Chk=      6 Scr=      1
 Normal termination of Gaussian 03 at Fri Mar  7 16:41:52 2008.
