 host = p1917 (kernel = 2.6.18-8.el5)
 Running revision D01, using 64-bit version

 Current disk usage on p1917
tmpfs                 3.9G     0  3.9G   0% /dev/shm

 START DATE Thu Mar  6 13:50:51 EST 2008
 Entering Gaussian System, Link 0=/usr/local/gaussian03-rev-D01-64/g03/g03
 Initial command:
 /usr/local/gaussian03-rev-D01-64/g03/l1.exe /gaussian/Gau-1454.inp -scrdir=/gaussian/
 Entering Link 1 = /usr/local/gaussian03-rev-D01-64/g03/l1.exe PID=      1459.
  
 Copyright (c) 1988,1990,1992,1993,1995,1998,2003,2004, Gaussian, Inc.
                  All Rights Reserved.
  
 This is the Gaussian(R) 03 program.  It is based on the
 the Gaussian(R) 98 system (copyright 1998, Gaussian, Inc.),
 the Gaussian(R) 94 system (copyright 1995, Gaussian, Inc.),
 the Gaussian 92(TM) system (copyright 1992, Gaussian, Inc.),
 the Gaussian 90(TM) system (copyright 1990, Gaussian, Inc.),
 the Gaussian 88(TM) system (copyright 1988, Gaussian, Inc.),
 the Gaussian 86(TM) system (copyright 1986, Carnegie Mellon
 University), and the Gaussian 82(TM) system (copyright 1983,
 Carnegie Mellon University). Gaussian is a federally registered
 trademark of Gaussian, Inc.
  
 This software contains proprietary and confidential information,
 including trade secrets, belonging to Gaussian, Inc.
  
 This software is provided under written license and may be
 used, copied, transmitted, or stored only in accord with that
 written license.
  
 The following legend is applicable only to US Government
 contracts under FAR:
  
                    RESTRICTED RIGHTS LEGEND
  
 Use, reproduction and disclosure by the US Government is
 subject to restrictions as set forth in subparagraphs (a)
 and (c) of the Commercial Computer Software - Restricted
 Rights clause in FAR 52.227-19.
  
 Gaussian, Inc.
 340 Quinnipiac St., Bldg. 40, Wallingford CT 06492
  
  
 ---------------------------------------------------------------
 Warning -- This program may not be used in any manner that
 competes with the business of Gaussian, Inc. or will provide
 assistance to any competitor of Gaussian, Inc.  The licensee
 of this program is prohibited from giving any competitor of
 Gaussian, Inc. access to this program.  By using this program,
 the user acknowledges that Gaussian, Inc. is engaged in the
 business of creating and licensing software in the field of
 computational chemistry and represents and warrants to the
 licensee that it is not a competitor of Gaussian, Inc. and that
 it will not use this program in any manner prohibited above.
 ---------------------------------------------------------------
  

 Cite this work as:
 Gaussian 03, Revision D.01,
 M. J. Frisch, G. W. Trucks, H. B. Schlegel, G. E. Scuseria, 
 M. A. Robb, J. R. Cheeseman, J. A. Montgomery, Jr., T. Vreven, 
 K. N. Kudin, J. C. Burant, J. M. Millam, S. S. Iyengar, J. Tomasi, 
 V. Barone, B. Mennucci, M. Cossi, G. Scalmani, N. Rega, 
 G. A. Petersson, H. Nakatsuji, M. Hada, M. Ehara, K. Toyota, 
 R. Fukuda, J. Hasegawa, M. Ishida, T. Nakajima, Y. Honda, O. Kitao, 
 H. Nakai, M. Klene, X. Li, J. E. Knox, H. P. Hratchian, J. B. Cross, 
 V. Bakken, C. Adamo, J. Jaramillo, R. Gomperts, R. E. Stratmann, 
 O. Yazyev, A. J. Austin, R. Cammi, C. Pomelli, J. W. Ochterski, 
 P. Y. Ayala, K. Morokuma, G. A. Voth, P. Salvador, J. J. Dannenberg, 
 V. G. Zakrzewski, S. Dapprich, A. D. Daniels, M. C. Strain, 
 O. Farkas, D. K. Malick, A. D. Rabuck, K. Raghavachari, 
 J. B. Foresman, J. V. Ortiz, Q. Cui, A. G. Baboul, S. Clifford, 
 J. Cioslowski, B. B. Stefanov, G. Liu, A. Liashenko, P. Piskorz, 
 I. Komaromi, R. L. Martin, D. J. Fox, T. Keith, M. A. Al-Laham, 
 C. Y. Peng, A. Nanayakkara, M. Challacombe, P. M. W. Gill, 
 B. Johnson, W. Chen, M. W. Wong, C. Gonzalez, and J. A. Pople, 
 Gaussian, Inc., Wallingford CT, 2004.
 
 ******************************************
 Gaussian 03:  AM64L-G03RevD.01 13-Oct-2005
                 6-Mar-2008 
 ******************************************
 %mem=24000000
 -----------------------
 #LSDA/6-31+G** opt freq
 -----------------------
 1/14=-1,18=20,26=3,38=1/1,3;
 2/9=110,17=6,18=5,40=1/2;
 3/5=1,6=6,7=111,11=2,16=1,25=1,30=1,74=205/1,2,3;
 4//1;
 5/5=2,38=5/2;
 6/7=2,8=2,9=2,10=2,28=1/1;
 7//1,2,3,16;
 1/14=-1,18=20/3(3);
 2/9=110/2;
 6/7=2,8=2,9=2,10=2,19=2,28=1/1;
 99//99;
 2/9=110/2;
 3/5=1,6=6,7=111,11=2,16=1,25=1,30=1,74=205/1,2,3;
 4/5=5,16=3/1;
 5/5=2,38=5/2;
 7//1,2,3,16;
 1/14=-1,18=20/3(-5);
 2/9=110/2;
 6/7=2,8=2,9=2,10=2,19=2,28=1/1;
 99/9=1/99;
 -----------------------------------------------------------
 1hpyraz 1H-Pyrazole casno=288131 method=51 basis=4 config=1
 -----------------------------------------------------------
 Symbolic Z-matrix:
 Charge =  0 Multiplicity = 1
 H                     2.08045   0.72242   0. 
 C                     1.09639   0.3024    0. 
 H                     1.25554  -1.87978   0. 
 C                     0.66281  -0.9897    0. 
 H                    -1.47487  -1.65877   0. 
 C                    -0.74554  -0.87448   0. 
 N                    -1.12786   0.37057   0. 
 H                    -0.04808   2.06666   0. 
 N                     0.        1.07516   0. 
 

 GradGradGradGradGradGradGradGradGradGradGradGradGradGradGradGradGradGrad
 Berny optimization.
 Initialization pass.
                           ----------------------------
                           !    Initial Parameters    !
                           ! (Angstroms and Degrees)  !
 --------------------------                            --------------------------
 ! Name  Definition              Value          Derivative Info.                !
 --------------------------------------------------------------------------------
 ! R1    R(1,2)                  1.0699         estimate D2E/DX2                !
 ! R2    R(2,4)                  1.3629         estimate D2E/DX2                !
 ! R3    R(2,9)                  1.3414         estimate D2E/DX2                !
 ! R4    R(3,4)                  1.0694         estimate D2E/DX2                !
 ! R5    R(4,6)                  1.4131         estimate D2E/DX2                !
 ! R6    R(5,6)                  1.071          estimate D2E/DX2                !
 ! R7    R(6,7)                  1.3024         estimate D2E/DX2                !
 ! R8    R(7,9)                  1.3299         estimate D2E/DX2                !
 ! R9    R(8,9)                  0.9927         estimate D2E/DX2                !
 ! A1    A(1,2,4)              131.6638         estimate D2E/DX2                !
 ! A2    A(1,2,9)              121.709          estimate D2E/DX2                !
 ! A3    A(4,2,9)              106.6272         estimate D2E/DX2                !
 ! A4    A(2,4,3)              127.7894         estimate D2E/DX2                !
 ! A5    A(2,4,6)              103.8727         estimate D2E/DX2                !
 ! A6    A(3,4,6)              128.3379         estimate D2E/DX2                !
 ! A7    A(4,6,5)              128.2433         estimate D2E/DX2                !
 ! A8    A(4,6,7)              111.7472         estimate D2E/DX2                !
 ! A9    A(5,6,7)              120.0095         estimate D2E/DX2                !
 ! A10   A(6,7,9)              104.9237         estimate D2E/DX2                !
 ! A11   A(2,9,7)              112.8292         estimate D2E/DX2                !
 ! A12   A(2,9,8)              127.9532         estimate D2E/DX2                !
 ! A13   A(7,9,8)              119.2176         estimate D2E/DX2                !
 ! D1    D(1,2,4,3)              0.0            estimate D2E/DX2                !
 ! D2    D(1,2,4,6)            180.0            estimate D2E/DX2                !
 ! D3    D(9,2,4,3)            180.0            estimate D2E/DX2                !
 ! D4    D(9,2,4,6)              0.0            estimate D2E/DX2                !
 ! D5    D(1,2,9,7)            180.0            estimate D2E/DX2                !
 ! D6    D(1,2,9,8)              0.0            estimate D2E/DX2                !
 ! D7    D(4,2,9,7)              0.0            estimate D2E/DX2                !
 ! D8    D(4,2,9,8)            180.0            estimate D2E/DX2                !
 ! D9    D(2,4,6,5)            180.0            estimate D2E/DX2                !
 ! D10   D(2,4,6,7)              0.0            estimate D2E/DX2                !
 ! D11   D(3,4,6,5)              0.0            estimate D2E/DX2                !
 ! D12   D(3,4,6,7)            180.0            estimate D2E/DX2                !
 ! D13   D(4,6,7,9)              0.0            estimate D2E/DX2                !
 ! D14   D(5,6,7,9)            180.0            estimate D2E/DX2                !
 ! D15   D(6,7,9,2)              0.0            estimate D2E/DX2                !
 ! D16   D(6,7,9,8)            180.0            estimate D2E/DX2                !
 --------------------------------------------------------------------------------
 Trust Radius=3.00D-01 FncErr=1.00D-07 GrdErr=1.00D-06
 Number of steps in this run=  48 maximum allowed number of steps= 100.
 GradGradGradGradGradGradGradGradGradGradGradGradGradGradGradGradGradGrad

                          Input orientation:                          
 ---------------------------------------------------------------------
 Center     Atomic     Atomic              Coordinates (Angstroms)
 Number     Number      Type              X           Y           Z
 ---------------------------------------------------------------------
    1          1             0        2.080447    0.722417    0.000000
    2          6             0        1.096394    0.302400    0.000000
    3          1             0        1.255542   -1.879784    0.000000
    4          6             0        0.662812   -0.989701    0.000000
    5          1             0       -1.474873   -1.658768    0.000000
    6          6             0       -0.745544   -0.874478    0.000000
    7          7             0       -1.127859    0.370571    0.000000
    8          1             0       -0.048078    2.066660    0.000000
    9          7             0        0.000000    1.075164    0.000000
 ---------------------------------------------------------------------
                    Distance matrix (angstroms):
                    1          2          3          4          5
     1  H    0.000000
     2  C    1.069941   0.000000
     3  H    2.729820   2.187980   0.000000
     4  C    2.222844   1.362908   1.069381   0.000000
     5  H    4.279059   3.233820   2.739346   2.239944   0.000000
     6  C    3.245967   2.185813   2.239416   1.413062   1.070996
     7  N    3.227541   2.225297   3.277911   2.248742   2.058795
     8  H    2.517461   2.102957   4.156182   3.137946   3.989305
     9  N    2.110140   1.341359   3.210624   2.168637   3.106386
                    6          7          8          9
     6  C    0.000000
     7  N    1.302425   0.000000
     8  H    3.022706   2.010633   0.000000
     9  N    2.087328   1.329856   0.992661   0.000000
 Stoichiometry    C3H4N2
 Framework group  CS[SG(C3H4N2)]
 Deg. of freedom    15
 Full point group                 CS
 Largest Abelian subgroup         CS      NOp   2
 Largest concise Abelian subgroup C1      NOp   1
                         Standard orientation:                         
 ---------------------------------------------------------------------
 Center     Atomic     Atomic              Coordinates (Angstroms)
 Number     Number      Type              X           Y           Z
 ---------------------------------------------------------------------
    1          1             0        2.080447    0.722417    0.000000
    2          6             0        1.096394    0.302400    0.000000
    3          1             0        1.255542   -1.879784    0.000000
    4          6             0        0.662812   -0.989701    0.000000
    5          1             0       -1.474873   -1.658768    0.000000
    6          6             0       -0.745544   -0.874478    0.000000
    7          7             0       -1.127859    0.370571    0.000000
    8          1             0       -0.048078    2.066660    0.000000
    9          7             0        0.000000    1.075164    0.000000
 ---------------------------------------------------------------------
 Rotational constants (GHZ):      9.8799678      9.6409251      4.8794914
 Standard basis: 6-31+G(d,p) (6D, 7F)
 There are    86 symmetry adapted basis functions of A'  symmetry.
 There are    29 symmetry adapted basis functions of A"  symmetry.
 Integral buffers will be    131072 words long.
 Raffenetti 2 integral format.
 Two-electron integral symmetry is turned on.
   115 basis functions,   188 primitive gaussians,   115 cartesian basis functions
    18 alpha electrons       18 beta electrons
       nuclear repulsion energy       164.9559149755 Hartrees.
 NAtoms=    9 NActive=    9 NUniq=    9 SFac= 7.50D-01 NAtFMM=   80 NAOKFM=F Big=F
 One-electron integrals computed using PRISM.
 NBasis=   115 RedAO= T  NBF=    86    29
 NBsUse=   115 1.00D-06 NBFU=    86    29
 Harris functional with IExCor=  205 diagonalized for initial guess.
 ExpMin= 4.38D-02 ExpMax= 4.17D+03 ExpMxC= 6.27D+02 IAcc=2 IRadAn=         4 AccDes= 0.00D+00
 HarFok:  IExCor= 205 AccDes= 0.00D+00 IRadAn=         4 IDoV=1
 ScaDFX=  1.000000  1.000000  1.000000  1.000000
 Initial guess orbital symmetries:
       Occupied  (A') (A') (A') (A') (A') (A') (A') (A') (A') (A')
                 (A') (A') (A') (A") (A') (A') (A") (A")
       Virtual   (A") (A") (A') (A') (A') (A') (A') (A") (A') (A')
                 (A') (A") (A") (A') (A') (A') (A') (A') (A") (A')
                 (A') (A') (A") (A') (A') (A') (A') (A') (A') (A')
                 (A') (A') (A") (A') (A") (A") (A') (A') (A') (A')
                 (A') (A") (A') (A") (A') (A') (A') (A') (A') (A')
                 (A") (A') (A') (A") (A") (A') (A") (A") (A') (A')
                 (A') (A') (A') (A') (A') (A") (A") (A') (A") (A')
                 (A") (A') (A") (A') (A') (A') (A") (A') (A") (A')
                 (A") (A') (A') (A") (A') (A') (A') (A') (A') (A')
                 (A') (A') (A') (A') (A') (A') (A')
 The electronic state of the initial guess is 1-A'.
 Requested convergence on RMS density matrix=1.00D-08 within 128 cycles.
 Requested convergence on MAX density matrix=1.00D-06.
 Requested convergence on             energy=1.00D-06.
 No special actions if energy rises.
 SCF Done:  E(RS-VWN) =  -224.978778305     A.U. after   12 cycles
             Convg  =    0.5087D-08             -V/T =  2.0084
             S**2   =   0.0000

 **********************************************************************

            Population analysis using the SCF density.

 **********************************************************************

 Orbital symmetries:
       Occupied  (A') (A') (A') (A') (A') (A') (A') (A') (A') (A')
                 (A') (A") (A') (A') (A') (A') (A") (A")
       Virtual   (A") (A') (A") (A') (A') (A') (A') (A") (A') (A")
                 (A') (A") (A') (A') (A') (A') (A') (A") (A') (A")
                 (A') (A') (A') (A') (A') (A') (A') (A') (A') (A')
                 (A') (A') (A") (A") (A') (A") (A') (A') (A') (A')
                 (A') (A") (A') (A") (A') (A') (A') (A') (A') (A')
                 (A') (A") (A') (A") (A") (A') (A") (A") (A') (A')
                 (A') (A') (A') (A') (A') (A") (A") (A') (A') (A")
                 (A") (A') (A") (A') (A") (A') (A') (A') (A") (A')
                 (A') (A") (A") (A') (A') (A') (A') (A') (A') (A')
                 (A') (A') (A') (A') (A') (A') (A')
 The electronic state is 1-A'.
 Alpha  occ. eigenvalues --  -13.97568 -13.91412  -9.85035  -9.82859  -9.81160
 Alpha  occ. eigenvalues --   -0.99843  -0.77375  -0.73405  -0.57939  -0.57146
 Alpha  occ. eigenvalues --   -0.51777  -0.42844  -0.42647  -0.40629  -0.37703
 Alpha  occ. eigenvalues --   -0.26763  -0.25987  -0.25173
 Alpha virt. eigenvalues --   -0.04122  -0.02478   0.00053   0.00511   0.01170
 Alpha virt. eigenvalues --    0.03446   0.03826   0.03894   0.05658   0.07845
 Alpha virt. eigenvalues --    0.09227   0.09258   0.09553   0.13131   0.14173
 Alpha virt. eigenvalues --    0.15579   0.15747   0.15811   0.16708   0.18910
 Alpha virt. eigenvalues --    0.19498   0.19971   0.21762   0.21933   0.24263
 Alpha virt. eigenvalues --    0.25609   0.27651   0.33415   0.35311   0.38706
 Alpha virt. eigenvalues --    0.44718   0.59462   0.59655   0.62750   0.64192
 Alpha virt. eigenvalues --    0.65653   0.70300   0.77023   0.78301   0.80369
 Alpha virt. eigenvalues --    0.82343   0.82722   0.85927   0.89064   0.90506
 Alpha virt. eigenvalues --    0.91237   0.95605   0.96407   1.05026   1.09008
 Alpha virt. eigenvalues --    1.15498   1.16328   1.17887   1.25170   1.27634
 Alpha virt. eigenvalues --    1.28681   1.36327   1.40665   1.43943   1.47011
 Alpha virt. eigenvalues --    1.69179   1.76213   1.79621   1.90524   1.92131
 Alpha virt. eigenvalues --    1.93145   2.01649   2.02433   2.11066   2.11137
 Alpha virt. eigenvalues --    2.19836   2.22803   2.28858   2.33452   2.37006
 Alpha virt. eigenvalues --    2.38057   2.39933   2.47664   2.50722   2.51924
 Alpha virt. eigenvalues --    2.59734   2.59811   2.69617   2.69885   2.81016
 Alpha virt. eigenvalues --    2.84065   3.05671   3.13134   3.18666   3.30312
 Alpha virt. eigenvalues --    3.50774   3.72712   3.94720   4.17173   4.24932
 Alpha virt. eigenvalues --    4.36770   4.67851
          Condensed to atoms (all electrons):
              1          2          3          4          5          6
     1  H    0.517905   0.357343  -0.001376  -0.024958  -0.000136   0.012679
     2  C    0.357343   5.095069   0.010569   0.525578   0.021695  -0.026965
     3  H   -0.001376   0.010569   0.528014   0.280918  -0.001368   0.006710
     4  C   -0.024958   0.525578   0.280918   5.397605  -0.079087   0.088209
     5  H   -0.000136   0.021695  -0.001368  -0.079087   0.542648   0.416395
     6  C    0.012679  -0.026965   0.006710   0.088209   0.416395   5.433120
     7  N    0.013017  -0.116579   0.008587   0.131994  -0.087447   0.203494
     8  H   -0.001509  -0.020479  -0.000138  -0.008335  -0.000070   0.018888
     9  N   -0.049435   0.404831   0.007376  -0.341914   0.023435   0.068423
              7          8          9
     1  H    0.013017  -0.001509  -0.049435
     2  C   -0.116579  -0.020479   0.404831
     3  H    0.008587  -0.000138   0.007376
     4  C    0.131994  -0.008335  -0.341914
     5  H   -0.087447  -0.000070   0.023435
     6  C    0.203494   0.018888   0.068423
     7  N    6.869176  -0.055972   0.227606
     8  H   -0.055972   0.408248   0.326651
     9  N    0.227606   0.326651   6.530954
 Mulliken atomic charges:
              1
     1  H    0.176471
     2  C   -0.251062
     3  H    0.160708
     4  C    0.029989
     5  H    0.163935
     6  C   -0.220954
     7  N   -0.193876
     8  H    0.332717
     9  N   -0.197928
 Sum of Mulliken charges=   0.00000
 Atomic charges with hydrogens summed into heavy atoms:
              1
     1  H    0.000000
     2  C   -0.074591
     3  H    0.000000
     4  C    0.190697
     5  H    0.000000
     6  C   -0.057019
     7  N   -0.193876
     8  H    0.000000
     9  N    0.134789
 Sum of Mulliken charges=   0.00000
 Electronic spatial extent (au):  <R**2>=   282.1254
 Charge=     0.0000 electrons
 Dipole moment (field-independent basis, Debye):
    X=     2.2011    Y=     0.8906    Z=     0.0000  Tot=     2.3744
 Quadrupole moment (field-independent basis, Debye-Ang):
   XX=   -30.3157   YY=   -22.3275   ZZ=   -32.3155
   XY=     2.6099   XZ=     0.0000   YZ=     0.0000
 Traceless Quadrupole moment (field-independent basis, Debye-Ang):
   XX=    -1.9962   YY=     5.9921   ZZ=    -3.9959
   XY=     2.6099   XZ=     0.0000   YZ=     0.0000
 Octapole moment (field-independent basis, Debye-Ang**2):
  XXX=    10.1098  YYY=    12.0114  ZZZ=     0.0000  XYY=     0.6596
  XXY=    -2.7567  XXZ=     0.0000  XZZ=    -0.9189  YZZ=     2.2373
  YYZ=     0.0000  XYZ=     0.0000
 Hexadecapole moment (field-independent basis, Debye-Ang**3):
 XXXX=  -180.5999 YYYY=  -134.3582 ZZZZ=   -37.6908 XXXY=    11.6092
 XXXZ=     0.0000 YYYX=    -1.2100 YYYZ=     0.0000 ZZZX=     0.0000
 ZZZY=     0.0000 XXYY=   -52.7373 XXZZ=   -40.3684 YYZZ=   -38.3557
 XXYZ=     0.0000 YYXZ=     0.0000 ZZXY=     0.2166
 N-N= 1.649559149755D+02 E-N=-8.541359108771D+02  KE= 2.231131274820D+02
 Symmetry A'   KE= 2.149193016043D+02
 Symmetry A"   KE= 8.193825877650D+00
 Calling FoFCou, ICntrl=  2527 FMM=F ISym2X=1 I1Cent= 0 ISCF1= 0.
 ***** Axes restored to original set *****
 -------------------------------------------------------------------
 Center     Atomic                   Forces (Hartrees/Bohr)
 Number     Number              X              Y              Z
 -------------------------------------------------------------------
    1          1           0.013576014    0.005426481    0.000000000
    2          6           0.004703504    0.003090367    0.000000000
    3          1           0.007907238   -0.011537675    0.000000000
    4          6          -0.014333366   -0.002737574    0.000000000
    5          1          -0.009987768   -0.010640928    0.000000000
    6          6           0.018489673   -0.017792177    0.000000000
    7          7          -0.015656659    0.024369657    0.000000000
    8          1          -0.001244014    0.023534464    0.000000000
    9          7          -0.003454621   -0.013712615    0.000000000
 -------------------------------------------------------------------
 Cartesian Forces:  Max     0.024369657 RMS     0.010749375

 GradGradGradGradGradGradGradGradGradGradGradGradGradGradGradGradGradGrad
 Berny optimization.
 Internal  Forces:  Max     0.028434023 RMS     0.008149687
 Search for a local minimum.
 Step number   1 out of a maximum of  48
 All quantities printed in internal units (Hartrees-Bohrs-Radians)
 Second derivative matrix not updated -- first step.
     Eigenvalues ---    0.02140   0.02277   0.02344   0.02397   0.02534
     Eigenvalues ---    0.02554   0.16000   0.16000   0.16000   0.16000
     Eigenvalues ---    0.22000   0.22929   0.37105   0.37238   0.37308
     Eigenvalues ---    0.40394   0.48796   0.49002   0.53148   0.57511
     Eigenvalues ---    0.639231000.000001000.000001000.000001000.00000
     Eigenvalues --- 1000.000001000.000001000.000001000.000001000.00000
     Eigenvalues --- 1000.000001000.000001000.000001000.000001000.00000
     Eigenvalues --- 1000.000001000.000001000.00000
 RFO step:  Lambda=-4.97174961D-03.
 Linear search not attempted -- first point.
 Iteration  1 RMS(Cart)=  0.02065505 RMS(Int)=  0.00002168
 Iteration  2 RMS(Cart)=  0.00002610 RMS(Int)=  0.00000629
 Iteration  3 RMS(Cart)=  0.00000000 RMS(Int)=  0.00000629
 Variable       Old X    -DE/DX   Delta X   Delta X   Delta X     New X
                                 (Linear)    (Quad)   (Total)
    R1        2.02190   0.01462   0.00000   0.03873   0.03873   2.06063
    R2        2.57552   0.01703   0.00000   0.03107   0.03107   2.60659
    R3        2.53480   0.01354   0.00000   0.02321   0.02322   2.55802
    R4        2.02084   0.01399   0.00000   0.03700   0.03700   2.05783
    R5        2.67030   0.00023   0.00000   0.00029   0.00028   2.67058
    R6        2.02389   0.01459   0.00000   0.03881   0.03881   2.06270
    R7        2.46123   0.02843   0.00000   0.04319   0.04319   2.50441
    R8        2.51306   0.00718   0.00000   0.01268   0.01269   2.52575
    R9        1.87586   0.02357   0.00000   0.04761   0.04761   1.92347
    A1        2.29797  -0.00015   0.00000   0.00073   0.00072   2.29869
    A2        2.12422   0.00051   0.00000   0.00473   0.00473   2.12895
    A3        1.86100  -0.00037   0.00000  -0.00546  -0.00545   1.85554
    A4        2.23035  -0.00127   0.00000  -0.00424  -0.00423   2.22611
    A5        1.81292   0.00215   0.00000   0.00605   0.00604   1.81896
    A6        2.23992  -0.00087   0.00000  -0.00181  -0.00181   2.23811
    A7        2.23827   0.00032   0.00000   0.00090   0.00091   2.23918
    A8        1.95036  -0.00053   0.00000  -0.00113  -0.00115   1.94921
    A9        2.09456   0.00021   0.00000   0.00023   0.00024   2.09480
   A10        1.83126  -0.00206   0.00000  -0.00345  -0.00345   1.82782
   A11        1.96924   0.00081   0.00000   0.00399   0.00401   1.97325
   A12        2.23320  -0.00030   0.00000  -0.00134  -0.00135   2.23185
   A13        2.08074  -0.00051   0.00000  -0.00265  -0.00266   2.07808
    D1        0.00000   0.00000   0.00000   0.00000   0.00000   0.00000
    D2        3.14159   0.00000   0.00000   0.00000   0.00000   3.14159
    D3        3.14159   0.00000   0.00000   0.00000   0.00000   3.14159
    D4        0.00000   0.00000   0.00000   0.00000   0.00000   0.00000
    D5        3.14159   0.00000   0.00000   0.00000   0.00000   3.14159
    D6        0.00000   0.00000   0.00000   0.00000   0.00000   0.00000
    D7        0.00000   0.00000   0.00000   0.00000   0.00000   0.00000
    D8        3.14159   0.00000   0.00000   0.00000   0.00000   3.14159
    D9        3.14159   0.00000   0.00000   0.00000   0.00000   3.14159
   D10        0.00000   0.00000   0.00000   0.00000   0.00000   0.00000
   D11        0.00000   0.00000   0.00000   0.00000   0.00000   0.00000
   D12        3.14159   0.00000   0.00000   0.00000   0.00000   3.14159
   D13        0.00000   0.00000   0.00000   0.00000   0.00000   0.00000
   D14        3.14159   0.00000   0.00000   0.00000   0.00000   3.14159
   D15        0.00000   0.00000   0.00000   0.00000   0.00000   0.00000
   D16        3.14159   0.00000   0.00000   0.00000   0.00000   3.14159
         Item               Value     Threshold  Converged?
 Maximum Force            0.028434     0.000450     NO 
 RMS     Force            0.008150     0.000300     NO 
 Maximum Displacement     0.067898     0.001800     NO 
 RMS     Displacement     0.020649     0.001200     NO 
 Predicted change in Energy=-2.511540D-03
 GradGradGradGradGradGradGradGradGradGradGradGradGradGradGradGradGradGrad

                          Input orientation:                          
 ---------------------------------------------------------------------
 Center     Atomic     Atomic              Coordinates (Angstroms)
 Number     Number      Type              X           Y           Z
 ---------------------------------------------------------------------
    1          1             0        2.108231    0.732155    0.000000
    2          6             0        1.103866    0.307528    0.000000
    3          1             0        1.263292   -1.904655    0.000000
    4          6             0        0.659633   -0.998329    0.000000
    5          1             0       -1.491616   -1.685821    0.000000
    6          6             0       -0.749086   -0.885760    0.000000
    7          7             0       -1.139051    0.380845    0.000000
    8          1             0       -0.052840    2.102590    0.000000
    9          7             0       -0.003588    1.085928    0.000000
 ---------------------------------------------------------------------
                    Distance matrix (angstroms):
                    1          2          3          4          5
     1  H    0.000000
     2  C    1.090439   0.000000
     3  H    2.768878   2.217920   0.000000
     4  C    2.256770   1.379350   1.088959   0.000000
     5  H    4.336532   3.272609   2.763586   2.258432   0.000000
     6  C    3.283582   2.203944   2.255617   1.413209   1.091535
     7  N    3.266230   2.244115   3.315835   2.266579   2.096524
     8  H    2.558969   2.135466   4.217845   3.181716   4.052423
     9  N    2.141247   1.353647   3.247856   2.187233   3.145921
                    6          7          8          9
     6  C    0.000000
     7  N    1.325278   0.000000
     8  H    3.068387   2.035745   0.000000
     9  N    2.107918   1.336569   1.017855   0.000000
 Stoichiometry    C3H4N2
 Framework group  CS[SG(C3H4N2)]
 Deg. of freedom    15
 Full point group                 CS
 Largest Abelian subgroup         CS      NOp   2
 Largest concise Abelian subgroup C1      NOp   1
                         Standard orientation:                         
 ---------------------------------------------------------------------
 Center     Atomic     Atomic              Coordinates (Angstroms)
 Number     Number      Type              X           Y           Z
 ---------------------------------------------------------------------
    1          1             0        2.111417    0.728309    0.000000
    2          6             0        1.106572    0.304821    0.000000
    3          1             0        1.263490   -1.907541    0.000000
    4          6             0        0.660858   -1.000532    0.000000
    5          1             0       -1.491169   -1.685585    0.000000
    6          6             0       -0.747732   -0.886367    0.000000
    7          7             0       -1.136261    0.380680    0.000000
    8          1             0       -0.048100    2.101193    0.000000
    9          7             0        0.000000    1.084475    0.000000
 ---------------------------------------------------------------------
 Rotational constants (GHZ):      9.6607735      9.4876820      4.7867227
 Standard basis: 6-31+G(d,p) (6D, 7F)
 There are    86 symmetry adapted basis functions of A'  symmetry.
 There are    29 symmetry adapted basis functions of A"  symmetry.
 Integral buffers will be    131072 words long.
 Raffenetti 2 integral format.
 Two-electron integral symmetry is turned on.
   115 basis functions,   188 primitive gaussians,   115 cartesian basis functions
    18 alpha electrons       18 beta electrons
       nuclear repulsion energy       163.2766372535 Hartrees.
 NAtoms=    9 NActive=    9 NUniq=    9 SFac= 7.50D-01 NAtFMM=   80 NAOKFM=F Big=F
 One-electron integrals computed using PRISM.
 NBasis=   115 RedAO= T  NBF=    86    29
 NBsUse=   115 1.00D-06 NBFU=    86    29
 Initial guess read from the read-write file:
 Initial guess orbital symmetries:
       Occupied  (A') (A') (A') (A') (A') (A') (A') (A') (A') (A')
                 (A') (A") (A') (A') (A') (A') (A") (A")
       Virtual   (A") (A') (A") (A') (A') (A') (A') (A") (A') (A")
                 (A') (A") (A') (A') (A') (A') (A') (A") (A') (A")
                 (A') (A') (A') (A') (A') (A') (A') (A') (A') (A')
                 (A') (A') (A") (A") (A') (A") (A') (A') (A') (A')
                 (A') (A") (A') (A") (A') (A') (A') (A') (A') (A')
                 (A') (A") (A') (A") (A") (A') (A") (A") (A') (A')
                 (A') (A') (A') (A') (A') (A") (A") (A') (A') (A")
                 (A") (A') (A") (A') (A") (A') (A') (A') (A") (A')
                 (A') (A") (A") (A') (A') (A') (A') (A') (A') (A')
                 (A') (A') (A') (A') (A') (A') (A')
 Harris functional with IExCor=  205 diagonalized for initial guess.
 ExpMin= 4.38D-02 ExpMax= 4.17D+03 ExpMxC= 6.27D+02 IAcc=2 IRadAn=         4 AccDes= 0.00D+00
 HarFok:  IExCor= 205 AccDes= 0.00D+00 IRadAn=         4 IDoV=1
 ScaDFX=  1.000000  1.000000  1.000000  1.000000
 Requested convergence on RMS density matrix=1.00D-08 within 128 cycles.
 Requested convergence on MAX density matrix=1.00D-06.
 Requested convergence on             energy=1.00D-06.
 No special actions if energy rises.
 SCF Done:  E(RS-VWN) =  -224.981292731     A.U. after   10 cycles
             Convg  =    0.6604D-08             -V/T =  2.0097
             S**2   =   0.0000
 Calling FoFCou, ICntrl=  2527 FMM=F ISym2X=1 I1Cent= 0 ISCF1= 0.
 ***** Axes restored to original set *****
 -------------------------------------------------------------------
 Center     Atomic                   Forces (Hartrees/Bohr)
 Number     Number              X              Y              Z
 -------------------------------------------------------------------
    1          1          -0.000328552   -0.000125425    0.000000000
    2          6           0.002402253    0.001366272    0.000000000
    3          1           0.000240865    0.000302914    0.000000000
    4          6          -0.005154313    0.000708273    0.000000000
    5          1          -0.000260096    0.000872696    0.000000000
    6          6           0.006820457   -0.004812098    0.000000000
    7          7          -0.003263763    0.005959149    0.000000000
    8          1          -0.000073634   -0.000015469    0.000000000
    9          7          -0.000383217   -0.004256313    0.000000000
 -------------------------------------------------------------------
 Cartesian Forces:  Max     0.006820457 RMS     0.002508623

 GradGradGradGradGradGradGradGradGradGradGradGradGradGradGradGradGradGrad
 Berny optimization.
 Internal  Forces:  Max     0.004127665 RMS     0.001162270
 Search for a local minimum.
 Step number   2 out of a maximum of  48
 All quantities printed in internal units (Hartrees-Bohrs-Radians)
 Update second derivatives using D2CorX and points  1  2
 Trust test= 1.00D+00 RLast= 1.02D-01 DXMaxT set to 3.05D-01
     Eigenvalues ---    0.02140   0.02277   0.02344   0.02397   0.02533
     Eigenvalues ---    0.02554   0.15965   0.16000   0.16000   0.16006
     Eigenvalues ---    0.21605   0.22704   0.37157   0.37269   0.37576
     Eigenvalues ---    0.40778   0.48715   0.49859   0.54457   0.58306
     Eigenvalues ---    0.601601000.000001000.000001000.000001000.00000
     Eigenvalues --- 1000.000001000.000001000.000001000.000001000.00000
     Eigenvalues --- 1000.000001000.000001000.000001000.000001000.00000
     Eigenvalues --- 1000.000001000.000001000.00000
 RFO step:  Lambda=-1.49521390D-04.
 Quartic linear search produced a step of  0.03498.
 Iteration  1 RMS(Cart)=  0.00283166 RMS(Int)=  0.00000958
 Iteration  2 RMS(Cart)=  0.00001099 RMS(Int)=  0.00000421
 Iteration  3 RMS(Cart)=  0.00000000 RMS(Int)=  0.00000421
 Variable       Old X    -DE/DX   Delta X   Delta X   Delta X     New X
                                 (Linear)    (Quad)   (Total)
    R1        2.06063  -0.00035   0.00135  -0.00108   0.00028   2.06091
    R2        2.60659  -0.00004   0.00109  -0.00048   0.00060   2.60719
    R3        2.55802  -0.00035   0.00081  -0.00090  -0.00008   2.55795
    R4        2.05783  -0.00012   0.00129  -0.00042   0.00087   2.05870
    R5        2.67058  -0.00366   0.00001  -0.00864  -0.00864   2.66194
    R6        2.06270  -0.00046   0.00136  -0.00139  -0.00003   2.06267
    R7        2.50441   0.00413   0.00151   0.00651   0.00802   2.51243
    R8        2.52575  -0.00107   0.00044  -0.00177  -0.00132   2.52443
    R9        1.92347  -0.00001   0.00167  -0.00018   0.00149   1.92496
    A1        2.29869   0.00060   0.00003   0.00361   0.00363   2.30232
    A2        2.12895   0.00055   0.00017   0.00329   0.00345   2.13241
    A3        1.85554  -0.00116  -0.00019  -0.00689  -0.00708   1.84846
    A4        2.22611  -0.00086  -0.00015  -0.00422  -0.00437   2.22174
    A5        1.81896   0.00093   0.00021   0.00339   0.00359   1.82256
    A6        2.23811  -0.00007  -0.00006   0.00083   0.00077   2.23888
    A7        2.23918   0.00042   0.00003   0.00318   0.00322   2.24240
    A8        1.94921   0.00075  -0.00004   0.00392   0.00387   1.95308
    A9        2.09480  -0.00117   0.00001  -0.00710  -0.00709   2.08771
   A10        1.82782  -0.00263  -0.00012  -0.00992  -0.01003   1.81779
   A11        1.97325   0.00211   0.00014   0.00950   0.00965   1.98290
   A12        2.23185  -0.00097  -0.00005  -0.00421  -0.00426   2.22759
   A13        2.07808  -0.00114  -0.00009  -0.00529  -0.00538   2.07270
    D1        0.00000   0.00000   0.00000   0.00000   0.00000   0.00000
    D2        3.14159   0.00000   0.00000   0.00000   0.00000   3.14159
    D3        3.14159   0.00000   0.00000   0.00000   0.00000   3.14159
    D4        0.00000   0.00000   0.00000   0.00000   0.00000   0.00000
    D5        3.14159   0.00000   0.00000   0.00000   0.00000   3.14159
    D6        0.00000   0.00000   0.00000   0.00000   0.00000   0.00000
    D7        0.00000   0.00000   0.00000   0.00000   0.00000   0.00000
    D8        3.14159   0.00000   0.00000   0.00000   0.00000   3.14159
    D9        3.14159   0.00000   0.00000   0.00000   0.00000   3.14159
   D10        0.00000   0.00000   0.00000   0.00000   0.00000   0.00000
   D11        0.00000   0.00000   0.00000   0.00000   0.00000   0.00000
   D12        3.14159   0.00000   0.00000   0.00000   0.00000   3.14159
   D13        0.00000   0.00000   0.00000   0.00000   0.00000   0.00000
   D14        3.14159   0.00000   0.00000   0.00000   0.00000   3.14159
   D15        0.00000   0.00000   0.00000   0.00000   0.00000   0.00000
   D16        3.14159   0.00000   0.00000   0.00000   0.00000   3.14159
         Item               Value     Threshold  Converged?
 Maximum Force            0.004128     0.000450     NO 
 RMS     Force            0.001162     0.000300     NO 
 Maximum Displacement     0.008291     0.001800     NO 
 RMS     Displacement     0.002835     0.001200     NO 
 Predicted change in Energy=-7.707178D-05
 GradGradGradGradGradGradGradGradGradGradGradGradGradGradGradGradGradGrad

                          Input orientation:                          
 ---------------------------------------------------------------------
 Center     Atomic     Atomic              Coordinates (Angstroms)
 Number     Number      Type              X           Y           Z
 ---------------------------------------------------------------------
    1          1             0        2.110447    0.732802    0.000000
    2          6             0        1.106172    0.307584    0.000000
    3          1             0        1.262856   -1.903132    0.000000
    4          6             0        0.657791   -0.997190    0.000000
    5          1             0       -1.491120   -1.683705    0.000000
    6          6             0       -0.746425   -0.885681    0.000000
    7          7             0       -1.143185    0.383260    0.000000
    8          1             0       -0.053351    2.099003    0.000000
    9          7             0       -0.004343    1.081540    0.000000
 ---------------------------------------------------------------------
                    Distance matrix (angstroms):
                    1          2          3          4          5
     1  H    0.000000
     2  C    1.090586   0.000000
     3  H    2.768856   2.216262   0.000000
     4  C    2.259000   1.379667   1.089420   0.000000
     5  H    4.337141   3.272791   2.762704   2.255909   0.000000
     6  C    3.283474   2.203633   2.252202   1.408637   1.091519
     7  N    3.272354   2.250630   3.319130   2.269175   2.096045
     8  H    2.559009   2.133934   4.213014   3.176811   4.046734
     9  N    2.143351   1.353606   3.242539   2.181637   3.139600
                    6          7          8          9
     6  C    0.000000
     7  N    1.329523   0.000000
     8  H    3.064097   2.032612   0.000000
     9  N    2.102533   1.335873   1.018642   0.000000
 Stoichiometry    C3H4N2
 Framework group  CS[SG(C3H4N2)]
 Deg. of freedom    15
 Full point group                 CS
 Largest Abelian subgroup         CS      NOp   2
 Largest concise Abelian subgroup C1      NOp   1
                         Standard orientation:                         
 ---------------------------------------------------------------------
 Center     Atomic     Atomic              Coordinates (Angstroms)
 Number     Number      Type              X           Y           Z
 ---------------------------------------------------------------------
    1          1             0        2.114269    0.728364    0.000000
    2          6             0        1.109365    0.304637    0.000000
    3          1             0        1.262768   -1.906310    0.000000
    4          6             0        0.659049   -0.999470    0.000000
    5          1             0       -1.490879   -1.682796    0.000000
    6          6             0       -0.745000   -0.885878    0.000000
    7          7             0       -1.139877    0.383650    0.000000
    8          1             0       -0.047499    2.097774    0.000000
    9          7             0        0.000000    1.080240    0.000000
 ---------------------------------------------------------------------
 Rotational constants (GHZ):      9.6884147      9.4684761      4.7885915
 Standard basis: 6-31+G(d,p) (6D, 7F)
 There are    86 symmetry adapted basis functions of A'  symmetry.
 There are    29 symmetry adapted basis functions of A"  symmetry.
 Integral buffers will be    131072 words long.
 Raffenetti 2 integral format.
 Two-electron integral symmetry is turned on.
   115 basis functions,   188 primitive gaussians,   115 cartesian basis functions
    18 alpha electrons       18 beta electrons
       nuclear repulsion energy       163.2946090548 Hartrees.
 NAtoms=    9 NActive=    9 NUniq=    9 SFac= 7.50D-01 NAtFMM=   80 NAOKFM=F Big=F
 One-electron integrals computed using PRISM.
 NBasis=   115 RedAO= T  NBF=    86    29
 NBsUse=   115 1.00D-06 NBFU=    86    29
 Initial guess read from the read-write file:
 Initial guess orbital symmetries:
       Occupied  (A') (A') (A') (A') (A') (A') (A') (A') (A') (A')
                 (A') (A") (A') (A') (A') (A') (A") (A")
       Virtual   (A") (A') (A") (A') (A') (A') (A') (A") (A') (A")
                 (A') (A') (A") (A') (A') (A') (A') (A") (A') (A")
                 (A') (A') (A') (A') (A') (A') (A') (A') (A') (A')
                 (A') (A') (A") (A") (A') (A") (A') (A') (A') (A')
                 (A') (A") (A') (A") (A') (A') (A') (A') (A') (A')
                 (A') (A") (A') (A") (A") (A') (A") (A") (A') (A')
                 (A') (A') (A') (A') (A') (A") (A') (A") (A') (A")
                 (A") (A') (A") (A') (A") (A') (A') (A') (A") (A')
                 (A") (A') (A") (A') (A') (A') (A') (A') (A') (A')
                 (A') (A') (A') (A') (A') (A') (A')
 Requested convergence on RMS density matrix=1.00D-08 within 128 cycles.
 Requested convergence on MAX density matrix=1.00D-06.
 Requested convergence on             energy=1.00D-06.
 No special actions if energy rises.
 SCF Done:  E(RS-VWN) =  -224.981373875     A.U. after   10 cycles
             Convg  =    0.2021D-08             -V/T =  2.0097
             S**2   =   0.0000
 Calling FoFCou, ICntrl=  2527 FMM=F ISym2X=1 I1Cent= 0 ISCF1= 0.
 ***** Axes restored to original set *****
 -------------------------------------------------------------------
 Center     Atomic                   Forces (Hartrees/Bohr)
 Number     Number              X              Y              Z
 -------------------------------------------------------------------
    1          1          -0.000622155   -0.000096697    0.000000000
    2          6           0.000035318    0.001047623    0.000000000
    3          1          -0.000155981    0.000340459    0.000000000
    4          6          -0.001838811   -0.000625419    0.000000000
    5          1           0.000071116    0.000473130    0.000000000
    6          6           0.001424855   -0.003147097    0.000000000
    7          7           0.000850425    0.001489262    0.000000000
    8          1           0.000186091   -0.000434244    0.000000000
    9          7           0.000049141    0.000952983    0.000000000
 -------------------------------------------------------------------
 Cartesian Forces:  Max     0.003147097 RMS     0.000895380

 GradGradGradGradGradGradGradGradGradGradGradGradGradGradGradGradGradGrad
 Berny optimization.
 Internal  Forces:  Max     0.001781253 RMS     0.000551135
 Search for a local minimum.
 Step number   3 out of a maximum of  48
 All quantities printed in internal units (Hartrees-Bohrs-Radians)
 Update second derivatives using D2CorX and points  1  2  3
 Trust test= 1.05D+00 RLast= 2.38D-02 DXMaxT set to 3.05D-01
     Eigenvalues ---    0.02138   0.02275   0.02343   0.02397   0.02533
     Eigenvalues ---    0.02553   0.14694   0.16000   0.16000   0.16056
     Eigenvalues ---    0.20880   0.29226   0.34606   0.37197   0.37311
     Eigenvalues ---    0.39052   0.48252   0.50838   0.51762   0.58437
     Eigenvalues ---    0.584621000.000001000.000001000.000001000.00000
     Eigenvalues --- 1000.000001000.000001000.000001000.000001000.00000
     Eigenvalues --- 1000.000001000.000001000.000001000.000001000.00000
     Eigenvalues --- 1000.000001000.000001000.00000
 RFO step:  Lambda=-3.18809205D-05.
 Quartic linear search produced a step of  0.04891.
 Iteration  1 RMS(Cart)=  0.00141819 RMS(Int)=  0.00000158
 Iteration  2 RMS(Cart)=  0.00000176 RMS(Int)=  0.00000039
 Iteration  3 RMS(Cart)=  0.00000000 RMS(Int)=  0.00000039
 Variable       Old X    -DE/DX   Delta X   Delta X   Delta X     New X
                                 (Linear)    (Quad)   (Total)
    R1        2.06091  -0.00061   0.00001  -0.00139  -0.00138   2.05953
    R2        2.60719   0.00113   0.00003   0.00247   0.00250   2.60969
    R3        2.55795  -0.00074   0.00000  -0.00134  -0.00134   2.55660
    R4        2.05870  -0.00037   0.00004  -0.00063  -0.00059   2.05811
    R5        2.66194  -0.00166  -0.00042  -0.00521  -0.00563   2.65630
    R6        2.06267  -0.00039   0.00000  -0.00083  -0.00083   2.06184
    R7        2.51243   0.00178   0.00039   0.00448   0.00487   2.51730
    R8        2.52443  -0.00043  -0.00006  -0.00085  -0.00091   2.52352
    R9        1.92496  -0.00044   0.00007  -0.00037  -0.00030   1.92465
    A1        2.30232  -0.00004   0.00018   0.00094   0.00112   2.30344
    A2        2.13241  -0.00038   0.00017  -0.00128  -0.00111   2.13129
    A3        1.84846   0.00042  -0.00035   0.00034  -0.00001   1.84845
    A4        2.22174  -0.00021  -0.00021  -0.00180  -0.00202   2.21973
    A5        1.82256   0.00027   0.00018   0.00185   0.00203   1.82459
    A6        2.23888  -0.00006   0.00004  -0.00005  -0.00001   2.23887
    A7        2.24240   0.00065   0.00016   0.00380   0.00396   2.24636
    A8        1.95308  -0.00078   0.00019  -0.00254  -0.00235   1.95073
    A9        2.08771   0.00012  -0.00035  -0.00126  -0.00161   2.08610
   A10        1.81779   0.00075  -0.00049   0.00220   0.00171   1.81950
   A11        1.98290  -0.00066   0.00047  -0.00185  -0.00138   1.98151
   A12        2.22759   0.00018  -0.00021   0.00005  -0.00016   2.22743
   A13        2.07270   0.00048  -0.00026   0.00180   0.00154   2.07424
    D1        0.00000   0.00000   0.00000   0.00000   0.00000   0.00000
    D2        3.14159   0.00000   0.00000   0.00000   0.00000   3.14159
    D3        3.14159   0.00000   0.00000   0.00000   0.00000   3.14159
    D4        0.00000   0.00000   0.00000   0.00000   0.00000   0.00000
    D5        3.14159   0.00000   0.00000   0.00000   0.00000   3.14159
    D6        0.00000   0.00000   0.00000   0.00000   0.00000   0.00000
    D7        0.00000   0.00000   0.00000   0.00000   0.00000   0.00000
    D8        3.14159   0.00000   0.00000   0.00000   0.00000   3.14159
    D9        3.14159   0.00000   0.00000   0.00000   0.00000   3.14159
   D10        0.00000   0.00000   0.00000   0.00000   0.00000   0.00000
   D11        0.00000   0.00000   0.00000   0.00000   0.00000   0.00000
   D12        3.14159   0.00000   0.00000   0.00000   0.00000   3.14159
   D13        0.00000   0.00000   0.00000   0.00000   0.00000   0.00000
   D14        3.14159   0.00000   0.00000   0.00000   0.00000   3.14159
   D15        0.00000   0.00000   0.00000   0.00000   0.00000   0.00000
   D16        3.14159   0.00000   0.00000   0.00000   0.00000   3.14159
         Item               Value     Threshold  Converged?
 Maximum Force            0.001781     0.000450     NO 
 RMS     Force            0.000551     0.000300     NO 
 Maximum Displacement     0.005091     0.001800     NO 
 RMS     Displacement     0.001418     0.001200     NO 
 Predicted change in Energy=-1.612387D-05
 GradGradGradGradGradGradGradGradGradGradGradGradGradGradGradGradGradGrad

                          Input orientation:                          
 ---------------------------------------------------------------------
 Center     Atomic     Atomic              Coordinates (Angstroms)
 Number     Number      Type              X           Y           Z
 ---------------------------------------------------------------------
    1          1             0        2.109085    0.733604    0.000000
    2          6             0        1.105709    0.308136    0.000000
    3          1             0        1.262314   -1.902443    0.000000
    4          6             0        0.656129   -0.997626    0.000000
    5          1             0       -1.491676   -1.684199    0.000000
    6          6             0       -0.745274   -0.888375    0.000000
    7          7             0       -1.141645    0.383387    0.000000
    8          1             0       -0.052026    2.099667    0.000000
    9          7             0       -0.003775    1.082328    0.000000
 ---------------------------------------------------------------------
                    Distance matrix (angstroms):
                    1          2          3          4          5
     1  H    0.000000
     2  C    1.089856   0.000000
     3  H    2.768711   2.216119   0.000000
     4  C    2.260140   1.380991   1.089107   0.000000
     5  H    4.337193   3.273500   2.762624   2.254872   0.000000
     6  C    3.283014   2.204037   2.249165   1.405655   1.091078
     7  N    3.269541   2.248614   3.317234   2.266978   2.097006
     8  H    2.556664   2.133058   4.212407   3.177217   4.048485
     9  N    2.141444   1.352896   3.242196   2.182127   3.141261
                    6          7          8          9
     6  C    0.000000
     7  N    1.332100   0.000000
     8  H    3.067408   2.032951   0.000000
     9  N    2.105586   1.335390   1.018483   0.000000
 Stoichiometry    C3H4N2
 Framework group  CS[SG(C3H4N2)]
 Deg. of freedom    15
 Full point group                 CS
 Largest Abelian subgroup         CS      NOp   2
 Largest concise Abelian subgroup C1      NOp   1
                         Standard orientation:                         
 ---------------------------------------------------------------------
 Center     Atomic     Atomic              Coordinates (Angstroms)
 Number     Number      Type              X           Y           Z
 ---------------------------------------------------------------------
    1          1             0        2.112455    0.730064    0.000000
    2          6             0        1.108587    0.305758    0.000000
    3          1             0        1.262635   -1.905000    0.000000
    4          6             0        0.657497   -0.999483    0.000000
    5          1             0       -1.491101   -1.683570    0.000000
    6          6             0       -0.743779   -0.888611    0.000000
    7          7             0       -1.138679    0.383609    0.000000
    8          1             0       -0.047074    2.098627    0.000000
    9          7             0        0.000000    1.081233    0.000000
 ---------------------------------------------------------------------
 Rotational constants (GHZ):      9.6698079      9.4885485      4.7891604
 Standard basis: 6-31+G(d,p) (6D, 7F)
 There are    86 symmetry adapted basis functions of A'  symmetry.
 There are    29 symmetry adapted basis functions of A"  symmetry.
 Integral buffers will be    131072 words long.
 Raffenetti 2 integral format.
 Two-electron integral symmetry is turned on.
   115 basis functions,   188 primitive gaussians,   115 cartesian basis functions
    18 alpha electrons       18 beta electrons
       nuclear repulsion energy       163.2999500123 Hartrees.
 NAtoms=    9 NActive=    9 NUniq=    9 SFac= 7.50D-01 NAtFMM=   80 NAOKFM=F Big=F
 One-electron integrals computed using PRISM.
 NBasis=   115 RedAO= T  NBF=    86    29
 NBsUse=   115 1.00D-06 NBFU=    86    29
 Initial guess read from the read-write file:
 Initial guess orbital symmetries:
       Occupied  (A') (A') (A') (A') (A') (A') (A') (A') (A') (A')
                 (A') (A") (A') (A') (A') (A') (A") (A")
       Virtual   (A") (A') (A") (A') (A') (A') (A') (A") (A') (A")
                 (A') (A') (A") (A') (A') (A') (A') (A") (A') (A")
                 (A') (A') (A') (A') (A') (A') (A') (A') (A') (A')
                 (A') (A') (A") (A") (A') (A") (A') (A') (A') (A')
                 (A') (A") (A') (A") (A') (A') (A') (A') (A') (A')
                 (A') (A") (A') (A") (A") (A') (A") (A") (A') (A')
                 (A') (A') (A') (A') (A') (A") (A') (A") (A') (A")
                 (A") (A') (A") (A') (A") (A') (A') (A') (A") (A')
                 (A") (A') (A") (A') (A') (A') (A') (A') (A') (A')
                 (A') (A') (A') (A') (A') (A') (A')
 Requested convergence on RMS density matrix=1.00D-08 within 128 cycles.
 Requested convergence on MAX density matrix=1.00D-06.
 Requested convergence on             energy=1.00D-06.
 No special actions if energy rises.
 SCF Done:  E(RS-VWN) =  -224.981388357     A.U. after    9 cycles
             Convg  =    0.7156D-08             -V/T =  2.0097
             S**2   =   0.0000
 Calling FoFCou, ICntrl=  2527 FMM=F ISym2X=1 I1Cent= 0 ISCF1= 0.
 ***** Axes restored to original set *****
 -------------------------------------------------------------------
 Center     Atomic                   Forces (Hartrees/Bohr)
 Number     Number              X              Y              Z
 -------------------------------------------------------------------
    1          1          -0.000080267   -0.000080474    0.000000000
    2          6          -0.000080097    0.000099971    0.000000000
    3          1           0.000008542    0.000125959    0.000000000
    4          6           0.000459126   -0.000139330    0.000000000
    5          1           0.000003105    0.000231343    0.000000000
    6          6          -0.000301141    0.000194399    0.000000000
    7          7           0.000162227    0.000060535    0.000000000
    8          1           0.000025933   -0.000301011    0.000000000
    9          7          -0.000197427   -0.000191392    0.000000000
 -------------------------------------------------------------------
 Cartesian Forces:  Max     0.000459126 RMS     0.000155677

 GradGradGradGradGradGradGradGradGradGradGradGradGradGradGradGradGradGrad
 Berny optimization.
 Internal  Forces:  Max     0.000350131 RMS     0.000134061
 Search for a local minimum.
 Step number   4 out of a maximum of  48
 All quantities printed in internal units (Hartrees-Bohrs-Radians)
 Update second derivatives using D2CorX and points  1  2  3  4
 Trust test= 8.98D-01 RLast= 1.04D-02 DXMaxT set to 3.05D-01
     Eigenvalues ---    0.02137   0.02274   0.02344   0.02397   0.02534
     Eigenvalues ---    0.02553   0.13499   0.16000   0.16006   0.16087
     Eigenvalues ---    0.21771   0.29032   0.37043   0.37296   0.37602
     Eigenvalues ---    0.40908   0.47699   0.49102   0.51446   0.57660
     Eigenvalues ---    0.605931000.000001000.000001000.000001000.00000
     Eigenvalues --- 1000.000001000.000001000.000001000.000001000.00000
     Eigenvalues --- 1000.000001000.000001000.000001000.000001000.00000
     Eigenvalues --- 1000.000001000.000001000.00000
 RFO step:  Lambda=-1.33601326D-06.
 Quartic linear search produced a step of -0.08889.
 Iteration  1 RMS(Cart)=  0.00054057 RMS(Int)=  0.00000016
 Iteration  2 RMS(Cart)=  0.00000017 RMS(Int)=  0.00000004
 Variable       Old X    -DE/DX   Delta X   Delta X   Delta X     New X
                                 (Linear)    (Quad)   (Total)
    R1        2.05953  -0.00011   0.00012  -0.00042  -0.00030   2.05923
    R2        2.60969  -0.00018  -0.00022   0.00002  -0.00021   2.60949
    R3        2.55660  -0.00012   0.00012  -0.00039  -0.00027   2.55633
    R4        2.05811  -0.00010   0.00005  -0.00032  -0.00027   2.05784
    R5        2.65630   0.00035   0.00050   0.00032   0.00082   2.65713
    R6        2.06184  -0.00017   0.00007  -0.00051  -0.00043   2.06140
    R7        2.51730  -0.00023  -0.00043   0.00010  -0.00034   2.51697
    R8        2.52352  -0.00035   0.00008  -0.00067  -0.00059   2.52294
    R9        1.92465  -0.00030   0.00003  -0.00062  -0.00059   1.92406
    A1        2.30344  -0.00003  -0.00010  -0.00013  -0.00023   2.30321
    A2        2.13129   0.00003   0.00010  -0.00003   0.00007   2.13137
    A3        1.84845   0.00000   0.00000   0.00016   0.00016   1.84861
    A4        2.21973   0.00000   0.00018  -0.00039  -0.00021   2.21952
    A5        1.82459  -0.00019  -0.00018  -0.00038  -0.00056   1.82403
    A6        2.23887   0.00019   0.00000   0.00077   0.00077   2.23964
    A7        2.24636   0.00012  -0.00035   0.00104   0.00069   2.24705
    A8        1.95073   0.00006   0.00021   0.00003   0.00024   1.95097
    A9        2.08610  -0.00018   0.00014  -0.00107  -0.00093   2.08517
   A10        1.81950  -0.00008  -0.00015  -0.00007  -0.00022   1.81928
   A11        1.98151   0.00021   0.00012   0.00026   0.00038   1.98190
   A12        2.22743  -0.00010   0.00001  -0.00024  -0.00023   2.22721
   A13        2.07424  -0.00010  -0.00014  -0.00002  -0.00016   2.07408
    D1        0.00000   0.00000   0.00000   0.00000   0.00000   0.00000
    D2        3.14159   0.00000   0.00000   0.00000   0.00000   3.14159
    D3        3.14159   0.00000   0.00000   0.00000   0.00000   3.14159
    D4        0.00000   0.00000   0.00000   0.00000   0.00000   0.00000
    D5        3.14159   0.00000   0.00000   0.00000   0.00000   3.14159
    D6        0.00000   0.00000   0.00000   0.00000   0.00000   0.00000
    D7        0.00000   0.00000   0.00000   0.00000   0.00000   0.00000
    D8        3.14159   0.00000   0.00000   0.00000   0.00000   3.14159
    D9        3.14159   0.00000   0.00000   0.00000   0.00000   3.14159
   D10        0.00000   0.00000   0.00000   0.00000   0.00000   0.00000
   D11        0.00000   0.00000   0.00000   0.00000   0.00000   0.00000
   D12        3.14159   0.00000   0.00000   0.00000   0.00000   3.14159
   D13        0.00000   0.00000   0.00000   0.00000   0.00000   0.00000
   D14        3.14159   0.00000   0.00000   0.00000   0.00000   3.14159
   D15        0.00000   0.00000   0.00000   0.00000   0.00000   0.00000
   D16        3.14159   0.00000   0.00000   0.00000   0.00000   3.14159
         Item               Value     Threshold  Converged?
 Maximum Force            0.000350     0.000450     YES
 RMS     Force            0.000134     0.000300     YES
 Maximum Displacement     0.001891     0.001800     NO 
 RMS     Displacement     0.000541     0.001200     YES
 Predicted change in Energy=-8.063437D-07
 GradGradGradGradGradGradGradGradGradGradGradGradGradGradGradGradGradGrad

                          Input orientation:                          
 ---------------------------------------------------------------------
 Center     Atomic     Atomic              Coordinates (Angstroms)
 Number     Number      Type              X           Y           Z
 ---------------------------------------------------------------------
    1          1             0        2.108786    0.733551    0.000000
    2          6             0        1.105605    0.308027    0.000000
    3          1             0        1.263134   -1.902147    0.000000
    4          6             0        0.656521   -0.997790    0.000000
    5          1             0       -1.492251   -1.683198    0.000000
    6          6             0       -0.745293   -0.888211    0.000000
    7          7             0       -1.141649    0.383370    0.000000
    8          1             0       -0.052104    2.098953    0.000000
    9          7             0       -0.003907    1.081926    0.000000
 ---------------------------------------------------------------------
                    Distance matrix (angstroms):
                    1          2          3          4          5
     1  H    0.000000
     2  C    1.089698   0.000000
     3  H    2.768038   2.215781   0.000000
     4  C    2.259782   1.380881   1.088963   0.000000
     5  H    4.336835   3.273199   2.764070   2.255439   0.000000
     6  C    3.282663   2.203817   2.249854   1.406090   1.090849
     7  N    3.269244   2.248517   3.317615   2.267381   2.096097
     8  H    2.556124   2.132536   4.211728   3.176786   4.047059
     9  N    2.141223   1.352752   3.241926   2.182059   3.140236
                    6          7          8          9
     6  C    0.000000
     7  N    1.331922   0.000000
     8  H    3.066539   2.032323   0.000000
     9  N    2.105016   1.335080   1.018169   0.000000
 Stoichiometry    C3H4N2
 Framework group  CS[SG(C3H4N2)]
 Deg. of freedom    15
 Full point group                 CS
 Largest Abelian subgroup         CS      NOp   2
 Largest concise Abelian subgroup C1      NOp   1
                         Standard orientation:                         
 ---------------------------------------------------------------------
 Center     Atomic     Atomic              Coordinates (Angstroms)
 Number     Number      Type              X           Y           Z
 ---------------------------------------------------------------------
    1          1             0        2.112240    0.729810    0.000000
    2          6             0        1.108510    0.305583    0.000000
    3          1             0        1.263181   -1.904793    0.000000
    4          6             0        0.657738   -0.999652    0.000000
    5          1             0       -1.491918   -1.682281    0.000000
    6          6             0       -0.743933   -0.888260    0.000000
    7          7             0       -1.138645    0.383832    0.000000
    8          1             0       -0.046883    2.098005    0.000000
    9          7             0        0.000000    1.080916    0.000000
 ---------------------------------------------------------------------
 Rotational constants (GHZ):      9.6744653      9.4865063      4.7897819
 Standard basis: 6-31+G(d,p) (6D, 7F)
 There are    86 symmetry adapted basis functions of A'  symmetry.
 There are    29 symmetry adapted basis functions of A"  symmetry.
 Integral buffers will be    131072 words long.
 Raffenetti 2 integral format.
 Two-electron integral symmetry is turned on.
   115 basis functions,   188 primitive gaussians,   115 cartesian basis functions
    18 alpha electrons       18 beta electrons
       nuclear repulsion energy       163.3132719897 Hartrees.
 NAtoms=    9 NActive=    9 NUniq=    9 SFac= 7.50D-01 NAtFMM=   80 NAOKFM=F Big=F
 One-electron integrals computed using PRISM.
 NBasis=   115 RedAO= T  NBF=    86    29
 NBsUse=   115 1.00D-06 NBFU=    86    29
 Initial guess read from the read-write file:
 Initial guess orbital symmetries:
       Occupied  (A') (A') (A') (A') (A') (A') (A') (A') (A') (A')
                 (A') (A") (A') (A') (A') (A') (A") (A")
       Virtual   (A") (A') (A") (A') (A') (A') (A') (A") (A') (A")
                 (A') (A') (A") (A') (A') (A') (A') (A") (A') (A")
                 (A') (A') (A') (A') (A') (A') (A') (A') (A') (A')
                 (A') (A') (A") (A") (A') (A") (A') (A') (A') (A')
                 (A') (A") (A') (A") (A') (A') (A') (A') (A') (A')
                 (A') (A") (A') (A") (A") (A') (A") (A") (A') (A')
                 (A') (A') (A') (A') (A') (A") (A') (A") (A') (A")
                 (A") (A') (A") (A') (A") (A') (A') (A') (A") (A')
                 (A") (A') (A") (A') (A') (A') (A') (A') (A') (A')
                 (A') (A') (A') (A') (A') (A') (A')
 Requested convergence on RMS density matrix=1.00D-08 within 128 cycles.
 Requested convergence on MAX density matrix=1.00D-06.
 Requested convergence on             energy=1.00D-06.
 No special actions if energy rises.
 SCF Done:  E(RS-VWN) =  -224.981389319     A.U. after    8 cycles
             Convg  =    0.5695D-08             -V/T =  2.0097
             S**2   =   0.0000
 Calling FoFCou, ICntrl=  2527 FMM=F ISym2X=1 I1Cent= 0 ISCF1= 0.
 ***** Axes restored to original set *****
 -------------------------------------------------------------------
 Center     Atomic                   Forces (Hartrees/Bohr)
 Number     Number              X              Y              Z
 -------------------------------------------------------------------
    1          1           0.000013752   -0.000021971    0.000000000
    2          6          -0.000032650    0.000036641    0.000000000
    3          1           0.000011260    0.000023977    0.000000000
    4          6           0.000033746   -0.000015538    0.000000000
    5          1          -0.000036220    0.000043788    0.000000000
    6          6          -0.000066280   -0.000004678    0.000000000
    7          7           0.000105568   -0.000009225    0.000000000
    8          1           0.000031136   -0.000018274    0.000000000
    9          7          -0.000060312   -0.000034719    0.000000000
 -------------------------------------------------------------------
 Cartesian Forces:  Max     0.000105568 RMS     0.000033435

 GradGradGradGradGradGradGradGradGradGradGradGradGradGradGradGradGradGrad
 Berny optimization.
 Internal  Forces:  Max     0.000070756 RMS     0.000025102
 Search for a local minimum.
 Step number   5 out of a maximum of  48
 All quantities printed in internal units (Hartrees-Bohrs-Radians)
 Update second derivatives using D2CorX and points  1  2  3  4  5

 Trust test= 1.19D+00 RLast= 2.16D-03 DXMaxT set to 3.05D-01
     Eigenvalues ---    0.02136   0.02274   0.02344   0.02397   0.02534
     Eigenvalues ---    0.02553   0.12148   0.15889   0.16000   0.16077
     Eigenvalues ---    0.21838   0.29141   0.36976   0.37270   0.38253
     Eigenvalues ---    0.39742   0.47130   0.49228   0.52242   0.58261
     Eigenvalues ---    0.595831000.000001000.000001000.000001000.00000
     Eigenvalues --- 1000.000001000.000001000.000001000.000001000.00000
     Eigenvalues --- 1000.000001000.000001000.000001000.000001000.00000
     Eigenvalues --- 1000.000001000.000001000.00000
 RFO step:  Lambda=-6.07233682D-08.
 Quartic linear search produced a step of  0.14558.
 Iteration  1 RMS(Cart)=  0.00017144 RMS(Int)=  0.00000003
 Iteration  2 RMS(Cart)=  0.00000003 RMS(Int)=  0.00000000
 Variable       Old X    -DE/DX   Delta X   Delta X   Delta X     New X
                                 (Linear)    (Quad)   (Total)
    R1        2.05923   0.00000  -0.00004   0.00004   0.00000   2.05923
    R2        2.60949  -0.00001  -0.00003   0.00002  -0.00001   2.60948
    R3        2.55633  -0.00004  -0.00004  -0.00006  -0.00010   2.55623
    R4        2.05784  -0.00001  -0.00004  -0.00001  -0.00005   2.05779
    R5        2.65713   0.00006   0.00012   0.00003   0.00015   2.65728
    R6        2.06140  -0.00001  -0.00006   0.00003  -0.00003   2.06137
    R7        2.51697  -0.00005  -0.00005  -0.00002  -0.00007   2.51690
    R8        2.52294  -0.00007  -0.00009  -0.00009  -0.00017   2.52277
    R9        1.92406  -0.00002  -0.00009   0.00002  -0.00006   1.92400
    A1        2.30321  -0.00002  -0.00003  -0.00007  -0.00010   2.30311
    A2        2.13137   0.00001   0.00001   0.00009   0.00010   2.13147
    A3        1.84861   0.00000   0.00002  -0.00002   0.00000   1.84861
    A4        2.21952  -0.00003  -0.00003  -0.00022  -0.00025   2.21926
    A5        1.82403  -0.00001  -0.00008   0.00008   0.00000   1.82403
    A6        2.23964   0.00004   0.00011   0.00014   0.00025   2.23990
    A7        2.24705   0.00006   0.00010   0.00030   0.00040   2.24745
    A8        1.95097  -0.00004   0.00003  -0.00018  -0.00015   1.95082
    A9        2.08517  -0.00003  -0.00013  -0.00012  -0.00026   2.08492
   A10        1.81928   0.00004  -0.00003   0.00017   0.00014   1.81941
   A11        1.98190   0.00001   0.00006  -0.00005   0.00001   1.98191
   A12        2.22721  -0.00002  -0.00003  -0.00010  -0.00013   2.22708
   A13        2.07408   0.00001  -0.00002   0.00015   0.00012   2.07420
    D1        0.00000   0.00000   0.00000   0.00000   0.00000   0.00000
    D2        3.14159   0.00000   0.00000   0.00000   0.00000   3.14159
    D3        3.14159   0.00000   0.00000   0.00000   0.00000   3.14159
    D4        0.00000   0.00000   0.00000   0.00000   0.00000   0.00000
    D5        3.14159   0.00000   0.00000   0.00000   0.00000   3.14159
    D6        0.00000   0.00000   0.00000   0.00000   0.00000   0.00000
    D7        0.00000   0.00000   0.00000   0.00000   0.00000   0.00000
    D8        3.14159   0.00000   0.00000   0.00000   0.00000   3.14159
    D9        3.14159   0.00000   0.00000   0.00000   0.00000   3.14159
   D10        0.00000   0.00000   0.00000   0.00000   0.00000   0.00000
   D11        0.00000   0.00000   0.00000   0.00000   0.00000   0.00000
   D12        3.14159   0.00000   0.00000   0.00000   0.00000   3.14159
   D13        0.00000   0.00000   0.00000   0.00000   0.00000   0.00000
   D14        3.14159   0.00000   0.00000   0.00000   0.00000   3.14159
   D15        0.00000   0.00000   0.00000   0.00000   0.00000   0.00000
   D16        3.14159   0.00000   0.00000   0.00000   0.00000   3.14159
         Item               Value     Threshold  Converged?
 Maximum Force            0.000071     0.000450     YES
 RMS     Force            0.000025     0.000300     YES
 Maximum Displacement     0.000600     0.001800     YES
 RMS     Displacement     0.000171     0.001200     YES
 Predicted change in Energy=-5.369976D-08
 Optimization completed.
    -- Stationary point found.
                           ----------------------------
                           !   Optimized Parameters   !
                           ! (Angstroms and Degrees)  !
 --------------------------                            --------------------------
 ! Name  Definition              Value          Derivative Info.                !
 --------------------------------------------------------------------------------
 ! R1    R(1,2)                  1.0897         -DE/DX =    0.0                 !
 ! R2    R(2,4)                  1.3809         -DE/DX =    0.0                 !
 ! R3    R(2,9)                  1.3528         -DE/DX =    0.0                 !
 ! R4    R(3,4)                  1.089          -DE/DX =    0.0                 !
 ! R5    R(4,6)                  1.4061         -DE/DX =    0.0001              !
 ! R6    R(5,6)                  1.0908         -DE/DX =    0.0                 !
 ! R7    R(6,7)                  1.3319         -DE/DX =    0.0                 !
 ! R8    R(7,9)                  1.3351         -DE/DX =   -0.0001              !
 ! R9    R(8,9)                  1.0182         -DE/DX =    0.0                 !
 ! A1    A(1,2,4)              131.9641         -DE/DX =    0.0                 !
 ! A2    A(1,2,9)              122.1182         -DE/DX =    0.0                 !
 ! A3    A(4,2,9)              105.9176         -DE/DX =    0.0                 !
 ! A4    A(2,4,3)              127.169          -DE/DX =    0.0                 !
 ! A5    A(2,4,6)              104.509          -DE/DX =    0.0                 !
 ! A6    A(3,4,6)              128.3221         -DE/DX =    0.0                 !
 ! A7    A(4,6,5)              128.7462         -DE/DX =    0.0001              !
 ! A8    A(4,6,7)              111.7821         -DE/DX =    0.0                 !
 ! A9    A(5,6,7)              119.4717         -DE/DX =    0.0                 !
 ! A10   A(6,7,9)              104.2368         -DE/DX =    0.0                 !
 ! A11   A(2,9,7)              113.5544         -DE/DX =    0.0                 !
 ! A12   A(2,9,8)              127.6096         -DE/DX =    0.0                 !
 ! A13   A(7,9,8)              118.836          -DE/DX =    0.0                 !
 ! D1    D(1,2,4,3)              0.0            -DE/DX =    0.0                 !
 ! D2    D(1,2,4,6)            180.0            -DE/DX =    0.0                 !
 ! D3    D(9,2,4,3)            180.0            -DE/DX =    0.0                 !
 ! D4    D(9,2,4,6)              0.0            -DE/DX =    0.0                 !
 ! D5    D(1,2,9,7)            180.0            -DE/DX =    0.0                 !
 ! D6    D(1,2,9,8)              0.0            -DE/DX =    0.0                 !
 ! D7    D(4,2,9,7)              0.0            -DE/DX =    0.0                 !
 ! D8    D(4,2,9,8)            180.0            -DE/DX =    0.0                 !
 ! D9    D(2,4,6,5)            180.0            -DE/DX =    0.0                 !
 ! D10   D(2,4,6,7)              0.0            -DE/DX =    0.0                 !
 ! D11   D(3,4,6,5)              0.0            -DE/DX =    0.0                 !
 ! D12   D(3,4,6,7)            180.0            -DE/DX =    0.0                 !
 ! D13   D(4,6,7,9)              0.0            -DE/DX =    0.0                 !
 ! D14   D(5,6,7,9)            180.0            -DE/DX =    0.0                 !
 ! D15   D(6,7,9,2)              0.0            -DE/DX =    0.0                 !
 ! D16   D(6,7,9,8)            180.0            -DE/DX =    0.0                 !
 --------------------------------------------------------------------------------
 GradGradGradGradGradGradGradGradGradGradGradGradGradGradGradGradGradGrad

                          Input orientation:                          
 ---------------------------------------------------------------------
 Center     Atomic     Atomic              Coordinates (Angstroms)
 Number     Number      Type              X           Y           Z
 ---------------------------------------------------------------------
    1          1             0        2.108786    0.733551    0.000000
    2          6             0        1.105605    0.308027    0.000000
    3          1             0        1.263134   -1.902147    0.000000
    4          6             0        0.656521   -0.997790    0.000000
    5          1             0       -1.492251   -1.683198    0.000000
    6          6             0       -0.745293   -0.888211    0.000000
    7          7             0       -1.141649    0.383370    0.000000
    8          1             0       -0.052104    2.098953    0.000000
    9          7             0       -0.003907    1.081926    0.000000
 ---------------------------------------------------------------------
                    Distance matrix (angstroms):
                    1          2          3          4          5
     1  H    0.000000
     2  C    1.089698   0.000000
     3  H    2.768038   2.215781   0.000000
     4  C    2.259782   1.380881   1.088963   0.000000
     5  H    4.336835   3.273199   2.764070   2.255439   0.000000
     6  C    3.282663   2.203817   2.249854   1.406090   1.090849
     7  N    3.269244   2.248517   3.317615   2.267381   2.096097
     8  H    2.556124   2.132536   4.211728   3.176786   4.047059
     9  N    2.141223   1.352752   3.241926   2.182059   3.140236
                    6          7          8          9
     6  C    0.000000
     7  N    1.331922   0.000000
     8  H    3.066539   2.032323   0.000000
     9  N    2.105016   1.335080   1.018169   0.000000
 Stoichiometry    C3H4N2
 Framework group  CS[SG(C3H4N2)]
 Deg. of freedom    15
 Full point group                 CS
 Largest Abelian subgroup         CS      NOp   2
 Largest concise Abelian subgroup C1      NOp   1
                         Standard orientation:                         
 ---------------------------------------------------------------------
 Center     Atomic     Atomic              Coordinates (Angstroms)
 Number     Number      Type              X           Y           Z
 ---------------------------------------------------------------------
    1          1             0        2.112240    0.729810    0.000000
    2          6             0        1.108510    0.305583    0.000000
    3          1             0        1.263181   -1.904793    0.000000
    4          6             0        0.657738   -0.999652    0.000000
    5          1             0       -1.491918   -1.682281    0.000000
    6          6             0       -0.743933   -0.888260    0.000000
    7          7             0       -1.138645    0.383832    0.000000
    8          1             0       -0.046883    2.098005    0.000000
    9          7             0        0.000000    1.080916    0.000000
 ---------------------------------------------------------------------
 Rotational constants (GHZ):      9.6744653      9.4865063      4.7897819

 **********************************************************************

            Population analysis using the SCF density.

 **********************************************************************

 Orbital symmetries:
       Occupied  (A') (A') (A') (A') (A') (A') (A') (A') (A') (A')
                 (A') (A") (A') (A') (A') (A') (A") (A")
       Virtual   (A") (A') (A") (A') (A') (A') (A') (A") (A') (A")
                 (A') (A') (A") (A') (A') (A') (A') (A") (A') (A")
                 (A') (A') (A') (A') (A') (A') (A') (A') (A') (A')
                 (A') (A') (A") (A") (A') (A") (A') (A') (A') (A')
                 (A') (A") (A') (A") (A') (A') (A') (A') (A') (A')
                 (A') (A") (A') (A") (A") (A') (A") (A") (A') (A')
                 (A') (A') (A') (A') (A') (A") (A') (A") (A') (A")
                 (A") (A') (A") (A') (A") (A') (A') (A') (A") (A')
                 (A") (A') (A") (A') (A') (A') (A') (A') (A') (A')
                 (A') (A') (A') (A') (A') (A') (A')
 The electronic state is 1-A'.
 Alpha  occ. eigenvalues --  -13.98008 -13.91731  -9.85548  -9.83317  -9.81668
 Alpha  occ. eigenvalues --   -0.99095  -0.76558  -0.73146  -0.57564  -0.56533
 Alpha  occ. eigenvalues --   -0.51422  -0.42402  -0.42227  -0.40370  -0.37566
 Alpha  occ. eigenvalues --   -0.26987  -0.25854  -0.25014
 Alpha virt. eigenvalues --   -0.04599  -0.02730  -0.00260   0.00335   0.00999
 Alpha virt. eigenvalues --    0.03182   0.03703   0.03927   0.05488   0.07765
 Alpha virt. eigenvalues --    0.08996   0.09234   0.09262   0.13047   0.13977
 Alpha virt. eigenvalues --    0.15122   0.15654   0.15685   0.16192   0.18823
 Alpha virt. eigenvalues --    0.18983   0.19556   0.21335   0.21662   0.23845
 Alpha virt. eigenvalues --    0.25000   0.27037   0.33073   0.34531   0.37716
 Alpha virt. eigenvalues --    0.43696   0.59053   0.59675   0.62784   0.63541
 Alpha virt. eigenvalues --    0.65597   0.69962   0.76860   0.78020   0.80009
 Alpha virt. eigenvalues --    0.81663   0.82599   0.85284   0.88929   0.90064
 Alpha virt. eigenvalues --    0.90724   0.95024   0.96006   1.04614   1.08424
 Alpha virt. eigenvalues --    1.15331   1.16798   1.17061   1.25093   1.27296
 Alpha virt. eigenvalues --    1.28191   1.36039   1.40088   1.42676   1.46480
 Alpha virt. eigenvalues --    1.67823   1.76150   1.77815   1.88567   1.90411
 Alpha virt. eigenvalues --    1.92773   1.98799   2.01130   2.09018   2.09577
 Alpha virt. eigenvalues --    2.19258   2.20564   2.27629   2.31451   2.34372
 Alpha virt. eigenvalues --    2.37535   2.38889   2.45447   2.48545   2.49943
 Alpha virt. eigenvalues --    2.56694   2.57739   2.66053   2.67137   2.76695
 Alpha virt. eigenvalues --    2.81582   3.01173   3.08171   3.14009   3.24929
 Alpha virt. eigenvalues --    3.45960   3.68346   3.93591   4.15626   4.24288
 Alpha virt. eigenvalues --    4.35712   4.64314
          Condensed to atoms (all electrons):
              1          2          3          4          5          6
     1  H    0.512885   0.352778  -0.001163  -0.021953  -0.000116   0.013159
     2  C    0.352778   5.117897   0.010065   0.523247   0.020687  -0.032774
     3  H   -0.001163   0.010065   0.524311   0.280242  -0.001313   0.008803
     4  C   -0.021953   0.523247   0.280242   5.363586  -0.069181   0.102199
     5  H   -0.000116   0.020687  -0.001313  -0.069181   0.535797   0.406403
     6  C    0.013159  -0.032774   0.008803   0.102199   0.406403   5.455307
     7  N    0.011223  -0.112716   0.008455   0.113806  -0.080742   0.204828
     8  H   -0.001218  -0.017770  -0.000119  -0.007408  -0.000075   0.017053
     9  N   -0.044852   0.402674   0.006526  -0.326799   0.021619   0.065433
              7          8          9
     1  H    0.011223  -0.001218  -0.044852
[...]
   9   7    -0.05   0.02   0.00    -0.17  -0.08   0.00     0.08  -0.08   0.00
                    16                     17                     18
                    A'                     A'                     A'
 Frequencies --  1468.1018              1541.0558              3191.9477
 Red. masses --     3.1034                 3.8424                 1.0935
 Frc consts  --     3.9409                 5.3764                 6.5641
 IR Inten    --     4.8417                 6.0977                 0.8007
 Atom AN      X      Y      Z        X      Y      Z        X      Y      Z
   1   1    -0.06  -0.28   0.00     0.32  -0.29   0.00    -0.14  -0.06   0.00
   2   6    -0.21   0.15   0.00     0.04   0.29   0.00     0.01   0.00   0.00
   3   1    -0.19  -0.25   0.00     0.32  -0.06   0.00     0.19  -0.29   0.00
   4   6     0.15  -0.01   0.00    -0.05  -0.25   0.00    -0.01   0.03   0.00
   5   1     0.02  -0.11   0.00     0.37  -0.22   0.00     0.63   0.67   0.00
   6   6    -0.10   0.03   0.00    -0.13   0.23   0.00    -0.06  -0.06   0.00
   7   7    -0.05   0.01   0.00     0.07  -0.14   0.00     0.00   0.00   0.00
   8   1    -0.77  -0.17   0.00     0.52  -0.03   0.00     0.00   0.01   0.00
   9   7     0.26  -0.09   0.00    -0.06  -0.05   0.00     0.00   0.00   0.00
                    19                     20                     21
                    A'                     A'                     A'
 Frequencies --  3203.8286              3222.0856              3586.0796
 Red. masses --     1.0946                 1.1082                 1.0821
 Frc consts  --     6.6199                 6.7788                 8.1992
 IR Inten    --     0.1864                 0.0532                91.0646
 Atom AN      X      Y      Z        X      Y      Z        X      Y      Z
   1   1     0.77   0.32   0.00    -0.47  -0.20   0.00     0.01   0.00   0.00
   2   6    -0.07  -0.03   0.00     0.04   0.02   0.00     0.00   0.00   0.00
   3   1    -0.25   0.37   0.00    -0.45   0.68   0.00     0.00   0.00   0.00
   4   6     0.03  -0.03   0.00     0.04  -0.07   0.00     0.00   0.00   0.00
   5   1     0.21   0.22   0.00     0.16   0.16   0.00     0.00   0.00   0.00
   6   6    -0.02  -0.02   0.00    -0.02  -0.01   0.00     0.00   0.00   0.00
   7   7     0.00   0.00   0.00     0.00   0.00   0.00     0.00   0.00   0.00
   8   1     0.00  -0.01   0.00     0.00   0.01   0.00    -0.05   1.00   0.00
   9   7     0.00   0.00   0.00     0.00   0.00   0.00     0.01  -0.08   0.00

 -------------------
 - Thermochemistry -
 -------------------
 Temperature   298.150 Kelvin.  Pressure   1.00000 Atm.
 Atom  1 has atomic number  1 and mass   1.00783
 Atom  2 has atomic number  6 and mass  12.00000
 Atom  3 has atomic number  1 and mass   1.00783
 Atom  4 has atomic number  6 and mass  12.00000
 Atom  5 has atomic number  1 and mass   1.00783
 Atom  6 has atomic number  6 and mass  12.00000
 Atom  7 has atomic number  7 and mass  14.00307
 Atom  8 has atomic number  1 and mass   1.00783
 Atom  9 has atomic number  7 and mass  14.00307
 Molecular mass:    68.03745 amu.
 Principal axes and moments of inertia in atomic units:
                           1         2         3
     EIGENVALUES --   186.54687 190.24298 376.78985
           X            0.87695   0.48058   0.00000
           Y           -0.48058   0.87695   0.00000
           Z            0.00000   0.00000   1.00000
 This molecule is an asymmetric top.
 Rotational symmetry number  1.
 Rotational temperatures (Kelvin)      0.46430     0.45528     0.22987
 Rotational constants (GHZ):           9.67447     9.48651     4.78978
 Zero-point vibrational energy     183885.5 (Joules/Mol)
                                   43.94969 (Kcal/Mol)
 Warning -- explicit consideration of   1 degrees of freedom as
           vibrations may cause significant error
 Vibrational temperatures:    812.00   898.22   984.13  1033.40  1154.64
          (Kelvin)           1236.17  1284.41  1319.64  1482.33  1493.00
                             1635.04  1719.88  1812.65  1977.14  2062.99
                             2112.27  2217.23  4592.50  4609.59  4635.86
                             5159.56
 
 Zero-point correction=                           0.070038 (Hartree/Particle)
 Thermal correction to Energy=                    0.073811
 Thermal correction to Enthalpy=                  0.074755
 Thermal correction to Gibbs Free Energy=         0.043774
 Sum of electronic and zero-point Energies=           -224.911351
 Sum of electronic and thermal Energies=              -224.907578
 Sum of electronic and thermal Enthalpies=            -224.906634
 Sum of electronic and thermal Free Energies=         -224.937616
 
                     E (Thermal)             CV                S
                      KCal/Mol        Cal/Mol-Kelvin    Cal/Mol-Kelvin
 Total                   46.317             13.566             65.206
 Electronic               0.000              0.000              0.000
 Translational            0.889              2.981             38.570
 Rotational               0.889              2.981             24.107
 Vibrational             44.540              7.604              2.529
 Vibration  1             0.920              1.108              0.515
                       Q            Log10(Q)             Ln(Q)
 Total Bot       0.733793D-20        -20.134427        -46.361231
 Total V=0       0.120472D+13         12.080885         27.817265
 Vib (Bot)       0.803622D-32        -32.094948        -73.901349
 Vib (Bot)  1    0.274220D+00         -0.561901         -1.293825
 Vib (V=0)       0.131936D+01          0.120363          0.277146
 Vib (V=0)  1    0.107026D+01          0.029489          0.067902
 Electronic      0.100000D+01          0.000000          0.000000
 Translational   0.220586D+08          7.343577         16.909211
 Rotational      0.413947D+05          4.616944         10.630907
 ***** Axes restored to original set *****
 -------------------------------------------------------------------
 Center     Atomic                   Forces (Hartrees/Bohr)
 Number     Number              X              Y              Z
 -------------------------------------------------------------------
    1          1           0.000013747   -0.000021974    0.000000000
    2          6          -0.000032701    0.000036654    0.000000000
    3          1           0.000011260    0.000023973    0.000000000
    4          6           0.000033760   -0.000015521    0.000000000
    5          1          -0.000036229    0.000043782    0.000000000
    6          6          -0.000066264   -0.000004703    0.000000000
    7          7           0.000105613   -0.000009168    0.000000000
    8          1           0.000031134   -0.000018298    0.000000000
    9          7          -0.000060320   -0.000034745    0.000000000
 -------------------------------------------------------------------
 Cartesian Forces:  Max     0.000105613 RMS     0.000033443

 GradGradGradGradGradGradGradGradGradGradGradGradGradGradGradGradGradGrad
 Berny optimization.
 Internal  Forces:  Max     0.000070811 RMS     0.000025108
 Search for a local minimum.
 Step number   1 out of a maximum of   2
 All quantities printed in internal units (Hartrees-Bohrs-Radians)
 Second derivative matrix not updated -- analytic derivatives used.
     Eigenvalues ---    0.00801   0.01090   0.01513   0.02570   0.05687
     Eigenvalues ---    0.05963   0.08555   0.09541   0.10281   0.11094
     Eigenvalues ---    0.21617   0.26315   0.35158   0.35786   0.36170
     Eigenvalues ---    0.36593   0.39999   0.43801   0.45738   0.48976
     Eigenvalues ---    0.567031000.000001000.000001000.000001000.00000
     Eigenvalues --- 1000.000001000.000001000.000001000.000001000.00000
     Eigenvalues --- 1000.000001000.000001000.000001000.000001000.00000
     Eigenvalues --- 1000.000001000.000001000.00000
 Angle between quadratic step and forces=  34.94 degrees.
 Linear search not attempted -- first point.
 Iteration  1 RMS(Cart)=  0.00023521 RMS(Int)=  0.00000005
 Iteration  2 RMS(Cart)=  0.00000005 RMS(Int)=  0.00000000
 Variable       Old X    -DE/DX   Delta X   Delta X   Delta X     New X
                                 (Linear)    (Quad)   (Total)
    R1        2.05923   0.00000   0.00000   0.00001   0.00001   2.05924
    R2        2.60949  -0.00001   0.00000   0.00000   0.00000   2.60949
    R3        2.55633  -0.00004   0.00000  -0.00008  -0.00008   2.55625
    R4        2.05784  -0.00001   0.00000  -0.00003  -0.00003   2.05781
    R5        2.65713   0.00006   0.00000   0.00016   0.00016   2.65728
    R6        2.06140  -0.00001   0.00000  -0.00002  -0.00002   2.06138
    R7        2.51697  -0.00005   0.00000  -0.00007  -0.00007   2.51690
    R8        2.52294  -0.00007   0.00000  -0.00022  -0.00022   2.52272
    R9        1.92406  -0.00002   0.00000  -0.00004  -0.00004   1.92402
    A1        2.30321  -0.00002   0.00000  -0.00021  -0.00021   2.30300
    A2        2.13137   0.00001   0.00000   0.00018   0.00018   2.13155
    A3        1.84861   0.00000   0.00000   0.00003   0.00003   1.84864
    A4        2.21952  -0.00003   0.00000  -0.00040  -0.00040   2.21912
    A5        1.82403  -0.00001   0.00000  -0.00003  -0.00003   1.82400
    A6        2.23964   0.00004   0.00000   0.00042   0.00042   2.24006
    A7        2.24705   0.00006   0.00000   0.00052   0.00052   2.24756
    A8        1.95097  -0.00004   0.00000  -0.00015  -0.00015   1.95082
    A9        2.08517  -0.00003   0.00000  -0.00037  -0.00037   2.08481
   A10        1.81928   0.00004   0.00000   0.00017   0.00017   1.81944
   A11        1.98190   0.00001   0.00000  -0.00002  -0.00002   1.98187
   A12        2.22721  -0.00002   0.00000  -0.00016  -0.00016   2.22705
   A13        2.07408   0.00001   0.00000   0.00018   0.00018   2.07426
    D1        0.00000   0.00000   0.00000   0.00000   0.00000   0.00000
    D2        3.14159   0.00000   0.00000   0.00000   0.00000   3.14159
    D3        3.14159   0.00000   0.00000   0.00000   0.00000   3.14159
    D4        0.00000   0.00000   0.00000   0.00000   0.00000   0.00000
    D5        3.14159   0.00000   0.00000   0.00000   0.00000   3.14159
    D6        0.00000   0.00000   0.00000   0.00000   0.00000   0.00000
    D7        0.00000   0.00000   0.00000   0.00000   0.00000   0.00000
    D8        3.14159   0.00000   0.00000   0.00000   0.00000   3.14159
    D9        3.14159   0.00000   0.00000   0.00000   0.00000   3.14159
   D10        0.00000   0.00000   0.00000   0.00000   0.00000   0.00000
   D11        0.00000   0.00000   0.00000   0.00000   0.00000   0.00000
   D12        3.14159   0.00000   0.00000   0.00000   0.00000   3.14159
   D13        0.00000   0.00000   0.00000   0.00000   0.00000   0.00000
   D14        3.14159   0.00000   0.00000   0.00000   0.00000   3.14159
   D15        0.00000   0.00000   0.00000   0.00000   0.00000   0.00000
   D16        3.14159   0.00000   0.00000   0.00000   0.00000   3.14159
         Item               Value     Threshold  Converged?
 Maximum Force            0.000071     0.000450     YES
 RMS     Force            0.000025     0.000300     YES
 Maximum Displacement     0.000860     0.001800     YES
 RMS     Displacement     0.000235     0.001200     YES
 Predicted change in Energy=-6.376199D-08
 Optimization completed.
    -- Stationary point found.
                           ----------------------------
                           !   Optimized Parameters   !
                           ! (Angstroms and Degrees)  !
 --------------------------                            --------------------------
 ! Name  Definition              Value          Derivative Info.                !
 --------------------------------------------------------------------------------
 ! R1    R(1,2)                  1.0897         -DE/DX =    0.0                 !
 ! R2    R(2,4)                  1.3809         -DE/DX =    0.0                 !
 ! R3    R(2,9)                  1.3528         -DE/DX =    0.0                 !
 ! R4    R(3,4)                  1.089          -DE/DX =    0.0                 !
 ! R5    R(4,6)                  1.4061         -DE/DX =    0.0001              !
 ! R6    R(5,6)                  1.0908         -DE/DX =    0.0                 !
 ! R7    R(6,7)                  1.3319         -DE/DX =    0.0                 !
 ! R8    R(7,9)                  1.3351         -DE/DX =   -0.0001              !
 ! R9    R(8,9)                  1.0182         -DE/DX =    0.0                 !
 ! A1    A(1,2,4)              131.9641         -DE/DX =    0.0                 !
 ! A2    A(1,2,9)              122.1182         -DE/DX =    0.0                 !
 ! A3    A(4,2,9)              105.9176         -DE/DX =    0.0                 !
 ! A4    A(2,4,3)              127.169          -DE/DX =    0.0                 !
 ! A5    A(2,4,6)              104.509          -DE/DX =    0.0                 !
 ! A6    A(3,4,6)              128.3221         -DE/DX =    0.0                 !
 ! A7    A(4,6,5)              128.7462         -DE/DX =    0.0001              !
 ! A8    A(4,6,7)              111.7821         -DE/DX =    0.0                 !
 ! A9    A(5,6,7)              119.4717         -DE/DX =    0.0                 !
 ! A10   A(6,7,9)              104.2368         -DE/DX =    0.0                 !
 ! A11   A(2,9,7)              113.5544         -DE/DX =    0.0                 !
 ! A12   A(2,9,8)              127.6096         -DE/DX =    0.0                 !
 ! A13   A(7,9,8)              118.836          -DE/DX =    0.0                 !
 ! D1    D(1,2,4,3)              0.0            -DE/DX =    0.0                 !
 ! D2    D(1,2,4,6)            180.0            -DE/DX =    0.0                 !
 ! D3    D(9,2,4,3)            180.0            -DE/DX =    0.0                 !
 ! D4    D(9,2,4,6)              0.0            -DE/DX =    0.0                 !
 ! D5    D(1,2,9,7)            180.0            -DE/DX =    0.0                 !
 ! D6    D(1,2,9,8)              0.0            -DE/DX =    0.0                 !
 ! D7    D(4,2,9,7)              0.0            -DE/DX =    0.0                 !
 ! D8    D(4,2,9,8)            180.0            -DE/DX =    0.0                 !
 ! D9    D(2,4,6,5)            180.0            -DE/DX =    0.0                 !
 ! D10   D(2,4,6,7)              0.0            -DE/DX =    0.0                 !
 ! D11   D(3,4,6,5)              0.0            -DE/DX =    0.0                 !
 ! D12   D(3,4,6,7)            180.0            -DE/DX =    0.0                 !
 ! D13   D(4,6,7,9)              0.0            -DE/DX =    0.0                 !
 ! D14   D(5,6,7,9)            180.0            -DE/DX =    0.0                 !
 ! D15   D(6,7,9,2)              0.0            -DE/DX =    0.0                 !
 ! D16   D(6,7,9,8)            180.0            -DE/DX =    0.0                 !
 --------------------------------------------------------------------------------
 GradGradGradGradGradGradGradGradGradGradGradGradGradGradGradGradGradGrad

 1\1\GINC-P1917\Freq\RSVWN\6-31+G(d,p)\C3H4N2\RDJ3\06-Mar-2008\0\\#N Ge
 om=AllCheck Guess=Read SCRF=Check GenChk RSVWN/6-31+G(d,p) Freq\\1hpyr
 az 1H-Pyrazole casno=288131 method=51 basis=4 config=1\\0,1\H,2.108785
 7241,0.7335508528,0.\C,1.1056053092,0.3080265527,0.\H,1.2631335075,-1.
 9021472351,0.\C,0.6565208487,-0.9977898553,0.\H,-1.4922508911,-1.68319
 78267,0.\C,-0.745293033,-0.888210753,0.\N,-1.14164933,0.3833697923,0.\
 H,-0.0521044435,2.0989532784,0.\N,-0.003906692,1.081926194,0.\\Version
 =AM64L-G03RevD.01\State=1-A'\HF=-224.9813893\RMSD=2.196e-09\RMSF=3.344
 e-05\ZeroPoint=0.0700383\Thermal=0.073811\Dipole=0.8812834,0.3532526,0
 .\DipoleDeriv=0.0262762,-0.0338471,0.,-0.044891,0.0736606,0.,0.,0.,0.2
 034336,-0.0989484,-0.1514118,0.,-0.0293998,0.3540097,0.,0.,0.,-0.12979
 63,0.0636803,0.0626417,0.,0.0579077,0.0386074,0.,0.,0.,0.1873287,-0.13
 14662,-0.0939144,0.,-0.0383743,-0.1582916,0.,0.,0.,-0.2240311,0.035505
 4,-0.0641155,0.,-0.0394764,0.0411716,0.,0.,0.,0.1604571,0.3011524,0.04
 07507,0.,-0.0527538,0.0440977,0.,0.,0.,-0.1080727,-0.4939983,0.2797566
 ,0.,0.1909895,-0.0971079,0.,0.,0.,-0.2331069,0.181941,-0.0093639,0.,-0
 .0305045,0.273026,0.,0.,0.,0.3139988,0.1158576,-0.0304963,0.,-0.013497
 4,-0.5691735,0.,0.,0.,-0.1702112\Polar=55.4015741,0.8222152,54.3642176
 ,0.,0.,31.5566256\PG=CS [SG(C3H4N2)]\NImag=0\\0.31383312,0.11245457,0.
 09299668,0.,0.,0.01831358,-0.29807400,-0.11277765,0.,0.80808646,-0.104
 17932,-0.10089045,0.,0.11069632,0.66869076,0.,0.,-0.02194256,0.,0.,0.1
 1036018,-0.00016523,0.00075525,0.,0.01063376,-0.01085922,0.,0.14075536
 ,-0.00031802,0.00041594,0.,0.01642382,-0.00899415,0.,-0.14764537,0.263
 92208,0.,0.,-0.00251262,0.,0.,-0.00193724,0.,0.,0.02001688,0.00192261,
 -0.02087033,0.,-0.12755000,-0.07520923,0.,-0.14247051,0.13623341,0.,0.
 62841285,0.00186931,0.00305091,0.,-0.09556189,-0.35145618,0.,0.1387042
 1,-0.25644182,0.,-0.11808474,0.80102197,0.,0.,0.00049405,0.,0.,-0.0589
 7312,0.,0.,-0.02372453,0.,0.,0.10874216,0.00019528,-0.00117022,0.,-0.0
 0523746,0.00082587,0.,0.00040240,0.00041619,0.,-0.00672828,-0.01868920
 ,0.,0.19354931,-0.00005588,0.00063674,0.,0.00294810,-0.00048354,0.,-0.
 00062616,-0.00021036,0.,0.00496936,0.00773714,0.,0.15404006,0.21450553
 ,0.,0.,0.00084623,0.,0.,0.00435713,0.,0.,-0.00183932,0.,0.,0.00062920,
 0.,0.,0.02244171,-0.00041120,-0.00247270,0.,-0.03403375,-0.07672818,0.
 ,-0.00168196,-0.00310026,0.,-0.31410245,0.02205034,0.,-0.19464615,-0.1
 4112909,0.,0.70151843,0.00151324,-0.00576722,0.,-0.01395350,0.01070710
 ,0.,0.02233036,0.00491755,0.,-0.00462084,-0.10304058,0.,-0.14823538,-0
 .19734968,0.,0.12245687,0.76524998,0.,0.,0.00461831,0.,0.,0.00944086,0
 .,0.,-0.00270590,0.,0.,-0.06170138,0.,0.,-0.02772991,0.,0.,0.13084721,
 -0.00181038,0.00417174,0.,-0.09574425,0.01136330,0.,-0.00596725,-0.002
 04827,0.,-0.03285100,0.01486042,0.,0.01017999,-0.01954189,0.,-0.121824
 08,0.06732105,0.,0.49588970,0.00220074,-0.00304939,0.,-0.01842422,-0.0
 2264154,0.,0.00273468,0.00052017,0.,0.08095665,-0.01943467,0.,0.007444
 98,-0.01845868,0.,0.10634334,-0.35560246,0.,-0.02039764,0.58119299,0.,
 0.,0.00601359,0.,0.,0.01896143,0.,0.,0.00612155,0.,0.,0.01934748,0.,0.
 ,-0.00721683,0.,0.,-0.07039040,0.,0.,0.10351990,-0.00009821,-0.0006164
 6,0.,0.00900373,0.02360827,0.,0.00087336,0.00091192,0.,-0.00581628,0.0
 0427965,0.,0.00076988,-0.00128650,0.,-0.00708948,-0.00571144,0.,0.0046
 3482,-0.03362615,0.,0.06201057,0.00023159,-0.00004917,0.,-0.00456846,-
 0.00611753,0.,-0.00024437,-0.00004633,0.,0.00277500,0.00121040,0.,0.00
 033818,-0.00027408,0.,-0.00440378,0.00114777,0.,-0.00064200,-0.0136706
 0,0.,-0.01934112,0.45616359,0.,0.,-0.00133444,0.,0.,-0.00679982,0.,0.,
 0.00188084,0.,0.,0.00330890,0.,0.,0.00177542,0.,0.,0.00456471,0.,0.,-0
 .01092838,0.,0.,0.01298688,-0.01539198,0.02052580,0.,-0.26708448,0.120
 48220,0.,-0.00237994,-0.00087341,0.,-0.00081694,0.05057190,0.,0.001515
 04,0.00068200,0.,-0.02772936,-0.04110036,0.,-0.25250755,-0.12723239,0.
 ,-0.06428839,0.02585495,0.,0.62868359,-0.01371622,0.01265596,0.,0.1152
 1748,-0.18881447,0.,-0.00514939,-0.00408307,0.,-0.00614928,-0.08264717
 ,0.,0.00502953,-0.00610308,0.,-0.02301655,-0.12026245,0.,-0.05508671,-
 0.14885581,0.,0.03178182,-0.43836406,0.,-0.04891068,0.97647414,0.,0.,-
 0.00449613,0.,0.,-0.05346687,0.,0.,0.00470034,0.,0.,0.01187725,0.,0.,0
 .00673637,0.,0.,0.01305651,0.,0.,-0.06542834,0.,0.,-0.00545410,0.,0.,0
 .09247499\\-0.00001375,0.00002197,0.,0.00003270,-0.00003665,0.,-0.0000
 1126,-0.00002397,0.,-0.00003376,0.00001552,0.,0.00003623,-0.00004378,0
 .,0.00006626,0.00000470,0.,-0.00010561,0.00000917,0.,-0.00003113,0.000
 01830,0.,0.00006032,0.00003475,0.\\\@


 MOM AND DAD WENT TO ALPHA CENTAURI AND ALL
 I GOT WAS THIS DUMB T-SHIRT.
 Job cpu time:  0 days  0 hours  2 minutes  5.9 seconds.
 File lengths (MBytes):  RWF=     23 Int=      0 D2E=      0 Chk=      7 Scr=      1
 Normal termination of Gaussian 03 at Thu Mar  6 13:54:52 2008.
