 host = p1921 (kernel = 2.6.18-53.el5)
 Running revision D01, using 64-bit version

 Current disk usage on p1921
tmpfs                 3.9G     0  3.9G   0% /dev/shm

 START DATE Mon Mar 17 13:55:47 EDT 2008
 Entering Gaussian System, Link 0=/usr/local/gaussian03-rev-D01-64/g03/g03
 Initial command:
 /usr/local/gaussian03-rev-D01-64/g03/l1.exe /gaussian/Gau-2938.inp -scrdir=/gaussian/
 Entering Link 1 = /usr/local/gaussian03-rev-D01-64/g03/l1.exe PID=      2951.
  
 Copyright (c) 1988,1990,1992,1993,1995,1998,2003,2004, Gaussian, Inc.
                  All Rights Reserved.
  
 This is the Gaussian(R) 03 program.  It is based on the
 the Gaussian(R) 98 system (copyright 1998, Gaussian, Inc.),
 the Gaussian(R) 94 system (copyright 1995, Gaussian, Inc.),
 the Gaussian 92(TM) system (copyright 1992, Gaussian, Inc.),
 the Gaussian 90(TM) system (copyright 1990, Gaussian, Inc.),
 the Gaussian 88(TM) system (copyright 1988, Gaussian, Inc.),
 the Gaussian 86(TM) system (copyright 1986, Carnegie Mellon
 University), and the Gaussian 82(TM) system (copyright 1983,
 Carnegie Mellon University). Gaussian is a federally registered
 trademark of Gaussian, Inc.
  
 This software contains proprietary and confidential information,
 including trade secrets, belonging to Gaussian, Inc.
  
 This software is provided under written license and may be
 used, copied, transmitted, or stored only in accord with that
 written license.
  
 The following legend is applicable only to US Government
 contracts under FAR:
  
                    RESTRICTED RIGHTS LEGEND
  
 Use, reproduction and disclosure by the US Government is
 subject to restrictions as set forth in subparagraphs (a)
 and (c) of the Commercial Computer Software - Restricted
 Rights clause in FAR 52.227-19.
  
 Gaussian, Inc.
 340 Quinnipiac St., Bldg. 40, Wallingford CT 06492
  
  
 ---------------------------------------------------------------
 Warning -- This program may not be used in any manner that
 competes with the business of Gaussian, Inc. or will provide
 assistance to any competitor of Gaussian, Inc.  The licensee
 of this program is prohibited from giving any competitor of
 Gaussian, Inc. access to this program.  By using this program,
 the user acknowledges that Gaussian, Inc. is engaged in the
 business of creating and licensing software in the field of
 computational chemistry and represents and warrants to the
 licensee that it is not a competitor of Gaussian, Inc. and that
 it will not use this program in any manner prohibited above.
 ---------------------------------------------------------------
  

 Cite this work as:
 Gaussian 03, Revision D.01,
 M. J. Frisch, G. W. Trucks, H. B. Schlegel, G. E. Scuseria, 
 M. A. Robb, J. R. Cheeseman, J. A. Montgomery, Jr., T. Vreven, 
 K. N. Kudin, J. C. Burant, J. M. Millam, S. S. Iyengar, J. Tomasi, 
 V. Barone, B. Mennucci, M. Cossi, G. Scalmani, N. Rega, 
 G. A. Petersson, H. Nakatsuji, M. Hada, M. Ehara, K. Toyota, 
 R. Fukuda, J. Hasegawa, M. Ishida, T. Nakajima, Y. Honda, O. Kitao, 
 H. Nakai, M. Klene, X. Li, J. E. Knox, H. P. Hratchian, J. B. Cross, 
 V. Bakken, C. Adamo, J. Jaramillo, R. Gomperts, R. E. Stratmann, 
 O. Yazyev, A. J. Austin, R. Cammi, C. Pomelli, J. W. Ochterski, 
 P. Y. Ayala, K. Morokuma, G. A. Voth, P. Salvador, J. J. Dannenberg, 
 V. G. Zakrzewski, S. Dapprich, A. D. Daniels, M. C. Strain, 
 O. Farkas, D. K. Malick, A. D. Rabuck, K. Raghavachari, 
 J. B. Foresman, J. V. Ortiz, Q. Cui, A. G. Baboul, S. Clifford, 
 J. Cioslowski, B. B. Stefanov, G. Liu, A. Liashenko, P. Piskorz, 
 I. Komaromi, R. L. Martin, D. J. Fox, T. Keith, M. A. Al-Laham, 
 C. Y. Peng, A. Nanayakkara, M. Challacombe, P. M. W. Gill, 
 B. Johnson, W. Chen, M. W. Wong, C. Gonzalez, and J. A. Pople, 
 Gaussian, Inc., Wallingford CT, 2004.
 
 ******************************************
 Gaussian 03:  AM64L-G03RevD.01 13-Oct-2005
                17-Mar-2008 
 ******************************************
 %mem=24000000
 -----------------------
 #LSDA/6-311G** opt freq
 -----------------------
 1/14=-1,18=20,26=3,38=1/1,3;
 2/9=110,17=6,18=5,40=1/2;
 3/5=4,6=6,7=101,11=2,16=1,25=1,30=1,74=205/1,2,3;
 4//1;
 5/5=2,38=5/2;
 6/7=2,8=2,9=2,10=2,28=1/1;
 7//1,2,3,16;
 1/14=-1,18=20/3(3);
 2/9=110/2;
 6/7=2,8=2,9=2,10=2,19=2,28=1/1;
 99//99;
 2/9=110/2;
 3/5=4,6=6,7=101,11=2,16=1,25=1,30=1,74=205/1,2,3;
 4/5=5,16=3/1;
 5/5=2,38=5/2;
 7//1,2,3,16;
 1/14=-1,18=20/3(-5);
 2/9=110/2;
 6/7=2,8=2,9=2,10=2,19=2,28=1/1;
 99/9=1/99;
 ------------------------------------------------------------
 1hpyraz 1H-Pyrazole casno=288131 method=51 basis=21 config=1
 ------------------------------------------------------------
 Symbolic Z-matrix:
 Charge =  0 Multiplicity = 1
 H                     2.08045   0.72242   0. 
 C                     1.09639   0.3024    0. 
 H                     1.25554  -1.87978   0. 
 C                     0.66281  -0.9897    0. 
 H                    -1.47487  -1.65877   0. 
 C                    -0.74554  -0.87448   0. 
 N                    -1.12786   0.37057   0. 
 H                    -0.04808   2.06666   0. 
 N                     0.        1.07516   0. 
 

 GradGradGradGradGradGradGradGradGradGradGradGradGradGradGradGradGradGrad
 Berny optimization.
 Initialization pass.
                           ----------------------------
                           !    Initial Parameters    !
                           ! (Angstroms and Degrees)  !
 --------------------------                            --------------------------
 ! Name  Definition              Value          Derivative Info.                !
 --------------------------------------------------------------------------------
 ! R1    R(1,2)                  1.0699         estimate D2E/DX2                !
 ! R2    R(2,4)                  1.3629         estimate D2E/DX2                !
 ! R3    R(2,9)                  1.3414         estimate D2E/DX2                !
 ! R4    R(3,4)                  1.0694         estimate D2E/DX2                !
 ! R5    R(4,6)                  1.4131         estimate D2E/DX2                !
 ! R6    R(5,6)                  1.071          estimate D2E/DX2                !
 ! R7    R(6,7)                  1.3024         estimate D2E/DX2                !
 ! R8    R(7,9)                  1.3299         estimate D2E/DX2                !
 ! R9    R(8,9)                  0.9927         estimate D2E/DX2                !
 ! A1    A(1,2,4)              131.6638         estimate D2E/DX2                !
 ! A2    A(1,2,9)              121.709          estimate D2E/DX2                !
 ! A3    A(4,2,9)              106.6272         estimate D2E/DX2                !
 ! A4    A(2,4,3)              127.7894         estimate D2E/DX2                !
 ! A5    A(2,4,6)              103.8727         estimate D2E/DX2                !
 ! A6    A(3,4,6)              128.3379         estimate D2E/DX2                !
 ! A7    A(4,6,5)              128.2433         estimate D2E/DX2                !
 ! A8    A(4,6,7)              111.7472         estimate D2E/DX2                !
 ! A9    A(5,6,7)              120.0095         estimate D2E/DX2                !
 ! A10   A(6,7,9)              104.9237         estimate D2E/DX2                !
 ! A11   A(2,9,7)              112.8292         estimate D2E/DX2                !
 ! A12   A(2,9,8)              127.9532         estimate D2E/DX2                !
 ! A13   A(7,9,8)              119.2176         estimate D2E/DX2                !
 ! D1    D(1,2,4,3)              0.0            estimate D2E/DX2                !
 ! D2    D(1,2,4,6)            180.0            estimate D2E/DX2                !
 ! D3    D(9,2,4,3)            180.0            estimate D2E/DX2                !
 ! D4    D(9,2,4,6)              0.0            estimate D2E/DX2                !
 ! D5    D(1,2,9,7)            180.0            estimate D2E/DX2                !
 ! D6    D(1,2,9,8)              0.0            estimate D2E/DX2                !
 ! D7    D(4,2,9,7)              0.0            estimate D2E/DX2                !
 ! D8    D(4,2,9,8)            180.0            estimate D2E/DX2                !
 ! D9    D(2,4,6,5)            180.0            estimate D2E/DX2                !
 ! D10   D(2,4,6,7)              0.0            estimate D2E/DX2                !
 ! D11   D(3,4,6,5)              0.0            estimate D2E/DX2                !
 ! D12   D(3,4,6,7)            180.0            estimate D2E/DX2                !
 ! D13   D(4,6,7,9)              0.0            estimate D2E/DX2                !
 ! D14   D(5,6,7,9)            180.0            estimate D2E/DX2                !
 ! D15   D(6,7,9,2)              0.0            estimate D2E/DX2                !
 ! D16   D(6,7,9,8)            180.0            estimate D2E/DX2                !
 --------------------------------------------------------------------------------
 Trust Radius=3.00D-01 FncErr=1.00D-07 GrdErr=1.00D-06
 Number of steps in this run=  48 maximum allowed number of steps= 100.
 GradGradGradGradGradGradGradGradGradGradGradGradGradGradGradGradGradGrad

                          Input orientation:                          
 ---------------------------------------------------------------------
 Center     Atomic     Atomic              Coordinates (Angstroms)
 Number     Number      Type              X           Y           Z
 ---------------------------------------------------------------------
    1          1             0        2.080447    0.722417    0.000000
    2          6             0        1.096394    0.302400    0.000000
    3          1             0        1.255542   -1.879784    0.000000
    4          6             0        0.662812   -0.989701    0.000000
    5          1             0       -1.474873   -1.658768    0.000000
    6          6             0       -0.745544   -0.874478    0.000000
    7          7             0       -1.127859    0.370571    0.000000
    8          1             0       -0.048078    2.066660    0.000000
    9          7             0        0.000000    1.075164    0.000000
 ---------------------------------------------------------------------
                    Distance matrix (angstroms):
                    1          2          3          4          5
     1  H    0.000000
     2  C    1.069941   0.000000
     3  H    2.729820   2.187980   0.000000
     4  C    2.222844   1.362908   1.069381   0.000000
     5  H    4.279059   3.233820   2.739346   2.239944   0.000000
     6  C    3.245967   2.185813   2.239416   1.413062   1.070996
     7  N    3.227541   2.225297   3.277911   2.248742   2.058795
     8  H    2.517461   2.102957   4.156182   3.137946   3.989305
     9  N    2.110140   1.341359   3.210624   2.168637   3.106386
                    6          7          8          9
     6  C    0.000000
     7  N    1.302425   0.000000
     8  H    3.022706   2.010633   0.000000
     9  N    2.087328   1.329856   0.992661   0.000000
 Stoichiometry    C3H4N2
 Framework group  CS[SG(C3H4N2)]
 Deg. of freedom    15
 Full point group                 CS
 Largest Abelian subgroup         CS      NOp   2
 Largest concise Abelian subgroup C1      NOp   1
                         Standard orientation:                         
 ---------------------------------------------------------------------
 Center     Atomic     Atomic              Coordinates (Angstroms)
 Number     Number      Type              X           Y           Z
 ---------------------------------------------------------------------
    1          1             0        2.080447    0.722417    0.000000
    2          6             0        1.096394    0.302400    0.000000
    3          1             0        1.255542   -1.879784    0.000000
    4          6             0        0.662812   -0.989701    0.000000
    5          1             0       -1.474873   -1.658768    0.000000
    6          6             0       -0.745544   -0.874478    0.000000
    7          7             0       -1.127859    0.370571    0.000000
    8          1             0       -0.048078    2.066660    0.000000
    9          7             0        0.000000    1.075164    0.000000
 ---------------------------------------------------------------------
 Rotational constants (GHZ):      9.8799678      9.6409251      4.8794914
 Standard basis: 6-311G(d,p) (5D, 7F)
 There are    85 symmetry adapted basis functions of A'  symmetry.
 There are    29 symmetry adapted basis functions of A"  symmetry.
 Integral buffers will be    131072 words long.
 Raffenetti 2 integral format.
 Two-electron integral symmetry is turned on.
   114 basis functions,   192 primitive gaussians,   119 cartesian basis functions
    18 alpha electrons       18 beta electrons
       nuclear repulsion energy       164.9559149755 Hartrees.
 NAtoms=    9 NActive=    9 NUniq=    9 SFac= 7.50D-01 NAtFMM=   80 NAOKFM=F Big=F
 One-electron integrals computed using PRISM.
 NBasis=   114 RedAO= T  NBF=    85    29
 NBsUse=   114 1.00D-06 NBFU=    85    29
 Harris functional with IExCor=  205 diagonalized for initial guess.
 ExpMin= 1.03D-01 ExpMax= 6.29D+03 ExpMxC= 9.49D+02 IAcc=1 IRadAn=         1 AccDes= 1.00D-06
 HarFok:  IExCor= 205 AccDes= 1.00D-06 IRadAn=         1 IDoV=1
 ScaDFX=  1.000000  1.000000  1.000000  1.000000
 Initial guess orbital symmetries:
       Occupied  (A') (A') (A') (A') (A') (A') (A') (A') (A') (A')
                 (A') (A') (A') (A") (A') (A') (A") (A")
       Virtual   (A") (A") (A') (A') (A') (A') (A') (A') (A') (A')
                 (A') (A') (A') (A") (A') (A') (A") (A') (A") (A')
                 (A') (A') (A') (A") (A') (A') (A") (A') (A') (A')
                 (A') (A") (A') (A') (A") (A') (A") (A") (A') (A')
                 (A") (A') (A') (A") (A') (A') (A') (A') (A") (A")
                 (A') (A') (A') (A") (A") (A') (A') (A") (A') (A')
                 (A') (A") (A') (A") (A') (A") (A') (A') (A") (A')
                 (A') (A') (A") (A') (A') (A") (A') (A') (A') (A')
                 (A') (A') (A") (A') (A") (A') (A') (A') (A') (A')
                 (A') (A') (A') (A') (A') (A')
 The electronic state of the initial guess is 1-A'.
 Requested convergence on RMS density matrix=1.00D-08 within 128 cycles.
 Requested convergence on MAX density matrix=1.00D-06.
 Requested convergence on             energy=1.00D-06.
 No special actions if energy rises.
 Integral accuracy reduced to 1.0D-05 until final iterations.
 Initial convergence to 1.0D-05 achieved.  Increase integral accuracy.
 SCF Done:  E(RS-VWN) =  -225.022427163     A.U. after   15 cycles
             Convg  =    0.4709D-08             -V/T =  2.0069
             S**2   =   0.0000

 **********************************************************************

            Population analysis using the SCF density.

 **********************************************************************

 Orbital symmetries:
       Occupied  (A') (A') (A') (A') (A') (A') (A') (A') (A') (A')
                 (A') (A") (A') (A') (A') (A') (A") (A")
       Virtual   (A") (A') (A") (A') (A') (A') (A') (A') (A') (A')
                 (A') (A') (A') (A") (A') (A') (A") (A') (A") (A')
                 (A') (A") (A') (A') (A') (A") (A') (A') (A') (A')
                 (A') (A') (A") (A') (A") (A') (A") (A') (A") (A')
                 (A") (A') (A') (A") (A') (A') (A') (A') (A") (A")
                 (A') (A') (A') (A") (A") (A') (A') (A") (A') (A')
                 (A') (A") (A') (A") (A') (A') (A') (A") (A") (A')
                 (A') (A') (A') (A") (A') (A") (A') (A') (A') (A')
                 (A') (A') (A") (A') (A") (A') (A') (A') (A') (A')
                 (A') (A') (A') (A') (A') (A')
 The electronic state is 1-A'.
 Alpha  occ. eigenvalues --  -13.94477 -13.88049  -9.82736  -9.80533  -9.78827
 Alpha  occ. eigenvalues --   -0.99373  -0.76925  -0.73002  -0.57607  -0.56798
 Alpha  occ. eigenvalues --   -0.51476  -0.42516  -0.42386  -0.40341  -0.37475
 Alpha  occ. eigenvalues --   -0.26144  -0.25644  -0.24813
 Alpha virt. eigenvalues --   -0.03538   0.00433   0.00815   0.04623   0.05864
 Alpha virt. eigenvalues --    0.07838   0.14049   0.16041   0.19373   0.21283
 Alpha virt. eigenvalues --    0.29532   0.32885   0.33586   0.33959   0.35715
 Alpha virt. eigenvalues --    0.38407   0.39130   0.43782   0.44515   0.52335
 Alpha virt. eigenvalues --    0.55276   0.55714   0.56092   0.57284   0.61127
 Alpha virt. eigenvalues --    0.64544   0.64607   0.65245   0.71981   0.73084
 Alpha virt. eigenvalues --    0.76802   0.84660   0.89598   0.94225   1.01674
 Alpha virt. eigenvalues --    1.05721   1.08835   1.15553   1.16465   1.25426
 Alpha virt. eigenvalues --    1.30904   1.38820   1.43080   1.48738   1.51193
 Alpha virt. eigenvalues --    1.55109   1.57575   1.62131   1.62941   1.70243
 Alpha virt. eigenvalues --    1.72654   1.80068   1.83234   1.83745   1.89205
 Alpha virt. eigenvalues --    1.90285   1.93264   2.05701   2.07733   2.16084
 Alpha virt. eigenvalues --    2.26063   2.28500   2.37245   2.42845   2.47135
 Alpha virt. eigenvalues --    2.49730   2.52885   2.52885   2.55990   2.56105
 Alpha virt. eigenvalues --    2.59580   2.61323   2.64406   2.70160   2.79456
 Alpha virt. eigenvalues --    2.83524   2.95056   3.02357   3.18648   3.24796
 Alpha virt. eigenvalues --    3.38310   3.43880   3.51365   3.54188   3.75031
 Alpha virt. eigenvalues --    3.93920   3.95372   4.06563   4.36967   4.82536
 Alpha virt. eigenvalues --    5.33696  23.61251  23.90205  24.11846  35.42001
 Alpha virt. eigenvalues --   35.46306
          Condensed to atoms (all electrons):
              1          2          3          4          5          6
     1  H    0.521346   0.402962  -0.000732  -0.034379  -0.000227   0.005546
     2  C    0.402962   5.020366  -0.045876   0.478699   0.010882  -0.105242
     3  H   -0.000732  -0.045876   0.526143   0.406459  -0.002251  -0.028642
     4  C   -0.034379   0.478699   0.406459   5.106875  -0.056071   0.514050
     5  H   -0.000227   0.010882  -0.002251  -0.056071   0.524159   0.420110
     6  C    0.005546  -0.105242  -0.028642   0.514050   0.420110   4.764463
     7  N    0.005148  -0.156669   0.008291  -0.038113  -0.031691   0.563837
     8  H   -0.002491  -0.045991  -0.000285   0.011391  -0.000586   0.006163
     9  N   -0.031622   0.316216   0.007521  -0.026045   0.005240  -0.178361
              7          8          9
     1  H    0.005148  -0.002491  -0.031622
     2  C   -0.156669  -0.045991   0.316216
     3  H    0.008291  -0.000285   0.007521
     4  C   -0.038113   0.011391  -0.026045
     5  H   -0.031691  -0.000586   0.005240
     6  C    0.563837   0.006163  -0.178361
     7  N    6.523192  -0.034299   0.346902
     8  H   -0.034299   0.432553   0.377434
     9  N    0.346902   0.377434   6.446345
 Mulliken atomic charges:
              1
     1  H    0.134447
     2  C    0.124653
     3  H    0.129372
     4  C   -0.362866
     5  H    0.130434
     6  C    0.038076
     7  N   -0.186598
     8  H    0.256112
     9  N   -0.263631
 Sum of Mulliken charges=   0.00000
 Atomic charges with hydrogens summed into heavy atoms:
              1
     1  H    0.000000
     2  C    0.259100
     3  H    0.000000
     4  C   -0.233494
     5  H    0.000000
     6  C    0.168510
     7  N   -0.186598
     8  H    0.000000
     9  N   -0.007519
 Sum of Mulliken charges=   0.00000
 Electronic spatial extent (au):  <R**2>=   280.9982
 Charge=     0.0000 electrons
 Dipole moment (field-independent basis, Debye):
    X=     2.0235    Y=     0.9885    Z=     0.0000  Tot=     2.2521
 Quadrupole moment (field-independent basis, Debye-Ang):
   XX=   -29.6317   YY=   -22.0456   ZZ=   -31.7653
   XY=     2.4375   XZ=     0.0000   YZ=     0.0000
 Traceless Quadrupole moment (field-independent basis, Debye-Ang):
   XX=    -1.8175   YY=     5.7686   ZZ=    -3.9511
   XY=     2.4375   XZ=     0.0000   YZ=     0.0000
 Octapole moment (field-independent basis, Debye-Ang**2):
  XXX=     8.5681  YYY=    12.1993  ZZZ=     0.0000  XYY=     0.3891
  XXY=    -2.3100  XXZ=     0.0000  XZZ=    -1.2057  YZZ=     2.4308
  YYZ=     0.0000  XYZ=     0.0000
 Hexadecapole moment (field-independent basis, Debye-Ang**3):
 XXXX=  -172.1982 YYYY=  -130.8819 ZZZZ=   -32.9772 XXXY=    10.3209
 XXXZ=     0.0000 YYYX=    -1.7370 YYYZ=     0.0000 ZZZX=     0.0000
 ZZZY=     0.0000 XXYY=   -50.5856 XXZZ=   -37.8224 YYZZ=   -36.4063
 XXYZ=     0.0000 YYXZ=     0.0000 ZZXY=    -0.1884
 N-N= 1.649559149755D+02 E-N=-8.549207289470D+02  KE= 2.234853632499D+02
 Symmetry A'   KE= 2.151029503763D+02
 Symmetry A"   KE= 8.382412873577D+00
 Calling FoFCou, ICntrl=  2527 FMM=F ISym2X=1 I1Cent= 0 ISCF1= 0.
 ***** Axes restored to original set *****
 -------------------------------------------------------------------
 Center     Atomic                   Forces (Hartrees/Bohr)
 Number     Number              X              Y              Z
 -------------------------------------------------------------------
    1          1           0.011815827    0.004499272    0.000000000
    2          6           0.002059869    0.000906851    0.000000000
    3          1           0.006775267   -0.009747750    0.000000000
    4          6          -0.014891140    0.001012019    0.000000000
    5          1          -0.008782135   -0.009291590    0.000000000
    6          6           0.019461365   -0.012304549    0.000000000
    7          7          -0.011383183    0.020271779    0.000000000
    8          1          -0.001152145    0.021610002    0.000000000
    9          7          -0.003903724   -0.016956033    0.000000000
 -------------------------------------------------------------------
 Cartesian Forces:  Max     0.021610002 RMS     0.009687353

 GradGradGradGradGradGradGradGradGradGradGradGradGradGradGradGradGradGrad
 Berny optimization.
 Internal  Forces:  Max     0.021746585 RMS     0.006612415
 Search for a local minimum.
 Step number   1 out of a maximum of  48
 All quantities printed in internal units (Hartrees-Bohrs-Radians)
 Second derivative matrix not updated -- first step.
     Eigenvalues ---    0.02140   0.02277   0.02344   0.02397   0.02534
     Eigenvalues ---    0.02554   0.16000   0.16000   0.16000   0.16000
     Eigenvalues ---    0.22000   0.22929   0.37105   0.37238   0.37308
     Eigenvalues ---    0.40394   0.48796   0.49002   0.53148   0.57511
     Eigenvalues ---    0.639231000.000001000.000001000.000001000.00000
     Eigenvalues --- 1000.000001000.000001000.000001000.000001000.00000
     Eigenvalues --- 1000.000001000.000001000.000001000.000001000.00000
     Eigenvalues --- 1000.000001000.000001000.00000
 RFO step:  Lambda=-3.39733488D-03.
 Linear search not attempted -- first point.
 Iteration  1 RMS(Cart)=  0.01608343 RMS(Int)=  0.00002368
 Iteration  2 RMS(Cart)=  0.00002776 RMS(Int)=  0.00000816
 Iteration  3 RMS(Cart)=  0.00000000 RMS(Int)=  0.00000816
 Variable       Old X    -DE/DX   Delta X   Delta X   Delta X     New X
                                 (Linear)    (Quad)   (Total)
    R1        2.02190   0.01263   0.00000   0.03362   0.03362   2.05552
    R2        2.57552   0.01101   0.00000   0.01996   0.01996   2.59548
    R3        2.53480   0.00982   0.00000   0.01694   0.01696   2.55176
    R4        2.02084   0.01187   0.00000   0.03153   0.03153   2.05237
    R5        2.67030  -0.00316   0.00000  -0.00751  -0.00753   2.66277
    R6        2.02389   0.01279   0.00000   0.03415   0.03415   2.05803
    R7        2.46123   0.02175   0.00000   0.03311   0.03310   2.49433
    R8        2.51306   0.00327   0.00000   0.00611   0.00612   2.51919
    R9        1.87586   0.02164   0.00000   0.04386   0.04386   1.91971
    A1        2.29797  -0.00006   0.00000   0.00045   0.00045   2.29841
    A2        2.12422   0.00093   0.00000   0.00649   0.00648   2.13071
    A3        1.86100  -0.00087   0.00000  -0.00694  -0.00693   1.85406
    A4        2.23035  -0.00128   0.00000  -0.00454  -0.00454   2.22581
    A5        1.81292   0.00205   0.00000   0.00601   0.00599   1.81892
    A6        2.23992  -0.00077   0.00000  -0.00147  -0.00146   2.23846
    A7        2.23827  -0.00004   0.00000  -0.00032  -0.00031   2.23796
    A8        1.95036   0.00026   0.00000   0.00175   0.00173   1.95208
    A9        2.09456  -0.00022   0.00000  -0.00143  -0.00142   2.09314
   A10        1.83126  -0.00270   0.00000  -0.00699  -0.00699   1.82428
   A11        1.96924   0.00126   0.00000   0.00618   0.00620   1.97544
   A12        2.23320  -0.00052   0.00000  -0.00242  -0.00243   2.23078
   A13        2.08074  -0.00074   0.00000  -0.00376  -0.00377   2.07697
    D1        0.00000   0.00000   0.00000   0.00000   0.00000   0.00000
    D2        3.14159   0.00000   0.00000   0.00000   0.00000   3.14159
    D3        3.14159   0.00000   0.00000   0.00000   0.00000   3.14159
    D4        0.00000   0.00000   0.00000   0.00000   0.00000   0.00000
    D5        3.14159   0.00000   0.00000   0.00000   0.00000   3.14159
    D6        0.00000   0.00000   0.00000   0.00000   0.00000   0.00000
    D7        0.00000   0.00000   0.00000   0.00000   0.00000   0.00000
    D8        3.14159   0.00000   0.00000   0.00000   0.00000   3.14159
    D9        3.14159   0.00000   0.00000   0.00000   0.00000   3.14159
   D10        0.00000   0.00000   0.00000   0.00000   0.00000   0.00000
   D11        0.00000   0.00000   0.00000   0.00000   0.00000   0.00000
   D12        3.14159   0.00000   0.00000   0.00000   0.00000   3.14159
   D13        0.00000   0.00000   0.00000   0.00000   0.00000   0.00000
   D14        3.14159   0.00000   0.00000   0.00000   0.00000   3.14159
   D15        0.00000   0.00000   0.00000   0.00000   0.00000   0.00000
   D16        3.14159   0.00000   0.00000   0.00000   0.00000   3.14159
         Item               Value     Threshold  Converged?
 Maximum Force            0.021747     0.000450     NO 
 RMS     Force            0.006612     0.000300     NO 
 Maximum Displacement     0.054726     0.001800     NO 
 RMS     Displacement     0.016075     0.001200     NO 
 Predicted change in Energy=-1.711140D-03
 GradGradGradGradGradGradGradGradGradGradGradGradGradGradGradGradGradGrad

                          Input orientation:                          
 ---------------------------------------------------------------------
 Center     Atomic     Atomic              Coordinates (Angstroms)
 Number     Number      Type              X           Y           Z
 ---------------------------------------------------------------------
    1          1             0        2.103880    0.728298    0.000000
    2          6             0        1.101675    0.305514    0.000000
    3          1             0        1.260541   -1.898595    0.000000
    4          6             0        0.658673   -0.994553    0.000000
    5          1             0       -1.486189   -1.680272    0.000000
    6          6             0       -0.745866   -0.881533    0.000000
    7          7             0       -1.137188    0.379067    0.000000
    8          1             0       -0.052866    2.095620    0.000000
    9          7             0       -0.003819    1.080936    0.000000
 ---------------------------------------------------------------------
                    Distance matrix (angstroms):
                    1          2          3          4          5
     1  H    0.000000
     2  C    1.087732   0.000000
     3  H    2.758947   2.209827   0.000000
     4  C    2.248741   1.373471   1.086065   0.000000
     5  H    4.323171   3.261960   2.755392   2.251809   0.000000
     6  C    3.273012   2.196017   2.249463   1.409079   1.089065
     7  N    3.259829   2.240071   3.307090   2.260962   2.088702
     8  H    2.553649   2.130128   4.204615   3.171033   4.038784
     9  N    2.136995   1.350332   3.236697   2.178657   3.133957
                    6          7          8          9
     6  C    0.000000
     7  N    1.319941   0.000000
     8  H    3.056744   2.030347   0.000000
     9  N    2.098075   1.333096   1.015869   0.000000
 Stoichiometry    C3H4N2
 Framework group  CS[SG(C3H4N2)]
 Deg. of freedom    15
 Full point group                 CS
 Largest Abelian subgroup         CS      NOp   2
 Largest concise Abelian subgroup C1      NOp   1
                         Standard orientation:                         
 ---------------------------------------------------------------------
 Center     Atomic     Atomic              Coordinates (Angstroms)
 Number     Number      Type              X           Y           Z
 ---------------------------------------------------------------------
    1          1             0        2.107128    0.723744    0.000000
    2          6             0        1.104242    0.302577    0.000000
    3          1             0        1.259553   -1.901785    0.000000
    4          6             0        0.659144   -0.996773    0.000000
    5          1             0       -1.486821   -1.679033    0.000000
    6          6             0       -0.745211   -0.881489    0.000000
    7          7             0       -1.134500    0.379740    0.000000
    8          1             0       -0.047411    2.094542    0.000000
    9          7             0        0.000000    1.079780    0.000000
 ---------------------------------------------------------------------
 Rotational constants (GHZ):      9.7413483      9.5306050      4.8174122
 Standard basis: 6-311G(d,p) (5D, 7F)
 There are    85 symmetry adapted basis functions of A'  symmetry.
 There are    29 symmetry adapted basis functions of A"  symmetry.
 Integral buffers will be    131072 words long.
 Raffenetti 2 integral format.
 Two-electron integral symmetry is turned on.
   114 basis functions,   192 primitive gaussians,   119 cartesian basis functions
    18 alpha electrons       18 beta electrons
       nuclear repulsion energy       163.7925336319 Hartrees.
 NAtoms=    9 NActive=    9 NUniq=    9 SFac= 7.50D-01 NAtFMM=   80 NAOKFM=F Big=F
 One-electron integrals computed using PRISM.
 NBasis=   114 RedAO= T  NBF=    85    29
 NBsUse=   114 1.00D-06 NBFU=    85    29
 Initial guess read from the read-write file:
 Initial guess orbital symmetries:
       Occupied  (A') (A') (A') (A') (A') (A') (A') (A') (A') (A')
                 (A') (A") (A') (A') (A') (A') (A") (A")
       Virtual   (A") (A') (A") (A') (A') (A') (A') (A') (A') (A')
                 (A') (A') (A') (A") (A') (A') (A") (A') (A") (A')
                 (A') (A") (A') (A') (A') (A") (A') (A') (A') (A')
                 (A') (A') (A") (A') (A") (A') (A") (A') (A") (A')
                 (A") (A') (A') (A") (A') (A') (A') (A') (A") (A")
                 (A') (A') (A') (A") (A") (A') (A') (A") (A') (A')
                 (A') (A") (A') (A") (A') (A') (A') (A") (A") (A')
                 (A') (A') (A') (A") (A') (A") (A') (A') (A') (A')
                 (A') (A') (A") (A') (A") (A') (A') (A') (A') (A')
                 (A') (A') (A') (A') (A') (A')
 Harris functional with IExCor=  205 diagonalized for initial guess.
 ExpMin= 1.03D-01 ExpMax= 6.29D+03 ExpMxC= 9.49D+02 IAcc=1 IRadAn=         1 AccDes= 1.00D-06
 HarFok:  IExCor= 205 AccDes= 1.00D-06 IRadAn=         1 IDoV=1
 ScaDFX=  1.000000  1.000000  1.000000  1.000000
 Requested convergence on RMS density matrix=1.00D-08 within 128 cycles.
 Requested convergence on MAX density matrix=1.00D-06.
 Requested convergence on             energy=1.00D-06.
 No special actions if energy rises.
 Integral accuracy reduced to 1.0D-05 until final iterations.
 Initial convergence to 1.0D-05 achieved.  Increase integral accuracy.
 SCF Done:  E(RS-VWN) =  -225.024208090     A.U. after   12 cycles
             Convg  =    0.8811D-08             -V/T =  2.0078
             S**2   =   0.0000
 Calling FoFCou, ICntrl=  2527 FMM=F ISym2X=1 I1Cent= 0 ISCF1= 0.
 ***** Axes restored to original set *****
 -------------------------------------------------------------------
 Center     Atomic                   Forces (Hartrees/Bohr)
 Number     Number              X              Y              Z
 -------------------------------------------------------------------
    1          1          -0.000164270   -0.000067415    0.000000000
    2          6           0.002067922    0.001730261    0.000000000
    3          1           0.000276447    0.000096744    0.000000000
    4          6          -0.005244726    0.000224817    0.000000000
    5          1          -0.000351551    0.000514350    0.000000000
    6          6           0.006105239   -0.005200324    0.000000000
    7          7          -0.001858118    0.005652949    0.000000000
    8          1           0.000057659    0.000255819    0.000000000
    9          7          -0.000888602   -0.003207201    0.000000000
 -------------------------------------------------------------------
 Cartesian Forces:  Max     0.006105239 RMS     0.002327004

 GradGradGradGradGradGradGradGradGradGradGradGradGradGradGradGradGradGrad
 Berny optimization.
 Internal  Forces:  Max     0.004330989 RMS     0.001058674
 Search for a local minimum.
 Step number   2 out of a maximum of  48
 All quantities printed in internal units (Hartrees-Bohrs-Radians)
 Update second derivatives using D2CorX and points  1  2
 Trust test= 1.04D+00 RLast= 8.57D-02 DXMaxT set to 3.00D-01
     Eigenvalues ---    0.02140   0.02277   0.02344   0.02397   0.02533
     Eigenvalues ---    0.02554   0.15954   0.16000   0.16000   0.16013
     Eigenvalues ---    0.21530   0.22717   0.37002   0.37166   0.37305
     Eigenvalues ---    0.40574   0.48855   0.49048   0.54772   0.58027
     Eigenvalues ---    0.598561000.000001000.000001000.000001000.00000
     Eigenvalues --- 1000.000001000.000001000.000001000.000001000.00000
     Eigenvalues --- 1000.000001000.000001000.000001000.000001000.00000
     Eigenvalues --- 1000.000001000.000001000.00000
 RFO step:  Lambda=-9.74878883D-05.
 Quartic linear search produced a step of  0.07410.
 Iteration  1 RMS(Cart)=  0.00189351 RMS(Int)=  0.00000496
 Iteration  2 RMS(Cart)=  0.00000544 RMS(Int)=  0.00000277
 Iteration  3 RMS(Cart)=  0.00000000 RMS(Int)=  0.00000277
 Variable       Old X    -DE/DX   Delta X   Delta X   Delta X     New X
                                 (Linear)    (Quad)   (Total)
    R1        2.05552  -0.00018   0.00249  -0.00190   0.00059   2.05611
    R2        2.59548   0.00092   0.00148   0.00078   0.00226   2.59774
    R3        2.55176  -0.00023   0.00126  -0.00135  -0.00009   2.55167
    R4        2.05237   0.00007   0.00234  -0.00109   0.00125   2.05361
    R5        2.66277  -0.00365  -0.00056  -0.00860  -0.00916   2.65361
    R6        2.05803  -0.00014   0.00253  -0.00180   0.00073   2.05876
    R7        2.49433   0.00433   0.00245   0.00580   0.00825   2.50257
    R8        2.51919  -0.00121   0.00045  -0.00234  -0.00188   2.51731
    R9        1.91971   0.00025   0.00325  -0.00130   0.00195   1.92166
    A1        2.29841   0.00043   0.00003   0.00272   0.00275   2.30116
    A2        2.13071   0.00040   0.00048   0.00231   0.00279   2.13350
    A3        1.85406  -0.00082  -0.00051  -0.00503  -0.00554   1.84853
    A4        2.22581  -0.00076  -0.00034  -0.00373  -0.00407   2.22174
    A5        1.81892   0.00091   0.00044   0.00350   0.00394   1.82286
    A6        2.23846  -0.00015  -0.00011   0.00023   0.00013   2.23859
    A7        2.23796   0.00054  -0.00002   0.00352   0.00350   2.24146
    A8        1.95208   0.00013   0.00013   0.00113   0.00125   1.95333
    A9        2.09314  -0.00068  -0.00011  -0.00465  -0.00475   2.08839
   A10        1.82428  -0.00151  -0.00052  -0.00530  -0.00582   1.81846
   A11        1.97544   0.00130   0.00046   0.00570   0.00617   1.98161
   A12        2.23078  -0.00070  -0.00018  -0.00324  -0.00343   2.22735
   A13        2.07697  -0.00059  -0.00028  -0.00246  -0.00274   2.07423
    D1        0.00000   0.00000   0.00000   0.00000   0.00000   0.00000
    D2        3.14159   0.00000   0.00000   0.00000   0.00000   3.14159
    D3        3.14159   0.00000   0.00000   0.00000   0.00000   3.14159
    D4        0.00000   0.00000   0.00000   0.00000   0.00000   0.00000
    D5        3.14159   0.00000   0.00000   0.00000   0.00000   3.14159
    D6        0.00000   0.00000   0.00000   0.00000   0.00000   0.00000
    D7        0.00000   0.00000   0.00000   0.00000   0.00000   0.00000
    D8        3.14159   0.00000   0.00000   0.00000   0.00000   3.14159
    D9        3.14159   0.00000   0.00000   0.00000   0.00000   3.14159
   D10        0.00000   0.00000   0.00000   0.00000   0.00000   0.00000
   D11        0.00000   0.00000   0.00000   0.00000   0.00000   0.00000
   D12        3.14159   0.00000   0.00000   0.00000   0.00000   3.14159
   D13        0.00000   0.00000   0.00000   0.00000   0.00000   0.00000
   D14        3.14159   0.00000   0.00000   0.00000   0.00000   3.14159
   D15        0.00000   0.00000   0.00000   0.00000   0.00000   0.00000
   D16        3.14159   0.00000   0.00000   0.00000   0.00000   3.14159
         Item               Value     Threshold  Converged?
 Maximum Force            0.004331     0.000450     NO 
 RMS     Force            0.001059     0.000300     NO 
 Maximum Displacement     0.004641     0.001800     NO 
 RMS     Displacement     0.001894     0.001200     NO 
 Predicted change in Energy=-5.610289D-05
 GradGradGradGradGradGradGradGradGradGradGradGradGradGradGradGradGradGrad

                          Input orientation:                          
 ---------------------------------------------------------------------
 Center     Atomic     Atomic              Coordinates (Angstroms)
 Number     Number      Type              X           Y           Z
 ---------------------------------------------------------------------
    1          1             0        2.105743    0.729022    0.000000
    2          6             0        1.103237    0.306143    0.000000
    3          1             0        1.259644   -1.897632    0.000000
    4          6             0        0.656242   -0.993820    0.000000
    5          1             0       -1.486040   -1.680111    0.000000
    6          6             0       -0.743593   -0.882821    0.000000
    7          7             0       -1.139260    0.380995    0.000000
    8          1             0       -0.052778    2.094226    0.000000
    9          7             0       -0.004355    1.078480    0.000000
 ---------------------------------------------------------------------
                    Distance matrix (angstroms):
                    1          2          3          4          5
     1  H    0.000000
     2  C    1.088046   0.000000
     3  H    2.759565   2.209318   0.000000
     4  C    2.251496   1.374666   1.086725   0.000000
     5  H    4.324907   3.263366   2.754286   2.249526   0.000000
     6  C    3.273646   2.196456   2.245618   1.404230   1.089449
     7  N    3.263613   2.243747   3.308608   2.261404   2.090076
     8  H    2.554015   2.129228   4.202069   3.168396   4.037309
     9  N    2.138839   1.350283   3.233409   2.175043   3.131328
                    6          7          8          9
     6  C    0.000000
     7  N    1.324305   0.000000
     8  H    3.056147   2.028695   0.000000
     9  N    2.095990   1.332102   1.016900   0.000000
 Stoichiometry    C3H4N2
 Framework group  CS[SG(C3H4N2)]
 Deg. of freedom    15
 Full point group                 CS
 Largest Abelian subgroup         CS      NOp   2
 Largest concise Abelian subgroup C1      NOp   1
                         Standard orientation:                         
 ---------------------------------------------------------------------
 Center     Atomic     Atomic              Coordinates (Angstroms)
 Number     Number      Type              X           Y           Z
 ---------------------------------------------------------------------
    1          1             0        2.109433    0.723955    0.000000
    2          6             0        1.106130    0.302972    0.000000
    3          1             0        1.258367   -1.901095    0.000000
    4          6             0        0.656677   -0.996142    0.000000
    5          1             0       -1.486900   -1.678381    0.000000
    6          6             0       -0.742947   -0.882496    0.000000
    7          7             0       -1.136223    0.382066    0.000000
    8          1             0       -0.046501    2.093239    0.000000
    9          7             0        0.000000    1.077403    0.000000
 ---------------------------------------------------------------------
 Rotational constants (GHZ):      9.7485802      9.5265055      4.8181318
 Standard basis: 6-311G(d,p) (5D, 7F)
 There are    85 symmetry adapted basis functions of A'  symmetry.
 There are    29 symmetry adapted basis functions of A"  symmetry.
 Integral buffers will be    131072 words long.
 Raffenetti 2 integral format.
 Two-electron integral symmetry is turned on.
   114 basis functions,   192 primitive gaussians,   119 cartesian basis functions
    18 alpha electrons       18 beta electrons
       nuclear repulsion energy       163.7897734486 Hartrees.
 NAtoms=    9 NActive=    9 NUniq=    9 SFac= 7.50D-01 NAtFMM=   80 NAOKFM=F Big=F
 One-electron integrals computed using PRISM.
 NBasis=   114 RedAO= T  NBF=    85    29
 NBsUse=   114 1.00D-06 NBFU=    85    29
 Initial guess read from the read-write file:
 Initial guess orbital symmetries:
       Occupied  (A') (A') (A') (A') (A') (A') (A') (A') (A') (A')
                 (A') (A") (A') (A') (A') (A') (A") (A")
       Virtual   (A") (A') (A") (A') (A') (A') (A') (A') (A') (A')
                 (A') (A') (A') (A") (A') (A') (A") (A') (A") (A')
                 (A') (A") (A') (A') (A') (A') (A") (A') (A') (A')
                 (A') (A') (A") (A') (A") (A') (A") (A') (A") (A')
                 (A") (A') (A') (A") (A') (A') (A') (A') (A") (A")
                 (A') (A') (A') (A") (A") (A') (A') (A") (A') (A')
                 (A') (A") (A') (A") (A') (A') (A') (A") (A') (A")
                 (A') (A') (A') (A") (A') (A") (A') (A') (A') (A')
                 (A') (A') (A") (A') (A") (A') (A') (A') (A') (A')
                 (A') (A') (A') (A') (A') (A')
 Requested convergence on RMS density matrix=1.00D-08 within 128 cycles.
 Requested convergence on MAX density matrix=1.00D-06.
 Requested convergence on             energy=1.00D-06.
 No special actions if energy rises.
 SCF Done:  E(RS-VWN) =  -225.024276805     A.U. after    9 cycles
             Convg  =    0.8109D-08             -V/T =  2.0078
             S**2   =   0.0000
 Calling FoFCou, ICntrl=  2527 FMM=F ISym2X=1 I1Cent= 0 ISCF1= 0.
 ***** Axes restored to original set *****
 -------------------------------------------------------------------
 Center     Atomic                   Forces (Hartrees/Bohr)
 Number     Number              X              Y              Z
 -------------------------------------------------------------------
    1          1          -0.000500027   -0.000132037    0.000000000
    2          6           0.000331079    0.000981219    0.000000000
    3          1          -0.000076449    0.000300957    0.000000000
    4          6          -0.001473902   -0.000597359    0.000000000
    5          1           0.000063564    0.000501455    0.000000000
    6          6           0.001351119   -0.002575614    0.000000000
    7          7           0.000495048    0.001708195    0.000000000
    8          1           0.000152624   -0.000439907    0.000000000
    9          7          -0.000343055    0.000253091    0.000000000
 -------------------------------------------------------------------
 Cartesian Forces:  Max     0.002575614 RMS     0.000775597

 GradGradGradGradGradGradGradGradGradGradGradGradGradGradGradGradGradGrad
 Berny optimization.
 Internal  Forces:  Max     0.001587103 RMS     0.000426478
 Search for a local minimum.
 Step number   3 out of a maximum of  48
 All quantities printed in internal units (Hartrees-Bohrs-Radians)
 Update second derivatives using D2CorX and points  1  2  3
 Trust test= 1.22D+00 RLast= 1.93D-02 DXMaxT set to 3.00D-01
     Eigenvalues ---    0.02138   0.02275   0.02343   0.02397   0.02533
     Eigenvalues ---    0.02553   0.14625   0.16000   0.16001   0.16026
     Eigenvalues ---    0.21081   0.26642   0.32299   0.37160   0.37336
     Eigenvalues ---    0.39275   0.46927   0.49771   0.52098   0.57613
     Eigenvalues ---    0.586101000.000001000.000001000.000001000.00000
     Eigenvalues --- 1000.000001000.000001000.000001000.000001000.00000
     Eigenvalues --- 1000.000001000.000001000.000001000.000001000.00000
     Eigenvalues --- 1000.000001000.000001000.00000
 RFO step:  Lambda=-1.59398600D-05.
 Quartic linear search produced a step of  0.26185.
 Iteration  1 RMS(Cart)=  0.00113260 RMS(Int)=  0.00000150
 Iteration  2 RMS(Cart)=  0.00000152 RMS(Int)=  0.00000053
 Iteration  3 RMS(Cart)=  0.00000000 RMS(Int)=  0.00000053
 Variable       Old X    -DE/DX   Delta X   Delta X   Delta X     New X
                                 (Linear)    (Quad)   (Total)
    R1        2.05611  -0.00051   0.00016  -0.00134  -0.00118   2.05492
    R2        2.59774   0.00084   0.00059   0.00189   0.00248   2.60023
    R3        2.55167  -0.00045  -0.00002  -0.00092  -0.00095   2.55072
    R4        2.05361  -0.00029   0.00033  -0.00071  -0.00039   2.05322
    R5        2.65361  -0.00125  -0.00240  -0.00235  -0.00475   2.64886
    R6        2.05876  -0.00041   0.00019  -0.00101  -0.00082   2.05794
    R7        2.50257   0.00159   0.00216   0.00247   0.00463   2.50720
    R8        2.51731  -0.00065  -0.00049  -0.00108  -0.00157   2.51573
    R9        1.92166  -0.00045   0.00051  -0.00081  -0.00030   1.92136
    A1        2.30116  -0.00001   0.00072   0.00005   0.00077   2.30193
    A2        2.13350  -0.00018   0.00073  -0.00122  -0.00049   2.13301
    A3        1.84853   0.00019  -0.00145   0.00117  -0.00028   1.84825
    A4        2.22174  -0.00019  -0.00106  -0.00091  -0.00197   2.21977
    A5        1.82286   0.00014   0.00103   0.00046   0.00150   1.82435
    A6        2.23859   0.00005   0.00003   0.00044   0.00048   2.23906
    A7        2.24146   0.00051   0.00092   0.00276   0.00368   2.24514
    A8        1.95333  -0.00045   0.00033  -0.00206  -0.00173   1.95160
    A9        2.08839  -0.00007  -0.00124  -0.00071  -0.00195   2.08644
   A10        1.81846   0.00031  -0.00152   0.00259   0.00106   1.81952
   A11        1.98161  -0.00019   0.00162  -0.00217  -0.00055   1.98106
   A12        2.22735  -0.00002  -0.00090   0.00025  -0.00065   2.22670
   A13        2.07423   0.00021  -0.00072   0.00192   0.00120   2.07543
    D1        0.00000   0.00000   0.00000   0.00000   0.00000   0.00000
    D2        3.14159   0.00000   0.00000   0.00000   0.00000   3.14159
    D3        3.14159   0.00000   0.00000   0.00000   0.00000   3.14159
    D4        0.00000   0.00000   0.00000   0.00000   0.00000   0.00000
    D5        3.14159   0.00000   0.00000   0.00000   0.00000   3.14159
    D6        0.00000   0.00000   0.00000   0.00000   0.00000   0.00000
    D7        0.00000   0.00000   0.00000   0.00000   0.00000   0.00000
    D8        3.14159   0.00000   0.00000   0.00000   0.00000   3.14159
    D9        3.14159   0.00000   0.00000   0.00000   0.00000   3.14159
   D10        0.00000   0.00000   0.00000   0.00000   0.00000   0.00000
   D11        0.00000   0.00000   0.00000   0.00000   0.00000   0.00000
   D12        3.14159   0.00000   0.00000   0.00000   0.00000   3.14159
   D13        0.00000   0.00000   0.00000   0.00000   0.00000   0.00000
   D14        3.14159   0.00000   0.00000   0.00000   0.00000   3.14159
   D15        0.00000   0.00000   0.00000   0.00000   0.00000   0.00000
   D16        3.14159   0.00000   0.00000   0.00000   0.00000   3.14159
         Item               Value     Threshold  Converged?
 Maximum Force            0.001587     0.000450     NO 
 RMS     Force            0.000426     0.000300     NO 
 Maximum Displacement     0.004218     0.001800     NO 
 RMS     Displacement     0.001132     0.001200     YES
 Predicted change in Energy=-1.110526D-05
 GradGradGradGradGradGradGradGradGradGradGradGradGradGradGradGradGradGrad

                          Input orientation:                          
 ---------------------------------------------------------------------
 Center     Atomic     Atomic              Coordinates (Angstroms)
 Number     Number      Type              X           Y           Z
 ---------------------------------------------------------------------
    1          1             0        2.104683    0.729646    0.000000
    2          6             0        1.102902    0.306663    0.000000
    3          1             0        1.259616   -1.897061    0.000000
    4          6             0        0.654930   -0.994354    0.000000
    5          1             0       -1.486741   -1.680088    0.000000
    6          6             0       -0.742516   -0.885053    0.000000
    7          7             0       -1.138083    0.381362    0.000000
    8          1             0       -0.051779    2.094495    0.000000
    9          7             0       -0.004170    1.078871    0.000000
 ---------------------------------------------------------------------
                    Distance matrix (angstroms):
                    1          2          3          4          5
     1  H    0.000000
     2  C    1.087419   0.000000
     3  H    2.759298   2.209288   0.000000
     4  C    2.252545   1.375980   1.086520   0.000000
     5  H    4.324944   3.263959   2.754914   2.248774   0.000000
     6  C    3.273194   2.196760   2.243366   1.401714   1.089014
     7  N    3.261415   2.242229   3.307592   2.259975   2.090727
     8  H    2.552086   2.128294   4.201461   3.168663   4.038143
     9  N    2.137573   1.349783   3.233160   2.175471   3.132072
                    6          7          8          9
     6  C    0.000000
     7  N    1.326756   0.000000
     8  H    3.058566   2.028517   0.000000
     9  N    2.098131   1.331269   1.016740   0.000000
 Stoichiometry    C3H4N2
 Framework group  CS[SG(C3H4N2)]
 Deg. of freedom    15
 Full point group                 CS
 Largest Abelian subgroup         CS      NOp   2
 Largest concise Abelian subgroup C1      NOp   1
                         Standard orientation:                         
 ---------------------------------------------------------------------
 Center     Atomic     Atomic              Coordinates (Angstroms)
 Number     Number      Type              X           Y           Z
 ---------------------------------------------------------------------
    1          1             0        2.108201    0.724841    0.000000
    2          6             0        1.105637    0.303718    0.000000
    3          1             0        1.258260   -1.900292    0.000000
    4          6             0        0.655251   -0.996465    0.000000
    5          1             0       -1.487689   -1.678223    0.000000
    6          6             0       -0.741990   -0.884571    0.000000
    7          7             0       -1.135205    0.382576    0.000000
    8          1             0       -0.045724    2.093691    0.000000
    9          7             0        0.000000    1.077980    0.000000
 ---------------------------------------------------------------------
 Rotational constants (GHZ):      9.7350842      9.5409480      4.8185192
 Standard basis: 6-311G(d,p) (5D, 7F)
 There are    85 symmetry adapted basis functions of A'  symmetry.
 There are    29 symmetry adapted basis functions of A"  symmetry.
 Integral buffers will be    131072 words long.
 Raffenetti 2 integral format.
 Two-electron integral symmetry is turned on.
   114 basis functions,   192 primitive gaussians,   119 cartesian basis functions
    18 alpha electrons       18 beta electrons
       nuclear repulsion energy       163.7936605022 Hartrees.
 NAtoms=    9 NActive=    9 NUniq=    9 SFac= 7.50D-01 NAtFMM=   80 NAOKFM=F Big=F
 One-electron integrals computed using PRISM.
 NBasis=   114 RedAO= T  NBF=    85    29
 NBsUse=   114 1.00D-06 NBFU=    85    29
 Initial guess read from the read-write file:
 Initial guess orbital symmetries:
       Occupied  (A') (A') (A') (A') (A') (A') (A') (A') (A') (A')
                 (A') (A") (A') (A') (A') (A') (A") (A")
       Virtual   (A") (A') (A") (A') (A') (A') (A') (A') (A') (A')
                 (A') (A') (A') (A") (A') (A') (A") (A') (A") (A')
                 (A') (A") (A') (A') (A') (A') (A") (A') (A') (A')
                 (A') (A') (A") (A') (A") (A') (A") (A') (A") (A')
                 (A") (A') (A') (A") (A') (A') (A') (A') (A") (A")
                 (A') (A') (A') (A") (A") (A') (A') (A") (A') (A')
                 (A') (A") (A') (A") (A') (A') (A') (A") (A') (A")
                 (A') (A') (A') (A") (A') (A") (A') (A') (A') (A')
                 (A') (A') (A") (A') (A") (A') (A') (A') (A') (A')
                 (A') (A') (A') (A') (A') (A')
 Requested convergence on RMS density matrix=1.00D-08 within 128 cycles.
 Requested convergence on MAX density matrix=1.00D-06.
 Requested convergence on             energy=1.00D-06.
 No special actions if energy rises.
 SCF Done:  E(RS-VWN) =  -225.024286276     A.U. after    9 cycles
             Convg  =    0.2428D-08             -V/T =  2.0078
             S**2   =   0.0000
 Calling FoFCou, ICntrl=  2527 FMM=F ISym2X=1 I1Cent= 0 ISCF1= 0.
 ***** Axes restored to original set *****
 -------------------------------------------------------------------
 Center     Atomic                   Forces (Hartrees/Bohr)
 Number     Number              X              Y              Z
 -------------------------------------------------------------------
    1          1          -0.000062952   -0.000083042    0.000000000
    2          6           0.000078578    0.000043824    0.000000000
    3          1           0.000006290    0.000138396    0.000000000
    4          6           0.000428497   -0.000013455    0.000000000
    5          1           0.000013760    0.000239975    0.000000000
    6          6          -0.000218804    0.000297633    0.000000000
    7          7          -0.000075314    0.000093808    0.000000000
    8          1           0.000020618   -0.000280292    0.000000000
    9          7          -0.000190674   -0.000436847    0.000000000
 -------------------------------------------------------------------
 Cartesian Forces:  Max     0.000436847 RMS     0.000165197

 GradGradGradGradGradGradGradGradGradGradGradGradGradGradGradGradGradGrad
 Berny optimization.
 Internal  Forces:  Max     0.000365480 RMS     0.000159409
 Search for a local minimum.
 Step number   4 out of a maximum of  48
 All quantities printed in internal units (Hartrees-Bohrs-Radians)
 Update second derivatives using D2CorX and points  1  2  3  4
 Trust test= 8.53D-01 RLast= 9.32D-03 DXMaxT set to 3.00D-01
     Eigenvalues ---    0.02137   0.02275   0.02344   0.02397   0.02533
     Eigenvalues ---    0.02553   0.12801   0.16000   0.16003   0.16060
     Eigenvalues ---    0.21553   0.25791   0.37029   0.37283   0.37490
     Eigenvalues ---    0.40963   0.47215   0.49013   0.50641   0.57088
     Eigenvalues ---    0.604081000.000001000.000001000.000001000.00000
     Eigenvalues --- 1000.000001000.000001000.000001000.000001000.00000
     Eigenvalues --- 1000.000001000.000001000.000001000.000001000.00000
     Eigenvalues --- 1000.000001000.000001000.00000
 RFO step:  Lambda=-1.94214706D-06.
 Quartic linear search produced a step of -0.12598.
 Iteration  1 RMS(Cart)=  0.00062846 RMS(Int)=  0.00000018
 Iteration  2 RMS(Cart)=  0.00000018 RMS(Int)=  0.00000006
 Variable       Old X    -DE/DX   Delta X   Delta X   Delta X     New X
                                 (Linear)    (Quad)   (Total)
    R1        2.05492  -0.00009   0.00015  -0.00042  -0.00027   2.05465
    R2        2.60023  -0.00032  -0.00031  -0.00004  -0.00035   2.59988
    R3        2.55072  -0.00008   0.00012  -0.00031  -0.00019   2.55053
    R4        2.05322  -0.00011   0.00005  -0.00033  -0.00028   2.05295
    R5        2.64886   0.00036   0.00060   0.00009   0.00069   2.64954
    R6        2.05794  -0.00018   0.00010  -0.00057  -0.00047   2.05747
    R7        2.50720  -0.00028  -0.00058   0.00038  -0.00020   2.50700
    R8        2.51573  -0.00030   0.00020  -0.00075  -0.00055   2.51518
    R9        1.92136  -0.00028   0.00004  -0.00056  -0.00052   1.92084
    A1        2.30193   0.00002  -0.00010   0.00008  -0.00002   2.30191
    A2        2.13301   0.00010   0.00006   0.00029   0.00035   2.13336
    A3        1.84825  -0.00011   0.00004  -0.00037  -0.00033   1.84792
    A4        2.21977  -0.00003   0.00025  -0.00064  -0.00039   2.21938
    A5        1.82435  -0.00014  -0.00019  -0.00018  -0.00037   1.82398
    A6        2.23906   0.00017  -0.00006   0.00082   0.00076   2.23982
    A7        2.24514   0.00007  -0.00046   0.00110   0.00064   2.24578
    A8        1.95160   0.00015   0.00022   0.00031   0.00053   1.95213
    A9        2.08644  -0.00022   0.00025  -0.00141  -0.00116   2.08528
   A10        1.81952  -0.00027  -0.00013  -0.00075  -0.00089   1.81863
   A11        1.98106   0.00037   0.00007   0.00099   0.00106   1.98212
   A12        2.22670  -0.00018   0.00008  -0.00065  -0.00056   2.22614
   A13        2.07543  -0.00019  -0.00015  -0.00034  -0.00049   2.07493
    D1        0.00000   0.00000   0.00000   0.00000   0.00000   0.00000
    D2        3.14159   0.00000   0.00000   0.00000   0.00000   3.14159
    D3        3.14159   0.00000   0.00000   0.00000   0.00000   3.14159
    D4        0.00000   0.00000   0.00000   0.00000   0.00000   0.00000
    D5        3.14159   0.00000   0.00000   0.00000   0.00000   3.14159
    D6        0.00000   0.00000   0.00000   0.00000   0.00000   0.00000
    D7        0.00000   0.00000   0.00000   0.00000   0.00000   0.00000
    D8        3.14159   0.00000   0.00000   0.00000   0.00000   3.14159
    D9        3.14159   0.00000   0.00000   0.00000   0.00000   3.14159
   D10        0.00000   0.00000   0.00000   0.00000   0.00000   0.00000
   D11        0.00000   0.00000   0.00000   0.00000   0.00000   0.00000
   D12        3.14159   0.00000   0.00000   0.00000   0.00000   3.14159
   D13        0.00000   0.00000   0.00000   0.00000   0.00000   0.00000
   D14        3.14159   0.00000   0.00000   0.00000   0.00000   3.14159
   D15        0.00000   0.00000   0.00000   0.00000   0.00000   0.00000
   D16        3.14159   0.00000   0.00000   0.00000   0.00000   3.14159
         Item               Value     Threshold  Converged?
 Maximum Force            0.000365     0.000450     YES
 RMS     Force            0.000159     0.000300     YES
 Maximum Displacement     0.002105     0.001800     NO 
 RMS     Displacement     0.000628     0.001200     YES
 Predicted change in Energy=-1.172099D-06
 GradGradGradGradGradGradGradGradGradGradGradGradGradGradGradGradGradGrad

                          Input orientation:                          
 ---------------------------------------------------------------------
 Center     Atomic     Atomic              Coordinates (Angstroms)
 Number     Number      Type              X           Y           Z
 ---------------------------------------------------------------------
    1          1             0        2.104587    0.729602    0.000000
    2          6             0        1.102997    0.306535    0.000000
    3          1             0        1.260381   -1.896632    0.000000
    4          6             0        0.655286   -0.994376    0.000000
    5          1             0       -1.487228   -1.678974    0.000000
    6          6             0       -0.742498   -0.884752    0.000000
    7          7             0       -1.138431    0.381435    0.000000
    8          1             0       -0.051886    2.093498    0.000000
    9          7             0       -0.004367    1.078145    0.000000
 ---------------------------------------------------------------------
                    Distance matrix (angstroms):
                    1          2          3          4          5
     1  H    0.000000
     2  C    1.087276   0.000000
     3  H    2.758584   2.208781   0.000000
     4  C    2.252237   1.375795   1.086373   0.000000
     5  H    4.324624   3.263665   2.756217   2.249232   0.000000
     6  C    3.272924   2.196591   2.243975   1.402076   1.088767
     7  N    3.261654   2.242679   3.308155   2.260593   2.089724
     8  H    2.551586   2.127673   4.200379   3.167816   4.036305
     9  N    2.137562   1.349680   3.232473   2.174968   3.130588
                    6          7          8          9
     6  C    0.000000
     7  N    1.326647   0.000000
     8  H    3.057273   2.027742   0.000000
     9  N    2.097093   1.330978   1.016465   0.000000
 Stoichiometry    C3H4N2
 Framework group  CS[SG(C3H4N2)]
 Deg. of freedom    15
 Full point group                 CS
 Largest Abelian subgroup         CS      NOp   2
 Largest concise Abelian subgroup C1      NOp   1
                         Standard orientation:                         
 ---------------------------------------------------------------------
 Center     Atomic     Atomic              Coordinates (Angstroms)
 Number     Number      Type              X           Y           Z
 ---------------------------------------------------------------------
    1          1             0        2.108248    0.724546    0.000000
    2          6             0        1.105806    0.303500    0.000000
    3          1             0        1.258748   -1.899979    0.000000
    4          6             0        0.655473   -0.996505    0.000000
    5          1             0       -1.488417   -1.676782    0.000000
    6          6             0       -0.742087   -0.884063    0.000000
    7          7             0       -1.135466    0.382920    0.000000
    8          1             0       -0.045471    2.092789    0.000000
    9          7             0        0.000000    1.077341    0.000000
 ---------------------------------------------------------------------
 Rotational constants (GHZ):      9.7423186      9.5368288      4.8192393
 Standard basis: 6-311G(d,p) (5D, 7F)
 There are    85 symmetry adapted basis functions of A'  symmetry.
 There are    29 symmetry adapted basis functions of A"  symmetry.
 Integral buffers will be    131072 words long.
 Raffenetti 2 integral format.
 Two-electron integral symmetry is turned on.
   114 basis functions,   192 primitive gaussians,   119 cartesian basis functions
    18 alpha electrons       18 beta electrons
       nuclear repulsion energy       163.8082469659 Hartrees.
 NAtoms=    9 NActive=    9 NUniq=    9 SFac= 7.50D-01 NAtFMM=   80 NAOKFM=F Big=F
 One-electron integrals computed using PRISM.
 NBasis=   114 RedAO= T  NBF=    85    29
 NBsUse=   114 1.00D-06 NBFU=    85    29
 Initial guess read from the read-write file:
 Initial guess orbital symmetries:
       Occupied  (A') (A') (A') (A') (A') (A') (A') (A') (A') (A')
                 (A') (A") (A') (A') (A') (A') (A") (A")
       Virtual   (A") (A') (A") (A') (A') (A') (A') (A') (A') (A')
                 (A') (A') (A') (A") (A') (A') (A") (A') (A") (A')
                 (A') (A") (A') (A') (A') (A') (A") (A') (A') (A')
                 (A') (A') (A") (A') (A") (A') (A") (A') (A") (A')
                 (A") (A') (A') (A") (A') (A') (A') (A') (A") (A")
                 (A') (A') (A') (A") (A") (A') (A') (A") (A') (A')
                 (A') (A") (A') (A") (A') (A') (A') (A") (A') (A")
                 (A') (A') (A') (A") (A') (A") (A') (A') (A') (A')
                 (A') (A') (A') (A") (A") (A') (A') (A') (A') (A')
                 (A') (A') (A') (A') (A') (A')
 Requested convergence on RMS density matrix=1.00D-08 within 128 cycles.
 Requested convergence on MAX density matrix=1.00D-06.
 Requested convergence on             energy=1.00D-06.
 No special actions if energy rises.
 SCF Done:  E(RS-VWN) =  -225.024287451     A.U. after    8 cycles
             Convg  =    0.4219D-08             -V/T =  2.0078
             S**2   =   0.0000
 Calling FoFCou, ICntrl=  2527 FMM=F ISym2X=1 I1Cent= 0 ISCF1= 0.
 ***** Axes restored to original set *****
 -------------------------------------------------------------------
 Center     Atomic                   Forces (Hartrees/Bohr)
 Number     Number              X              Y              Z
 -------------------------------------------------------------------
    1          1           0.000003864   -0.000017792    0.000000000
    2          6          -0.000062267    0.000004346    0.000000000
    3          1          -0.000004446    0.000022327    0.000000000
    4          6           0.000061440   -0.000013777    0.000000000
    5          1          -0.000023368    0.000028027    0.000000000
    6          6          -0.000143999    0.000008290    0.000000000
    7          7           0.000160921   -0.000104180    0.000000000
    8          1           0.000037639   -0.000017948    0.000000000
    9          7          -0.000029784    0.000090705    0.000000000
 -------------------------------------------------------------------
 Cartesian Forces:  Max     0.000160921 RMS     0.000053903

 GradGradGradGradGradGradGradGradGradGradGradGradGradGradGradGradGradGrad
 Berny optimization.
 Internal  Forces:  Max     0.000102350 RMS     0.000032354
 Search for a local minimum.
 Step number   5 out of a maximum of  48
 All quantities printed in internal units (Hartrees-Bohrs-Radians)
 Update second derivatives using D2CorX and points  1  2  3  4  5

 Trust test= 1.00D+00 RLast= 2.68D-03 DXMaxT set to 3.00D-01
     Eigenvalues ---    0.02137   0.02274   0.02343   0.02397   0.02533
     Eigenvalues ---    0.02553   0.12293   0.15993   0.16000   0.16070
     Eigenvalues ---    0.21542   0.30667   0.37038   0.37284   0.37461
     Eigenvalues ---    0.40238   0.46775   0.49118   0.52263   0.58013
     Eigenvalues ---    0.593911000.000001000.000001000.000001000.00000
     Eigenvalues --- 1000.000001000.000001000.000001000.000001000.00000
     Eigenvalues --- 1000.000001000.000001000.000001000.000001000.00000
     Eigenvalues --- 1000.000001000.000001000.00000
 RFO step:  Lambda=-1.21803577D-07.
 Quartic linear search produced a step of -0.03155.
 Iteration  1 RMS(Cart)=  0.00013175 RMS(Int)=  0.00000001
 Iteration  2 RMS(Cart)=  0.00000001 RMS(Int)=  0.00000000
 Variable       Old X    -DE/DX   Delta X   Delta X   Delta X     New X
                                 (Linear)    (Quad)   (Total)
    R1        2.05465   0.00000   0.00001  -0.00003  -0.00002   2.05463
    R2        2.59988   0.00001   0.00001  -0.00005  -0.00004   2.59984
    R3        2.55053  -0.00004   0.00001  -0.00008  -0.00007   2.55045
    R4        2.05295  -0.00002   0.00001  -0.00008  -0.00007   2.05287
    R5        2.64954   0.00006  -0.00002   0.00023   0.00021   2.64975
    R6        2.05747   0.00000   0.00001  -0.00005  -0.00004   2.05743
    R7        2.50700  -0.00008   0.00001  -0.00019  -0.00018   2.50682
    R8        2.51518  -0.00003   0.00002  -0.00008  -0.00006   2.51512
    R9        1.92084  -0.00002   0.00002  -0.00010  -0.00008   1.92076
    A1        2.30191  -0.00002   0.00000  -0.00011  -0.00011   2.30181
    A2        2.13336  -0.00001  -0.00001   0.00001   0.00000   2.13336
    A3        1.84792   0.00003   0.00001   0.00009   0.00011   1.84802
    A4        2.21938  -0.00002   0.00001  -0.00016  -0.00014   2.21924
    A5        1.82398  -0.00001   0.00001  -0.00002  -0.00001   1.82398
    A6        2.23982   0.00002  -0.00002   0.00017   0.00015   2.23997
    A7        2.24578   0.00006  -0.00002   0.00028   0.00026   2.24604
    A8        1.95213  -0.00007  -0.00002  -0.00019  -0.00020   1.95192
    A9        2.08528   0.00001   0.00004  -0.00010  -0.00006   2.08522
   A10        1.81863   0.00010   0.00003   0.00025   0.00028   1.81892
   A11        1.98212  -0.00006  -0.00003  -0.00014  -0.00018   1.98194
   A12        2.22614   0.00001   0.00002  -0.00006  -0.00004   2.22610
   A13        2.07493   0.00005   0.00002   0.00020   0.00021   2.07515
    D1        0.00000   0.00000   0.00000   0.00000   0.00000   0.00000
    D2        3.14159   0.00000   0.00000   0.00000   0.00000   3.14159
    D3        3.14159   0.00000   0.00000   0.00000   0.00000   3.14159
    D4        0.00000   0.00000   0.00000   0.00000   0.00000   0.00000
    D5        3.14159   0.00000   0.00000   0.00000   0.00000   3.14159
    D6        0.00000   0.00000   0.00000   0.00000   0.00000   0.00000
    D7        0.00000   0.00000   0.00000   0.00000   0.00000   0.00000
    D8        3.14159   0.00000   0.00000   0.00000   0.00000   3.14159
    D9        3.14159   0.00000   0.00000   0.00000   0.00000   3.14159
   D10        0.00000   0.00000   0.00000   0.00000   0.00000   0.00000
   D11        0.00000   0.00000   0.00000   0.00000   0.00000   0.00000
   D12        3.14159   0.00000   0.00000   0.00000   0.00000   3.14159
   D13        0.00000   0.00000   0.00000   0.00000   0.00000   0.00000
   D14        3.14159   0.00000   0.00000   0.00000   0.00000   3.14159
   D15        0.00000   0.00000   0.00000   0.00000   0.00000   0.00000
   D16        3.14159   0.00000   0.00000   0.00000   0.00000   3.14159
         Item               Value     Threshold  Converged?
 Maximum Force            0.000102     0.000450     YES
 RMS     Force            0.000032     0.000300     YES
 Maximum Displacement     0.000437     0.001800     YES
 RMS     Displacement     0.000132     0.001200     YES
 Predicted change in Energy=-6.201594D-08
 Optimization completed.
    -- Stationary point found.
                           ----------------------------
                           !   Optimized Parameters   !
                           ! (Angstroms and Degrees)  !
 --------------------------                            --------------------------
 ! Name  Definition              Value          Derivative Info.                !
 --------------------------------------------------------------------------------
 ! R1    R(1,2)                  1.0873         -DE/DX =    0.0                 !
 ! R2    R(2,4)                  1.3758         -DE/DX =    0.0                 !
 ! R3    R(2,9)                  1.3497         -DE/DX =    0.0                 !
 ! R4    R(3,4)                  1.0864         -DE/DX =    0.0                 !
 ! R5    R(4,6)                  1.4021         -DE/DX =    0.0001              !
 ! R6    R(5,6)                  1.0888         -DE/DX =    0.0                 !
 ! R7    R(6,7)                  1.3266         -DE/DX =   -0.0001              !
 ! R8    R(7,9)                  1.331          -DE/DX =    0.0                 !
 ! R9    R(8,9)                  1.0165         -DE/DX =    0.0                 !
 ! A1    A(1,2,4)              131.8899         -DE/DX =    0.0                 !
 ! A2    A(1,2,9)              122.2323         -DE/DX =    0.0                 !
 ! A3    A(4,2,9)              105.8778         -DE/DX =    0.0                 !
 ! A4    A(2,4,3)              127.1614         -DE/DX =    0.0                 !
 ! A5    A(2,4,6)              104.5066         -DE/DX =    0.0                 !
 ! A6    A(3,4,6)              128.332          -DE/DX =    0.0                 !
 ! A7    A(4,6,5)              128.6737         -DE/DX =    0.0001              !
 ! A8    A(4,6,7)              111.8487         -DE/DX =   -0.0001              !
 ! A9    A(5,6,7)              119.4777         -DE/DX =    0.0                 !
 ! A10   A(6,7,9)              104.2001         -DE/DX =    0.0001              !
 ! A11   A(2,9,7)              113.5669         -DE/DX =   -0.0001              !
 ! A12   A(2,9,8)              127.5482         -DE/DX =    0.0                 !
 ! A13   A(7,9,8)              118.8849         -DE/DX =    0.0001              !
 ! D1    D(1,2,4,3)              0.0            -DE/DX =    0.0                 !
 ! D2    D(1,2,4,6)            180.0            -DE/DX =    0.0                 !
 ! D3    D(9,2,4,3)            180.0            -DE/DX =    0.0                 !
 ! D4    D(9,2,4,6)              0.0            -DE/DX =    0.0                 !
 ! D5    D(1,2,9,7)            180.0            -DE/DX =    0.0                 !
 ! D6    D(1,2,9,8)              0.0            -DE/DX =    0.0                 !
 ! D7    D(4,2,9,7)              0.0            -DE/DX =    0.0                 !
 ! D8    D(4,2,9,8)            180.0            -DE/DX =    0.0                 !
 ! D9    D(2,4,6,5)            180.0            -DE/DX =    0.0                 !
 ! D10   D(2,4,6,7)              0.0            -DE/DX =    0.0                 !
 ! D11   D(3,4,6,5)              0.0            -DE/DX =    0.0                 !
 ! D12   D(3,4,6,7)            180.0            -DE/DX =    0.0                 !
 ! D13   D(4,6,7,9)              0.0            -DE/DX =    0.0                 !
 ! D14   D(5,6,7,9)            180.0            -DE/DX =    0.0                 !
 ! D15   D(6,7,9,2)              0.0            -DE/DX =    0.0                 !
 ! D16   D(6,7,9,8)            180.0            -DE/DX =    0.0                 !
 --------------------------------------------------------------------------------
 GradGradGradGradGradGradGradGradGradGradGradGradGradGradGradGradGradGrad

                          Input orientation:                          
 ---------------------------------------------------------------------
 Center     Atomic     Atomic              Coordinates (Angstroms)
 Number     Number      Type              X           Y           Z
 ---------------------------------------------------------------------
    1          1             0        2.104587    0.729602    0.000000
    2          6             0        1.102997    0.306535    0.000000
    3          1             0        1.260381   -1.896632    0.000000
    4          6             0        0.655286   -0.994376    0.000000
    5          1             0       -1.487228   -1.678974    0.000000
    6          6             0       -0.742498   -0.884752    0.000000
    7          7             0       -1.138431    0.381435    0.000000
    8          1             0       -0.051886    2.093498    0.000000
    9          7             0       -0.004367    1.078145    0.000000
 ---------------------------------------------------------------------
                    Distance matrix (angstroms):
                    1          2          3          4          5
     1  H    0.000000
     2  C    1.087276   0.000000
     3  H    2.758584   2.208781   0.000000
     4  C    2.252237   1.375795   1.086373   0.000000
     5  H    4.324624   3.263665   2.756217   2.249232   0.000000
     6  C    3.272924   2.196591   2.243975   1.402076   1.088767
     7  N    3.261654   2.242679   3.308155   2.260593   2.089724
     8  H    2.551586   2.127673   4.200379   3.167816   4.036305
     9  N    2.137562   1.349680   3.232473   2.174968   3.130588
                    6          7          8          9
     6  C    0.000000
     7  N    1.326647   0.000000
     8  H    3.057273   2.027742   0.000000
     9  N    2.097093   1.330978   1.016465   0.000000
 Stoichiometry    C3H4N2
 Framework group  CS[SG(C3H4N2)]
 Deg. of freedom    15
 Full point group                 CS
 Largest Abelian subgroup         CS      NOp   2
 Largest concise Abelian subgroup C1      NOp   1
                         Standard orientation:                         
 ---------------------------------------------------------------------
 Center     Atomic     Atomic              Coordinates (Angstroms)
 Number     Number      Type              X           Y           Z
 ---------------------------------------------------------------------
    1          1             0        2.108248    0.724546    0.000000
    2          6             0        1.105806    0.303500    0.000000
    3          1             0        1.258748   -1.899979    0.000000
    4          6             0        0.655473   -0.996505    0.000000
    5          1             0       -1.488417   -1.676782    0.000000
    6          6             0       -0.742087   -0.884063    0.000000
    7          7             0       -1.135466    0.382920    0.000000
    8          1             0       -0.045471    2.092789    0.000000
    9          7             0        0.000000    1.077341    0.000000
 ---------------------------------------------------------------------
 Rotational constants (GHZ):      9.7423186      9.5368288      4.8192393

 **********************************************************************

            Population analysis using the SCF density.

 **********************************************************************

 Orbital symmetries:
       Occupied  (A') (A') (A') (A') (A') (A') (A') (A') (A') (A')
                 (A') (A") (A') (A') (A') (A') (A") (A")
       Virtual   (A") (A') (A") (A') (A') (A') (A') (A') (A') (A')
                 (A') (A') (A') (A") (A') (A') (A") (A') (A") (A')
                 (A') (A") (A') (A') (A') (A') (A") (A') (A') (A')
                 (A') (A') (A") (A') (A") (A') (A") (A') (A") (A')
                 (A") (A') (A') (A") (A') (A') (A') (A') (A") (A")
                 (A') (A') (A') (A") (A") (A') (A') (A") (A') (A')
                 (A') (A") (A') (A") (A') (A') (A') (A") (A') (A")
                 (A') (A') (A') (A") (A') (A") (A') (A') (A') (A')
                 (A') (A') (A") (A') (A") (A') (A') (A') (A') (A')
                 (A') (A') (A') (A') (A') (A')
 The electronic state is 1-A'.
 Alpha  occ. eigenvalues --  -13.94856 -13.88289  -9.83112  -9.80848  -9.79174
 Alpha  occ. eigenvalues --   -0.98905  -0.76220  -0.72882  -0.57275  -0.56285
 Alpha  occ. eigenvalues --   -0.51209  -0.42234  -0.41991  -0.40082  -0.37341
 Alpha  occ. eigenvalues --   -0.26350  -0.25536  -0.24690
 Alpha virt. eigenvalues --   -0.03900  -0.00060   0.00639   0.04208   0.05584
 Alpha virt. eigenvalues --    0.07500   0.14120   0.15295   0.19178   0.21051
 Alpha virt. eigenvalues --    0.29135   0.32346   0.33073   0.34035   0.35167
 Alpha virt. eigenvalues --    0.37691   0.39152   0.43046   0.44563   0.52128
 Alpha virt. eigenvalues --    0.53514   0.55544   0.55960   0.56859   0.60833
 Alpha virt. eigenvalues --    0.64297   0.64433   0.65192   0.71565   0.72637
 Alpha virt. eigenvalues --    0.75973   0.84358   0.89660   0.93753   1.01409
 Alpha virt. eigenvalues --    1.05021   1.08622   1.15427   1.16012   1.25390
 Alpha virt. eigenvalues --    1.30455   1.38372   1.43085   1.48084   1.50012
 Alpha virt. eigenvalues --    1.54108   1.57198   1.61047   1.62146   1.68866
 Alpha virt. eigenvalues --    1.71758   1.78928   1.81589   1.82477   1.89116
 Alpha virt. eigenvalues --    1.89356   1.93350   2.04390   2.07603   2.13923
 Alpha virt. eigenvalues --    2.24598   2.26663   2.35929   2.41218   2.46208
 Alpha virt. eigenvalues --    2.48007   2.51382   2.52351   2.54009   2.55155
 Alpha virt. eigenvalues --    2.57909   2.59901   2.63461   2.69361   2.77160
 Alpha virt. eigenvalues --    2.83056   2.92395   3.00612   3.17917   3.22469
 Alpha virt. eigenvalues --    3.34437   3.41439   3.50745   3.50750   3.74366
 Alpha virt. eigenvalues --    3.91650   3.93019   4.04831   4.37193   4.76892
 Alpha virt. eigenvalues --    5.31249  23.57521  23.87931  24.07816  35.38633
 Alpha virt. eigenvalues --   35.43775
          Condensed to atoms (all electrons):
              1          2          3          4          5          6
     1  H    0.519730   0.399409  -0.000583  -0.033157  -0.000223   0.005374
     2  C    0.399409   5.040225  -0.045890   0.470369   0.010919  -0.107549
     3  H   -0.000583  -0.045890   0.527879   0.404310  -0.002543  -0.028643
     4  C   -0.033157   0.470369   0.404310   5.101888  -0.055136   0.517764
     5  H   -0.000223   0.010919  -0.002543  -0.055136   0.524572   0.417627
     6  C    0.005374  -0.107549  -0.028643   0.517764   0.417627   4.778449
     7  N    0.004825  -0.153092   0.007919  -0.036062  -0.031328   0.547018
[...]
   9   7    -0.05   0.03   0.00     0.16   0.07   0.00     0.07  -0.07   0.00
                    16                     17                     18
                    A'                     A'                     A'
 Frequencies --  1462.4920              1536.0399              3171.5845
 Red. masses --     3.0457                 3.7594                 1.0942
 Frc consts  --     3.8382                 5.2260                 6.4851
 IR Inten    --     4.3597                 5.0898                 0.9180
 Atom AN      X      Y      Z        X      Y      Z        X      Y      Z
   1   1    -0.04  -0.29   0.00     0.32  -0.28   0.00    -0.08  -0.03   0.00
   2   6    -0.21   0.16   0.00     0.04   0.28   0.00     0.01   0.00   0.00
   3   1    -0.17  -0.25   0.00     0.31  -0.05   0.00     0.16  -0.25   0.00
   4   6     0.14  -0.02   0.00    -0.05  -0.24   0.00    -0.01   0.02   0.00
   5   1     0.03  -0.12   0.00     0.35  -0.21   0.00     0.65   0.69   0.00
   6   6    -0.09   0.03   0.00    -0.13   0.23   0.00    -0.06  -0.06   0.00
   7   7    -0.04   0.02   0.00     0.08  -0.14   0.00     0.00   0.00   0.00
   8   1    -0.78  -0.17   0.00     0.55  -0.02   0.00     0.00   0.01   0.00
   9   7     0.25  -0.10   0.00    -0.07  -0.04   0.00     0.00   0.00   0.00
                    19                     20                     21
                    A'                     A'                     A'
 Frequencies --  3187.1607              3205.9226              3571.0685
 Red. masses --     1.0941                 1.1084                 1.0817
 Frc consts  --     6.5482                 6.7121                 8.1273
 IR Inten    --     0.1246                 0.0260                89.8698
 Atom AN      X      Y      Z        X      Y      Z        X      Y      Z
   1   1     0.78   0.32   0.00    -0.48  -0.21   0.00     0.01   0.00   0.00
   2   6    -0.07  -0.03   0.00     0.05   0.02   0.00     0.00   0.00   0.00
   3   1    -0.27   0.40   0.00    -0.45   0.68   0.00     0.00   0.00   0.00
   4   6     0.03  -0.03   0.00     0.04  -0.07   0.00     0.00   0.00   0.00
   5   1     0.16   0.16   0.00     0.14   0.14   0.00     0.00   0.00   0.00
   6   6    -0.02  -0.02   0.00    -0.02  -0.01   0.00     0.00   0.00   0.00
   7   7     0.00   0.00   0.00     0.00   0.00   0.00     0.00   0.00   0.00
   8   1     0.00  -0.01   0.00     0.00   0.01   0.00    -0.05   1.00   0.00
   9   7     0.00   0.00   0.00     0.00   0.00   0.00     0.01  -0.08   0.00

 -------------------
 - Thermochemistry -
 -------------------
 Temperature   298.150 Kelvin.  Pressure   1.00000 Atm.
 Atom  1 has atomic number  1 and mass   1.00783
 Atom  2 has atomic number  6 and mass  12.00000
 Atom  3 has atomic number  1 and mass   1.00783
 Atom  4 has atomic number  6 and mass  12.00000
 Atom  5 has atomic number  1 and mass   1.00783
 Atom  6 has atomic number  6 and mass  12.00000
 Atom  7 has atomic number  7 and mass  14.00307
 Atom  8 has atomic number  1 and mass   1.00783
 Atom  9 has atomic number  7 and mass  14.00307
 Molecular mass:    68.03745 amu.
 Principal axes and moments of inertia in atomic units:
                           1         2         3
     EIGENVALUES --   185.24761 189.23913 374.48674
           X            0.88699   0.46179   0.00000
           Y           -0.46179   0.88699   0.00000
           Z            0.00000   0.00000   1.00000
 This molecule is an asymmetric top.
 Rotational symmetry number  1.
 Rotational temperatures (Kelvin)      0.46756     0.45770     0.23129
 Rotational constants (GHZ):           9.74232     9.53683     4.81924
 Zero-point vibrational energy     183586.5 (Joules/Mol)
                                   43.87824 (Kcal/Mol)
 Warning -- explicit consideration of   1 degrees of freedom as
           vibrations may cause significant error
 Vibrational temperatures:    827.17   912.14   996.59  1039.40  1165.35
          (Kelvin)           1247.46  1298.19  1328.54  1478.16  1487.53
                             1627.66  1719.57  1805.74  1967.91  2045.73
                             2104.20  2210.02  4563.20  4585.61  4612.60
                             5137.96
 
 Zero-point correction=                           0.069924 (Hartree/Particle)
 Thermal correction to Energy=                    0.073676
 Thermal correction to Enthalpy=                  0.074620
 Thermal correction to Gibbs Free Energy=         0.043678
 Sum of electronic and zero-point Energies=           -224.954363
 Sum of electronic and thermal Energies=              -224.950611
 Sum of electronic and thermal Enthalpies=            -224.949667
 Sum of electronic and thermal Free Energies=         -224.980610
 
                     E (Thermal)             CV                S
                      KCal/Mol        Cal/Mol-Kelvin    Cal/Mol-Kelvin
 Total                   46.232             13.477             65.124
 Electronic               0.000              0.000              0.000
 Translational            0.889              2.981             38.570
 Rotational               0.889              2.981             24.088
 Vibrational             44.455              7.515              2.465
 Vibration  1             0.931              1.086              0.495
                       Q            Log10(Q)             Ln(Q)
 Total Bot       0.812234D-20        -20.090319        -46.259669
 Total V=0       0.118199D+13         12.072614         27.798221
 Vib (Bot)       0.897755D-32        -32.046842        -73.790582
 Vib (Bot)  1    0.266402D+00         -0.574462         -1.322748
 Vib (V=0)       0.130644D+01          0.116090          0.267308
 Vib (V=0)  1    0.106654D+01          0.027978          0.064422
 Electronic      0.100000D+01          0.000000          0.000000
 Translational   0.220586D+08          7.343577         16.909211
 Rotational      0.410153D+05          4.612946         10.621702
 ***** Axes restored to original set *****
 -------------------------------------------------------------------
 Center     Atomic                   Forces (Hartrees/Bohr)
 Number     Number              X              Y              Z
 -------------------------------------------------------------------
    1          1           0.000003859   -0.000017793    0.000000000
    2          6          -0.000062308    0.000004374    0.000000000
    3          1          -0.000004446    0.000022326    0.000000000
    4          6           0.000061417   -0.000013768    0.000000000
    5          1          -0.000023372    0.000028025    0.000000000
    6          6          -0.000143967    0.000008235    0.000000000
    7          7           0.000160933   -0.000104135    0.000000000
    8          1           0.000037635   -0.000017972    0.000000000
    9          7          -0.000029751    0.000090707    0.000000000
 -------------------------------------------------------------------
 Cartesian Forces:  Max     0.000160933 RMS     0.000053898

 GradGradGradGradGradGradGradGradGradGradGradGradGradGradGradGradGradGrad
 Berny optimization.
 Internal  Forces:  Max     0.000102355 RMS     0.000032355
 Search for a local minimum.
 Step number   1 out of a maximum of   2
 All quantities printed in internal units (Hartrees-Bohrs-Radians)
 Second derivative matrix not updated -- analytic derivatives used.
     Eigenvalues ---    0.00831   0.01112   0.01520   0.02579   0.05837
     Eigenvalues ---    0.06101   0.08467   0.09431   0.10123   0.11029
     Eigenvalues ---    0.21633   0.26107   0.34763   0.35368   0.35794
     Eigenvalues ---    0.36228   0.39755   0.43667   0.45412   0.48851
     Eigenvalues ---    0.569071000.000001000.000001000.000001000.00000
     Eigenvalues --- 1000.000001000.000001000.000001000.000001000.00000
     Eigenvalues --- 1000.000001000.000001000.000001000.000001000.00000
     Eigenvalues --- 1000.000001000.000001000.00000
 Angle between quadratic step and forces=  30.19 degrees.
 Linear search not attempted -- first point.
 Iteration  1 RMS(Cart)=  0.00018660 RMS(Int)=  0.00000003
 Iteration  2 RMS(Cart)=  0.00000003 RMS(Int)=  0.00000000
 Variable       Old X    -DE/DX   Delta X   Delta X   Delta X     New X
                                 (Linear)    (Quad)   (Total)
    R1        2.05465   0.00000   0.00000   0.00000   0.00000   2.05465
    R2        2.59988   0.00001   0.00000  -0.00004  -0.00004   2.59983
    R3        2.55053  -0.00004   0.00000  -0.00005  -0.00005   2.55048
    R4        2.05295  -0.00002   0.00000  -0.00005  -0.00005   2.05289
    R5        2.64954   0.00006   0.00000   0.00023   0.00023   2.64977
    R6        2.05747   0.00000   0.00000  -0.00002  -0.00002   2.05745
    R7        2.50700  -0.00008   0.00000  -0.00020  -0.00020   2.50680
    R8        2.51518  -0.00003   0.00000  -0.00011  -0.00011   2.51507
    R9        1.92084  -0.00002   0.00000  -0.00005  -0.00005   1.92079
    A1        2.30191  -0.00002   0.00000  -0.00020  -0.00020   2.30171
    A2        2.13336  -0.00001   0.00000   0.00006   0.00006   2.13342
    A3        1.84792   0.00003   0.00000   0.00014   0.00014   1.84806
    A4        2.21938  -0.00002   0.00000  -0.00026  -0.00026   2.21912
    A5        1.82398  -0.00001   0.00000  -0.00003  -0.00003   1.82395
    A6        2.23982   0.00002   0.00000   0.00029   0.00029   2.24011
    A7        2.24578   0.00006   0.00000   0.00036   0.00036   2.24613
    A8        1.95213  -0.00007   0.00000  -0.00022  -0.00022   1.95191
    A9        2.08528   0.00001   0.00000  -0.00014  -0.00014   2.08514
   A10        1.81863   0.00010   0.00000   0.00034   0.00034   1.81897
   A11        1.98212  -0.00006   0.00000  -0.00023  -0.00023   1.98189
   A12        2.22614   0.00001   0.00000  -0.00006  -0.00006   2.22608
   A13        2.07493   0.00005   0.00000   0.00029   0.00029   2.07522
    D1        0.00000   0.00000   0.00000   0.00000   0.00000   0.00000
    D2        3.14159   0.00000   0.00000   0.00000   0.00000   3.14159
    D3        3.14159   0.00000   0.00000   0.00000   0.00000   3.14159
    D4        0.00000   0.00000   0.00000   0.00000   0.00000   0.00000
    D5        3.14159   0.00000   0.00000   0.00000   0.00000   3.14159
    D6        0.00000   0.00000   0.00000   0.00000   0.00000   0.00000
    D7        0.00000   0.00000   0.00000   0.00000   0.00000   0.00000
    D8        3.14159   0.00000   0.00000   0.00000   0.00000   3.14159
    D9        3.14159   0.00000   0.00000   0.00000   0.00000   3.14159
   D10        0.00000   0.00000   0.00000   0.00000   0.00000   0.00000
   D11        0.00000   0.00000   0.00000   0.00000   0.00000   0.00000
   D12        3.14159   0.00000   0.00000   0.00000   0.00000   3.14159
   D13        0.00000   0.00000   0.00000   0.00000   0.00000   0.00000
   D14        3.14159   0.00000   0.00000   0.00000   0.00000   3.14159
   D15        0.00000   0.00000   0.00000   0.00000   0.00000   0.00000
   D16        3.14159   0.00000   0.00000   0.00000   0.00000   3.14159
         Item               Value     Threshold  Converged?
 Maximum Force            0.000102     0.000450     YES
 RMS     Force            0.000032     0.000300     YES
 Maximum Displacement     0.000641     0.001800     YES
 RMS     Displacement     0.000187     0.001200     YES
 Predicted change in Energy=-7.618166D-08
 Optimization completed.
    -- Stationary point found.
                           ----------------------------
                           !   Optimized Parameters   !
                           ! (Angstroms and Degrees)  !
 --------------------------                            --------------------------
 ! Name  Definition              Value          Derivative Info.                !
 --------------------------------------------------------------------------------
 ! R1    R(1,2)                  1.0873         -DE/DX =    0.0                 !
 ! R2    R(2,4)                  1.3758         -DE/DX =    0.0                 !
 ! R3    R(2,9)                  1.3497         -DE/DX =    0.0                 !
 ! R4    R(3,4)                  1.0864         -DE/DX =    0.0                 !
 ! R5    R(4,6)                  1.4021         -DE/DX =    0.0001              !
 ! R6    R(5,6)                  1.0888         -DE/DX =    0.0                 !
 ! R7    R(6,7)                  1.3266         -DE/DX =   -0.0001              !
 ! R8    R(7,9)                  1.331          -DE/DX =    0.0                 !
 ! R9    R(8,9)                  1.0165         -DE/DX =    0.0                 !
 ! A1    A(1,2,4)              131.8899         -DE/DX =    0.0                 !
 ! A2    A(1,2,9)              122.2323         -DE/DX =    0.0                 !
 ! A3    A(4,2,9)              105.8778         -DE/DX =    0.0                 !
 ! A4    A(2,4,3)              127.1614         -DE/DX =    0.0                 !
 ! A5    A(2,4,6)              104.5066         -DE/DX =    0.0                 !
 ! A6    A(3,4,6)              128.332          -DE/DX =    0.0                 !
 ! A7    A(4,6,5)              128.6737         -DE/DX =    0.0001              !
 ! A8    A(4,6,7)              111.8487         -DE/DX =   -0.0001              !
 ! A9    A(5,6,7)              119.4777         -DE/DX =    0.0                 !
 ! A10   A(6,7,9)              104.2001         -DE/DX =    0.0001              !
 ! A11   A(2,9,7)              113.5669         -DE/DX =   -0.0001              !
 ! A12   A(2,9,8)              127.5482         -DE/DX =    0.0                 !
 ! A13   A(7,9,8)              118.8849         -DE/DX =    0.0001              !
 ! D1    D(1,2,4,3)              0.0            -DE/DX =    0.0                 !
 ! D2    D(1,2,4,6)            180.0            -DE/DX =    0.0                 !
 ! D3    D(9,2,4,3)            180.0            -DE/DX =    0.0                 !
 ! D4    D(9,2,4,6)              0.0            -DE/DX =    0.0                 !
 ! D5    D(1,2,9,7)            180.0            -DE/DX =    0.0                 !
 ! D6    D(1,2,9,8)              0.0            -DE/DX =    0.0                 !
 ! D7    D(4,2,9,7)              0.0            -DE/DX =    0.0                 !
 ! D8    D(4,2,9,8)            180.0            -DE/DX =    0.0                 !
 ! D9    D(2,4,6,5)            180.0            -DE/DX =    0.0                 !
 ! D10   D(2,4,6,7)              0.0            -DE/DX =    0.0                 !
 ! D11   D(3,4,6,5)              0.0            -DE/DX =    0.0                 !
 ! D12   D(3,4,6,7)            180.0            -DE/DX =    0.0                 !
 ! D13   D(4,6,7,9)              0.0            -DE/DX =    0.0                 !
 ! D14   D(5,6,7,9)            180.0            -DE/DX =    0.0                 !
 ! D15   D(6,7,9,2)              0.0            -DE/DX =    0.0                 !
 ! D16   D(6,7,9,8)            180.0            -DE/DX =    0.0                 !
 --------------------------------------------------------------------------------
 GradGradGradGradGradGradGradGradGradGradGradGradGradGradGradGradGradGrad

 1\1\GINC-P1921\Freq\RSVWN\6-311G(d,p)\C3H4N2\RDJ3\17-Mar-2008\0\\#N Ge
 om=AllCheck Guess=Read SCRF=Check GenChk RSVWN/6-311G(d,p) Freq\\1hpyr
 az 1H-Pyrazole casno=288131 method=51 basis=21 config=1\\0,1\H,2.10458
 72039,0.7296015786,0.\C,1.1029966854,0.3065348243,0.\H,1.2603813065,-1
 .896631827,0.\C,0.65528648,-0.9943758578,0.\H,-1.4872280738,-1.6789742
 805,0.\C,-0.7424977857,-0.8847517311,0.\N,-1.1384308833,0.3814354083,0
 .\H,-0.0518864349,2.0934981924,0.\N,-0.0043674983,1.0781446929,0.\\Ver
 sion=AM64L-G03RevD.01\State=1-A'\HF=-225.0242875\RMSD=1.685e-09\RMSF=5
 .390e-05\ZeroPoint=0.0699244\Thermal=0.073676\Dipole=0.8100387,0.39412
 2,0.\DipoleDeriv=0.0286169,-0.034349,0.,-0.0468333,0.0801038,0.,0.,0.,
 0.1919622,-0.0710037,-0.1565717,0.,-0.0188732,0.3043792,0.,0.,0.,-0.11
 72066,0.0680668,0.0623359,0.,0.0578294,0.0395966,0.,0.,0.,0.1751788,-0
 .1237272,-0.1115025,0.,-0.0612976,-0.1439829,0.,0.,0.,-0.2264471,0.039
 6078,-0.0685,0.,-0.0424395,0.0424994,0.,0.,0.,0.155469,0.2814444,0.053
 2931,0.,-0.0010819,0.0321692,0.,0.,0.,-0.0964137,-0.5154547,0.2947804,
 0.,0.1816621,-0.100546,0.,0.,0.,-0.2255993,0.1814989,-0.010689,0.,-0.0
 291539,0.2745279,0.,0.,0.,0.3147772,0.1109508,-0.0287973,0.,-0.0398121
 ,-0.5287473,0.,0.,0.,-0.1717205\Polar=49.5140343,1.9562664,50.2068905,
 0.,0.,22.3620479\PG=CS [SG(C3H4N2)]\NImag=0\\0.31105547,0.11090090,0.0
 9169707,0.,0.,0.01857646,-0.29530381,-0.11123590,0.,0.80513845,-0.1025
 7599,-0.09966944,0.,0.11212746,0.66192522,0.,0.,-0.02238038,0.,0.,0.11
 438566,-0.00023772,0.00078536,0.,0.01040738,-0.01100244,0.,0.13941965,
 -0.00035183,0.00035996,0.,0.01639274,-0.00904227,0.,-0.14599035,0.2614
 6640,0.,0.,-0.00261485,0.,0.,-0.00159350,0.,0.,0.02043483,0.00181649,-
 0.02069362,0.,-0.12664166,-0.07267056,0.,-0.14101915,0.13460740,0.,0.6
 2083620,0.00222043,0.00306246,0.,-0.09398489,-0.34633270,0.,0.13698327
 ,-0.25390065,0.,-0.12036381,0.79763528,0.,0.,0.00078998,0.,0.,-0.06277
 992,0.,0.,-0.02447877,0.,0.,0.11355925,0.00017374,-0.00115624,0.,-0.00
 526580,0.00093835,0.,0.00039641,0.00045977,0.,-0.00652684,-0.01873376,
 0.,0.19069653,-0.00005587,0.00060717,0.,0.00280914,-0.00043415,0.,-0.0
 0066351,-0.00027588,0.,0.00502783,0.00743792,0.,0.15206984,0.21203893,
 0.,0.,0.00082592,0.,0.,0.00426831,0.,0.,-0.00188591,0.,0.,0.00075373,0
 .,0.,0.02253305,-0.00045523,-0.00246888,0.,-0.03634313,-0.08043910,0.,
 -0.00144842,-0.00312972,0.,-0.30718130,0.02207419,0.,-0.19189585,-0.13
 943879,0.,0.69536656,0.00136199,-0.00572343,0.,-0.01397086,0.01001877,
 0.,0.02242354,0.00479364,0.,-0.00540650,-0.10333308,0.,-0.14580146,-0.
 19415140,0.,0.12465761,0.76167958,0.,0.,0.00443153,0.,0.,0.01176603,0.
 ,0.,-0.00263163,0.,0.,-0.06468550,0.,0.,-0.02778034,0.,0.,0.13390650,-
 0.00175886,0.00424038,0.,-0.09845188,0.01229895,0.,-0.00612117,-0.0020
 2854,0.,-0.03400444,0.01529215,0.,0.00985207,-0.01903704,0.,-0.1222859
 4,0.06625465,0.,0.49554573,0.00219692,-0.00297610,0.,-0.01952806,-0.02
 328992,0.,0.00285947,0.00071493,0.,0.08305697,-0.02013250,0.,0.0068298
 4,-0.01904757,0.,0.10575483,-0.35031448,0.,-0.02481719,0.57575327,0.,0
 .,0.00629126,0.,0.,0.01884580,0.,0.,0.00628947,0.,0.,0.01997490,0.,0.,
 -0.00741367,0.,0.,-0.07214132,0.,0.,0.10589812,-0.00012841,-0.00068296
 ,0.,0.00922322,0.02351782,0.,0.00081514,0.00086721,0.,-0.00574640,0.00
 414950,0.,0.00077146,-0.00123115,0.,-0.00703404,-0.00571500,0.,0.00473
 398,-0.03378211,0.,0.06198432,0.00022067,0.00004461,0.,-0.00315335,-0.
 00706069,0.,-0.00022721,-0.00005294,0.,0.00288077,0.00120691,0.,0.0003
 2346,-0.00028614,0.,-0.00463122,0.00113596,0.,-0.00209865,-0.01438851,
 0.,-0.01907256,0.45257288,0.,0.,-0.00149075,0.,0.,-0.00648470,0.,0.,0.
 00191169,0.,0.,0.00315313,0.,0.,0.00187472,0.,0.,0.00484238,0.,0.,-0.0
 1128408,0.,0.,0.01340741,-0.01516168,0.02031096,0.,-0.26276277,0.11780
 551,0.,-0.00221213,-0.00082667,0.,-0.00153290,0.05236292,0.,0.00179827
 ,0.00051956,0.,-0.02872265,-0.04380397,0.,-0.24750949,-0.12257066,0.,-
 0.06461926,0.02575809,0.,0.62072259,-0.01391722,0.01259769,0.,0.110543
 72,-0.18611482,0.,-0.00516812,-0.00406319,0.,-0.00643847,-0.08564364,0
 .,0.00507022,-0.00588888,0.,-0.02237892,-0.12410557,0.,-0.05010471,-0.
 14631912,0.,0.03194924,-0.43317208,0.,-0.04955573,0.97270959,0.,0.,-0.
 00442918,0.,0.,-0.05602730,0.,0.,0.00456868,0.,0.,0.01371319,0.,0.,0.0
 0682419,0.,0.,0.01229236,0.,0.,-0.06646048,0.,0.,-0.00592982,0.,0.,0.0
 9544837\\-0.00000386,0.00001779,0.,0.00006231,-0.00000437,0.,0.0000044
 5,-0.00002233,0.,-0.00006142,0.00001377,0.,0.00002337,-0.00002803,0.,0
 .00014397,-0.00000824,0.,-0.00016093,0.00010414,0.,-0.00003764,0.00001
 797,0.,0.00002975,-0.00009071,0.\\\@


 A FOOL CAN ASK MORE QUESTIONS THAN
 A WISE MAN CAN ANSWER.
 Job cpu time:  0 days  0 hours  1 minutes 55.4 seconds.
 File lengths (MBytes):  RWF=     23 Int=      0 D2E=      0 Chk=      7 Scr=      1
 Normal termination of Gaussian 03 at Mon Mar 17 13:59:42 2008.
