 host = p2212 (kernel = 2.6.18-128.el5)
 Running revision E01

 Current disk usage on p2212

 START DATE Mon Jun 20 07:11:16 EDT 2011
 GAUSS_LFLAGS = '-nodelist "p2212"'
 Entering Gaussian System, Link 0=/usr/local/gaussian03-rev-E01-64/g03/g03
 Initial command:
 /usr/local/gaussian03-rev-E01-64/g03/l1.exe /gaussian/Gau-26749.inp -scrdir=/gaussian/
 Entering Link 1 = /usr/local/gaussian03-rev-E01-64/g03/l1.exe PID=     26778.
  
 Copyright (c) 1988,1990,1992,1993,1995,1998,2003,2004,2007, Gaussian, Inc.
                  All Rights Reserved.
  
 This is the Gaussian(R) 03 program.  It is based on the
 the Gaussian(R) 98 system (copyright 1998, Gaussian, Inc.),
 the Gaussian(R) 94 system (copyright 1995, Gaussian, Inc.),
 the Gaussian 92(TM) system (copyright 1992, Gaussian, Inc.),
 the Gaussian 90(TM) system (copyright 1990, Gaussian, Inc.),
 the Gaussian 88(TM) system (copyright 1988, Gaussian, Inc.),
 the Gaussian 86(TM) system (copyright 1986, Carnegie Mellon
 University), and the Gaussian 82(TM) system (copyright 1983,
 Carnegie Mellon University). Gaussian is a federally registered
 trademark of Gaussian, Inc.
  
 This software contains proprietary and confidential information,
 including trade secrets, belonging to Gaussian, Inc.
  
 This software is provided under written license and may be
 used, copied, transmitted, or stored only in accord with that
 written license.
  
 The following legend is applicable only to US Government
 contracts under FAR:
  
                    RESTRICTED RIGHTS LEGEND
  
 Use, reproduction and disclosure by the US Government is
 subject to restrictions as set forth in subparagraphs (a)
 and (c) of the Commercial Computer Software - Restricted
 Rights clause in FAR 52.227-19.
  
 Gaussian, Inc.
 340 Quinnipiac St., Bldg. 40, Wallingford CT 06492
  
  
 ---------------------------------------------------------------
 Warning -- This program may not be used in any manner that
 competes with the business of Gaussian, Inc. or will provide
 assistance to any competitor of Gaussian, Inc.  The licensee
 of this program is prohibited from giving any competitor of
 Gaussian, Inc. access to this program.  By using this program,
 the user acknowledges that Gaussian, Inc. is engaged in the
 business of creating and licensing software in the field of
 computational chemistry and represents and warrants to the
 licensee that it is not a competitor of Gaussian, Inc. and that
 it will not use this program in any manner prohibited above.
 ---------------------------------------------------------------
  

 Cite this work as:
 Gaussian 03, Revision E.01,
 M. J. Frisch, G. W. Trucks, H. B. Schlegel, G. E. Scuseria, 
 M. A. Robb, J. R. Cheeseman, J. A. Montgomery, Jr., T. Vreven, 
 K. N. Kudin, J. C. Burant, J. M. Millam, S. S. Iyengar, J. Tomasi, 
 V. Barone, B. Mennucci, M. Cossi, G. Scalmani, N. Rega, 
 G. A. Petersson, H. Nakatsuji, M. Hada, M. Ehara, K. Toyota, 
 R. Fukuda, J. Hasegawa, M. Ishida, T. Nakajima, Y. Honda, O. Kitao, 
 H. Nakai, M. Klene, X. Li, J. E. Knox, H. P. Hratchian, J. B. Cross, 
 V. Bakken, C. Adamo, J. Jaramillo, R. Gomperts, R. E. Stratmann, 
 O. Yazyev, A. J. Austin, R. Cammi, C. Pomelli, J. W. Ochterski, 
 P. Y. Ayala, K. Morokuma, G. A. Voth, P. Salvador, J. J. Dannenberg, 
 V. G. Zakrzewski, S. Dapprich, A. D. Daniels, M. C. Strain, 
 O. Farkas, D. K. Malick, A. D. Rabuck, K. Raghavachari, 
 J. B. Foresman, J. V. Ortiz, Q. Cui, A. G. Baboul, S. Clifford, 
 J. Cioslowski, B. B. Stefanov, G. Liu, A. Liashenko, P. Piskorz, 
 I. Komaromi, R. L. Martin, D. J. Fox, T. Keith, M. A. Al-Laham, 
 C. Y. Peng, A. Nanayakkara, M. Challacombe, P. M. W. Gill, 
 B. Johnson, W. Chen, M. W. Wong, C. Gonzalez, and J. A. Pople, 
 Gaussian, Inc., Wallingford CT, 2004.
 
 ******************************************
 Gaussian 03:  AM64L-G03RevE.01 11-Sep-2007
                20-Jun-2011 
 ******************************************
 %mem=24000000
 ------------------------
 #PBE1PBE/6-31G* opt freq
 ------------------------
 1/14=-1,18=20,26=3,38=1/1,3;
 2/9=110,17=6,18=5,40=1/2;
 3/5=1,6=6,7=1,11=2,16=1,25=1,30=1,74=-13/1,2,3;
 4//1;
 5/5=2,38=5/2;
 6/7=2,8=2,9=2,10=2,28=1/1;
 7//1,2,3,16;
 1/14=-1,18=20/3(3);
 2/9=110/2;
 6/7=2,8=2,9=2,10=2,19=2,28=1/1;
 99//99;
 2/9=110/2;
 3/5=1,6=6,7=1,11=2,16=1,25=1,30=1,74=-13/1,2,3;
 4/5=5,16=3/1;
 5/5=2,38=5/2;
 7//1,2,3,16;
 1/14=-1,18=20/3(-5);
 2/9=110/2;
 6/7=2,8=2,9=2,10=2,19=2,28=1/1;
 99/9=1/99;
 Leave Link    1 at Mon Jun 20 07:11:18 2011, MaxMem=   24000000 cpu:       0.9
 (Enter /usr/local/gaussian03-rev-E01-64/g03/l101.exe)
 -------------------------------------------------
 1H pyrazole C3H4N2 casno=288131 method=54 basis=1
 -------------------------------------------------
 Symbolic Z-matrix:
 Charge =  0 Multiplicity = 1
 H                    -1.9125    0.       -0.75938 
 C                    -1.08438   0.       -0.21875 
 H                     0.43438   0.       -1.63125 
 C                     0.15      0.       -0.68438 
 H                     1.9125    0.        0.37188 
 C                     0.92188   0.        0.375 
 N                     0.18125   0.        1.41875 
 H                    -1.74063   0.        1.63125 
 N                    -1.00313   0.        1.05313 
 
                    Isotopes and Nuclear Properties:
 (Nuclear quadrupole moments (NQMom) in fm**2, nuclear magnetic moments (NMagM)
  in nuclear magnetons)

  Atom         1           2           3           4           5           6           7           8           9
 IAtWgt=           1          12           1          12           1          12          14           1          14
 AtmWgt=   1.0078250  12.0000000   1.0078250  12.0000000   1.0078250  12.0000000  14.0030740   1.0078250  14.0030740
 NucSpn=           1           0           1           0           1           0           2           1           2
 AtZEff=   0.0000000   0.0000000   0.0000000   0.0000000   0.0000000   0.0000000   0.0000000   0.0000000   0.0000000
 NQMom=    0.0000000   0.0000000   0.0000000   0.0000000   0.0000000   0.0000000   2.0440000   0.0000000   2.0440000
 NMagM=    2.7928460   0.0000000   2.7928460   0.0000000   2.7928460   0.0000000   0.4037610   2.7928460   0.4037610
 Leave Link  101 at Mon Jun 20 07:11:18 2011, MaxMem=   24000000 cpu:       0.5
 (Enter /usr/local/gaussian03-rev-E01-64/g03/l103.exe)

 GradGradGradGradGradGradGradGradGradGradGradGradGradGradGradGradGradGrad
 Berny optimization.
 Initialization pass.
                           ----------------------------
                           !    Initial Parameters    !
                           ! (Angstroms and Degrees)  !
 --------------------------                            --------------------------
 ! Name  Definition              Value          Derivative Info.                !
 --------------------------------------------------------------------------------
 ! R1    R(1,2)                  0.989          estimate D2E/DX2                !
 ! R2    R(2,4)                  1.3193         estimate D2E/DX2                !
 ! R3    R(2,9)                  1.2745         estimate D2E/DX2                !
 ! R4    R(3,4)                  0.9887         estimate D2E/DX2                !
 ! R5    R(4,6)                  1.3108         estimate D2E/DX2                !
 ! R6    R(5,6)                  0.9906         estimate D2E/DX2                !
 ! R7    R(6,7)                  1.2798         estimate D2E/DX2                !
 ! R8    R(7,9)                  1.2395         estimate D2E/DX2                !
 ! R9    R(8,9)                  0.9371         estimate D2E/DX2                !
 ! A1    A(1,2,4)              126.195          estimate D2E/DX2                !
 ! A2    A(1,2,9)              126.7929         estimate D2E/DX2                !
 ! A3    A(4,2,9)              107.012          estimate D2E/DX2                !
 ! A4    A(2,4,3)              127.3838         estimate D2E/DX2                !
 ! A5    A(2,4,6)              105.4104         estimate D2E/DX2                !
 ! A6    A(3,4,6)              127.2058         estimate D2E/DX2                !
 ! A7    A(4,6,5)              125.8968         estimate D2E/DX2                !
 ! A8    A(4,6,7)              108.5636         estimate D2E/DX2                !
 ! A9    A(5,6,7)              125.5395         estimate D2E/DX2                !
 ! A10   A(6,7,9)              108.203          estimate D2E/DX2                !
 ! A11   A(2,9,7)              110.811          estimate D2E/DX2                !
 ! A12   A(2,9,8)              124.4376         estimate D2E/DX2                !
 ! A13   A(7,9,8)              124.7513         estimate D2E/DX2                !
 ! D1    D(1,2,4,3)              0.0            estimate D2E/DX2                !
 ! D2    D(1,2,4,6)            180.0            estimate D2E/DX2                !
 ! D3    D(9,2,4,3)            180.0            estimate D2E/DX2                !
 ! D4    D(9,2,4,6)              0.0            estimate D2E/DX2                !
 ! D5    D(1,2,9,7)            180.0            estimate D2E/DX2                !
 ! D6    D(1,2,9,8)              0.0            estimate D2E/DX2                !
 ! D7    D(4,2,9,7)              0.0            estimate D2E/DX2                !
 ! D8    D(4,2,9,8)            180.0            estimate D2E/DX2                !
 ! D9    D(2,4,6,5)            180.0            estimate D2E/DX2                !
 ! D10   D(2,4,6,7)              0.0            estimate D2E/DX2                !
 ! D11   D(3,4,6,5)              0.0            estimate D2E/DX2                !
 ! D12   D(3,4,6,7)            180.0            estimate D2E/DX2                !
 ! D13   D(4,6,7,9)              0.0            estimate D2E/DX2                !
 ! D14   D(5,6,7,9)            180.0            estimate D2E/DX2                !
 ! D15   D(6,7,9,2)              0.0            estimate D2E/DX2                !
 ! D16   D(6,7,9,8)            180.0            estimate D2E/DX2                !
 --------------------------------------------------------------------------------
 Trust Radius=3.00D-01 FncErr=1.00D-07 GrdErr=1.00D-06
 Number of steps in this run=  48 maximum allowed number of steps= 100.
 GradGradGradGradGradGradGradGradGradGradGradGradGradGradGradGradGradGrad

 Leave Link  103 at Mon Jun 20 07:11:19 2011, MaxMem=   24000000 cpu:       0.0
 (Enter /usr/local/gaussian03-rev-E01-64/g03/l202.exe)
                          Input orientation:                          
 ---------------------------------------------------------------------
 Center     Atomic     Atomic              Coordinates (Angstroms)
 Number     Number      Type              X           Y           Z
 ---------------------------------------------------------------------
    1          1             0       -1.912500    0.000000   -0.759375
    2          6             0       -1.084375    0.000000   -0.218750
    3          1             0        0.434375    0.000000   -1.631250
    4          6             0        0.150000    0.000000   -0.684375
    5          1             0        1.912500    0.000000    0.371875
    6          6             0        0.921875    0.000000    0.375000
    7          7             0        0.181250    0.000000    1.418750
    8          1             0       -1.740625    0.000000    1.631250
    9          7             0       -1.003125    0.000000    1.053125
 ---------------------------------------------------------------------
                    Distance matrix (angstroms):
                    1          2          3          4          5
     1  H    0.000000
     2  C    0.988972   0.000000
     3  H    2.503595   2.074068   0.000000
     4  C    2.063863   1.319276   0.988656   0.000000
     5  H    3.988778   3.054521   2.489450   2.054768   0.000000
     6  C    3.052947   2.092266   2.064630   1.310750   0.990630
     7  N    3.021261   2.069592   3.060486   2.103357   2.023159
     8  H    2.396796   1.962948   3.921037   2.989412   3.864110
     9  N    2.027836   1.274468   3.045041   2.085331   2.994156
                    6          7          8          9
     6  C    0.000000
     7  N    1.279820   0.000000
     8  H    2.943989   1.933587   0.000000
     9  N    2.040950   1.239526   0.937088   0.000000
 Stoichiometry    C3H4N2
 Framework group  CS[SG(C3H4N2)]
 Deg. of freedom    15
 Full point group                 CS
 Largest Abelian subgroup         CS      NOp   2
 Largest concise Abelian subgroup C1      NOp   1
                         Standard orientation:                         
 ---------------------------------------------------------------------
 Center     Atomic     Atomic              Coordinates (Angstroms)
 Number     Number      Type              X           Y           Z
 ---------------------------------------------------------------------
    1          1             0        1.974407    0.585689    0.000000
    2          6             0        1.028833    0.295936    0.000000
    3          1             0        1.140941   -1.775099    0.000000
    4          6             0        0.595873   -0.950271    0.000000
    5          1             0       -1.344123   -1.627388    0.000000
    6          6             0       -0.712074   -0.864589    0.000000
    7          7             0       -1.039336    0.372682    0.000000
    8          1             0        0.028336    1.984773    0.000000
    9          7             0        0.000000    1.048113    0.000000
 ---------------------------------------------------------------------
 Rotational constants (GHZ):     11.1878017     10.4520035      5.4036966
 Leave Link  202 at Mon Jun 20 07:11:19 2011, MaxMem=   24000000 cpu:       0.0
 (Enter /usr/local/gaussian03-rev-E01-64/g03/l301.exe)
 Standard basis: 6-31G(d) (6D, 7F)
 There are    63 symmetry adapted basis functions of A'  symmetry.
 There are    20 symmetry adapted basis functions of A"  symmetry.
 Integral buffers will be    131072 words long.
 Raffenetti 2 integral format.
 Two-electron integral symmetry is turned on.
    83 basis functions,   156 primitive gaussians,    83 cartesian basis functions
    18 alpha electrons       18 beta electrons
       nuclear repulsion energy       173.7391745845 Hartrees.
 IExCor=1009 DFT=T Ex=PBE+HF Corr=PBE ExCW=0 ScaHFX=  0.250000
 ScaDFX=  0.750000  0.750000  1.000000  1.000000
 IRadAn=      0 IRanWt=     -1 IRanGd=            0 ICorTp=0
 NAtoms=    9 NActive=    9 NUniq=    9 SFac= 7.50D-01 NAtFMM=   80 NAOKFM=F Big=F
 Leave Link  301 at Mon Jun 20 07:11:19 2011, MaxMem=   24000000 cpu:       0.0
 (Enter /usr/local/gaussian03-rev-E01-64/g03/l302.exe)
 NPDir=0 NMtPBC=     1 NCelOv=     1 NCel=       1 NClECP=     1 NCelD=      1
         NCelK=      1 NCelE2=     1 NClLst=     1 CellRange=     0.0.
 One-electron integrals computed using PRISM.
 NBasis=    83 RedAO= T  NBF=    63    20
 NBsUse=    83 1.00D-06 NBFU=    63    20
 Precomputing XC quadrature grid using
 IXCGrd= 2 IRadAn=           0 IRanWt=          -1 IRanGd=           0.
 NRdTot=     555 NPtTot=       69836 NUsed=       73758 NTot=       73790
 NSgBfM=    83    83    83    83.
 Leave Link  302 at Mon Jun 20 07:11:20 2011, MaxMem=   24000000 cpu:       0.2
 (Enter /usr/local/gaussian03-rev-E01-64/g03/l303.exe)
 DipDrv:  MaxL=1.
 Leave Link  303 at Mon Jun 20 07:11:20 2011, MaxMem=   24000000 cpu:       0.0
 (Enter /usr/local/gaussian03-rev-E01-64/g03/l401.exe)
 Harris functional with IExCor= 1009 diagonalized for initial guess.
 ExpMin= 1.61D-01 ExpMax= 4.17D+03 ExpMxC= 6.27D+02 IAcc=1 IRadAn=         1 AccDes= 1.00D-06
 HarFok:  IExCor=1009 AccDes= 1.00D-06 IRadAn=         1 IDoV=1
 ScaDFX=  1.000000  1.000000  1.000000  1.000000
 Harris En= -226.058074936922    
 Initial guess orbital symmetries:
       Occupied  (A') (A') (A') (A') (A') (A') (A') (A') (A') (A')
                 (A') (A') (A') (A") (A') (A") (A') (A")
       Virtual   (A") (A") (A') (A') (A') (A') (A') (A') (A') (A')
                 (A') (A") (A') (A') (A') (A") (A") (A') (A') (A')
                 (A") (A') (A') (A") (A') (A') (A') (A') (A') (A')
                 (A') (A") (A') (A") (A") (A') (A') (A") (A") (A')
                 (A') (A') (A') (A') (A') (A") (A') (A") (A") (A')
                 (A') (A") (A') (A') (A") (A') (A') (A') (A') (A')
                 (A') (A') (A') (A') (A')
 The electronic state of the initial guess is 1-A'.
 Leave Link  401 at Mon Jun 20 07:11:20 2011, MaxMem=   24000000 cpu:       0.2
 (Enter /usr/local/gaussian03-rev-E01-64/g03/l502.exe)
 Closed shell SCF:
 Requested convergence on RMS density matrix=1.00D-08 within 128 cycles.
 Requested convergence on MAX density matrix=1.00D-06.
 Requested convergence on             energy=1.00D-06.
 No special actions if energy rises.
 Using DIIS extrapolation, IDIIS=  1040.
 Integral symmetry usage will be decided dynamically.
        73757 words used for storage of precomputed grid.
 Keep R1 integrals in memory in canonical form, NReq=     7915306.
 IEnd=    116005 IEndB=    116005 NGot=  24000000 MDV=  17829753
 LenX=  17829753
 Symmetry not used in FoFDir.
 MinBra= 0 MaxBra= 2 Meth= 1.
 IRaf=       0 NMat=   1 IRICut=       1 DoRegI=T DoRafI=F ISym2E= 0 JSym2E=0.
 Integral accuracy reduced to 1.0D-05 until final iterations.

 Cycle   1  Pass 0  IDiag  1:
 E= -225.683648476415    
 DIIS: error= 4.96D-02 at cycle   1 NSaved=   1.
 NSaved= 1 IEnMin= 1 EnMin= -225.683648476415     IErMin= 1 ErrMin= 4.96D-02
 ErrMax= 4.96D-02 EMaxC= 1.00D-01 BMatC= 1.81D-01 BMatP= 1.81D-01
 IDIUse=3 WtCom= 5.04D-01 WtEn= 4.96D-01
 Coeff-Com:  0.100D+01
 Coeff-En:   0.100D+01
 Coeff:      0.100D+01
 Gap=     0.285 Goal=   None    Shift=    0.000
 GapD=    0.285 DampG=1.000 DampE=0.500 DampFc=0.5000 IDamp=-1.
 Damping current iteration by 5.00D-01
 RMSDP=1.24D-02 MaxDP=1.64D-01              OVMax= 2.19D-01

 Cycle   2  Pass 0  IDiag  1:
 E= -225.773715003977     Delta-E=       -0.090066527562 Rises=F Damp=T
 DIIS: error= 8.61D-03 at cycle   2 NSaved=   2.
 NSaved= 2 IEnMin= 2 EnMin= -225.773715003977     IErMin= 2 ErrMin= 8.61D-03
 ErrMax= 8.61D-03 EMaxC= 1.00D-01 BMatC= 9.45D-03 BMatP= 1.81D-01
 IDIUse=3 WtCom= 9.14D-01 WtEn= 8.61D-02
 Coeff-Com:  0.227D-01 0.977D+00
 Coeff-En:   0.189D-01 0.981D+00
 Coeff:      0.224D-01 0.978D+00
 Gap=     0.328 Goal=   None    Shift=    0.000
 RMSDP=3.36D-03 MaxDP=4.82D-02 DE=-9.01D-02 OVMax= 1.60D-01

 Cycle   3  Pass 0  IDiag  1:
 E= -225.867724886441     Delta-E=       -0.094009882465 Rises=F Damp=F
 DIIS: error= 1.04D-02 at cycle   3 NSaved=   3.
 NSaved= 3 IEnMin= 3 EnMin= -225.867724886441     IErMin= 2 ErrMin= 8.61D-03
 ErrMax= 1.04D-02 EMaxC= 1.00D-01 BMatC= 7.76D-03 BMatP= 9.45D-03
 IDIUse=3 WtCom= 8.96D-01 WtEn= 1.04D-01
 Coeff-Com: -0.259D-01 0.482D+00 0.543D+00
 Coeff-En:   0.000D+00 0.000D+00 0.100D+01
 Coeff:     -0.232D-01 0.432D+00 0.591D+00
 Gap=     0.313 Goal=   None    Shift=    0.000
 RMSDP=1.44D-03 MaxDP=2.82D-02 DE=-9.40D-02 OVMax= 4.65D-02

 Cycle   4  Pass 0  IDiag  1:
 E= -225.873180740413     Delta-E=       -0.005455853972 Rises=F Damp=F
 DIIS: error= 5.09D-03 at cycle   4 NSaved=   4.
 NSaved= 4 IEnMin= 4 EnMin= -225.873180740413     IErMin= 4 ErrMin= 5.09D-03
 ErrMax= 5.09D-03 EMaxC= 1.00D-01 BMatC= 1.83D-03 BMatP= 7.76D-03
 IDIUse=3 WtCom= 9.49D-01 WtEn= 5.09D-02
 Coeff-Com: -0.105D-01 0.104D+00 0.345D+00 0.562D+00
 Coeff-En:   0.000D+00 0.000D+00 0.208D+00 0.792D+00
 Coeff:     -0.994D-02 0.985D-01 0.338D+00 0.574D+00
 Gap=     0.315 Goal=   None    Shift=    0.000
 RMSDP=5.28D-04 MaxDP=8.85D-03 DE=-5.46D-03 OVMax= 1.54D-02

 Cycle   5  Pass 0  IDiag  1:
 E= -225.874803783755     Delta-E=       -0.001623043342 Rises=F Damp=F
 DIIS: error= 5.83D-04 at cycle   5 NSaved=   5.
 NSaved= 5 IEnMin= 5 EnMin= -225.874803783755     IErMin= 5 ErrMin= 5.83D-04
 ErrMax= 5.83D-04 EMaxC= 1.00D-01 BMatC= 2.54D-05 BMatP= 1.83D-03
 IDIUse=3 WtCom= 9.94D-01 WtEn= 5.83D-03
 Coeff-Com: -0.227D-02 0.928D-02 0.790D-01 0.190D+00 0.724D+00
 Coeff-En:   0.000D+00 0.000D+00 0.000D+00 0.000D+00 0.100D+01
 Coeff:     -0.226D-02 0.922D-02 0.785D-01 0.189D+00 0.726D+00
 Gap=     0.315 Goal=   None    Shift=    0.000
 RMSDP=8.56D-05 MaxDP=1.66D-03 DE=-1.62D-03 OVMax= 3.33D-03

 Cycle   6  Pass 0  IDiag  1:
 E= -225.874816775221     Delta-E=       -0.000012991466 Rises=F Damp=F
 DIIS: error= 4.01D-04 at cycle   6 NSaved=   6.
 NSaved= 6 IEnMin= 6 EnMin= -225.874816775221     IErMin= 6 ErrMin= 4.01D-04
 ErrMax= 4.01D-04 EMaxC= 1.00D-01 BMatC= 1.00D-05 BMatP= 2.54D-05
 IDIUse=3 WtCom= 9.96D-01 WtEn= 4.01D-03
 Coeff-Com: -0.753D-03-0.820D-03 0.265D-01 0.795D-01 0.453D+00 0.442D+00
 Coeff-En:   0.000D+00 0.000D+00 0.000D+00 0.000D+00 0.286D+00 0.714D+00
 Coeff:     -0.750D-03-0.816D-03 0.264D-01 0.792D-01 0.453D+00 0.443D+00
 Gap=     0.315 Goal=   None    Shift=    0.000
 RMSDP=4.05D-05 MaxDP=7.30D-04 DE=-1.30D-05 OVMax= 1.48D-03

 Cycle   7  Pass 0  IDiag  1:
 E= -225.874825588465     Delta-E=       -0.000008813244 Rises=F Damp=F
 DIIS: error= 2.93D-05 at cycle   7 NSaved=   7.
 NSaved= 7 IEnMin= 7 EnMin= -225.874825588465     IErMin= 7 ErrMin= 2.93D-05
 ErrMax= 2.93D-05 EMaxC= 1.00D-01 BMatC= 8.57D-08 BMatP= 1.00D-05
 IDIUse=1 WtCom= 1.00D+00 WtEn= 0.00D+00
 Coeff-Com: -0.170D-03-0.717D-03 0.693D-02 0.217D-01 0.139D+00 0.160D+00
 Coeff-Com:  0.673D+00
 Coeff:     -0.170D-03-0.717D-03 0.693D-02 0.217D-01 0.139D+00 0.160D+00
 Coeff:      0.673D+00
 Gap=     0.315 Goal=   None    Shift=    0.000
 RMSDP=5.00D-06 MaxDP=7.86D-05 DE=-8.81D-06 OVMax= 1.42D-04

 Initial convergence to 1.0D-05 achieved.  Increase integral accuracy.
 Cycle   8  Pass 1  IDiag  1:
 E= -225.874838927003     Delta-E=       -0.000013338538 Rises=F Damp=F
 DIIS: error= 1.30D-05 at cycle   1 NSaved=   1.
 NSaved= 1 IEnMin= 1 EnMin= -225.874838927003     IErMin= 1 ErrMin= 1.30D-05
 ErrMax= 1.30D-05 EMaxC= 1.00D-01 BMatC= 2.62D-08 BMatP= 2.62D-08
 IDIUse=1 WtCom= 1.00D+00 WtEn= 0.00D+00
 Coeff-Com:  0.100D+01
 Coeff:      0.100D+01
 Gap=     0.315 Goal=   None    Shift=    0.000
 RMSDP=5.00D-06 MaxDP=7.86D-05 DE=-1.33D-05 OVMax= 1.14D-04

 Cycle   9  Pass 1  IDiag  1:
 E= -225.874838922528     Delta-E=        0.000000004475 Rises=F Damp=F
 DIIS: error= 1.81D-05 at cycle   2 NSaved=   2.
 NSaved= 2 IEnMin= 1 EnMin= -225.874838927003     IErMin= 1 ErrMin= 1.30D-05
 ErrMax= 1.81D-05 EMaxC= 1.00D-01 BMatC= 3.32D-08 BMatP= 2.62D-08
 IDIUse=1 WtCom= 1.00D+00 WtEn= 0.00D+00
 Coeff-Com:  0.533D+00 0.467D+00
 Coeff:      0.533D+00 0.467D+00
 Gap=     0.315 Goal=   None    Shift=    0.000
 RMSDP=2.46D-06 MaxDP=4.02D-05 DE= 4.47D-09 OVMax= 6.61D-05

 Cycle  10  Pass 1  IDiag  1:
 E= -225.874838952027     Delta-E=       -0.000000029499 Rises=F Damp=F
 DIIS: error= 3.58D-06 at cycle   3 NSaved=   3.
 NSaved= 3 IEnMin= 3 EnMin= -225.874838952027     IErMin= 3 ErrMin= 3.58D-06
 ErrMax= 3.58D-06 EMaxC= 1.00D-01 BMatC= 1.10D-09 BMatP= 2.62D-08
 IDIUse=1 WtCom= 1.00D+00 WtEn= 0.00D+00
 Coeff-Com:  0.104D+00 0.169D+00 0.726D+00
 Coeff:      0.104D+00 0.169D+00 0.726D+00
 Gap=     0.315 Goal=   None    Shift=    0.000
 RMSDP=6.41D-07 MaxDP=1.39D-05 DE=-2.95D-08 OVMax= 2.43D-05

 Cycle  11  Pass 1  IDiag  1:
 E= -225.874838952517     Delta-E=       -0.000000000490 Rises=F Damp=F
 DIIS: error= 3.43D-06 at cycle   4 NSaved=   4.
 NSaved= 4 IEnMin= 4 EnMin= -225.874838952517     IErMin= 4 ErrMin= 3.43D-06
 ErrMax= 3.43D-06 EMaxC= 1.00D-01 BMatC= 5.93D-10 BMatP= 1.10D-09
 IDIUse=1 WtCom= 1.00D+00 WtEn= 0.00D+00
 Coeff-Com: -0.179D-01 0.325D-01 0.468D+00 0.518D+00
 Coeff:     -0.179D-01 0.325D-01 0.468D+00 0.518D+00
 Gap=     0.315 Goal=   None    Shift=    0.000
 RMSDP=2.83D-07 MaxDP=5.13D-06 DE=-4.90D-10 OVMax= 1.01D-05

 Cycle  12  Pass 1  IDiag  1:
 E= -225.874838953033     Delta-E=       -0.000000000516 Rises=F Damp=F
 DIIS: error= 1.14D-07 at cycle   5 NSaved=   5.
 NSaved= 5 IEnMin= 5 EnMin= -225.874838953033     IErMin= 5 ErrMin= 1.14D-07
 ErrMax= 1.14D-07 EMaxC= 1.00D-01 BMatC= 1.90D-12 BMatP= 5.93D-10
 IDIUse=1 WtCom= 1.00D+00 WtEn= 0.00D+00
 Coeff-Com: -0.756D-02 0.101D-01 0.169D+00 0.194D+00 0.635D+00
 Coeff:     -0.756D-02 0.101D-01 0.169D+00 0.194D+00 0.635D+00
 Gap=     0.315 Goal=   None    Shift=    0.000
 RMSDP=2.32D-08 MaxDP=3.88D-07 DE=-5.16D-10 OVMax= 4.20D-07

 Cycle  13  Pass 1  IDiag  1:
 E= -225.874838953033     Delta-E=        0.000000000000 Rises=F Damp=F
 DIIS: error= 6.17D-08 at cycle   6 NSaved=   6.
 NSaved= 6 IEnMin= 5 EnMin= -225.874838953033     IErMin= 6 ErrMin= 6.17D-08
 ErrMax= 6.17D-08 EMaxC= 1.00D-01 BMatC= 3.96D-13 BMatP= 1.90D-12
 IDIUse=1 WtCom= 1.00D+00 WtEn= 0.00D+00
 Coeff-Com: -0.111D-02 0.982D-05 0.152D-01 0.213D-01 0.316D+00 0.649D+00
 Coeff:     -0.111D-02 0.982D-05 0.152D-01 0.213D-01 0.316D+00 0.649D+00
 Gap=     0.315 Goal=   None    Shift=    0.000
 RMSDP=8.88D-09 MaxDP=2.11D-07 DE= 5.68D-14 OVMax= 3.66D-07

 SCF Done:  E(RPBE+HF-PBE) =  -225.874838953     A.U. after   13 cycles
             Convg  =    0.8878D-08             -V/T =  2.0007
             S**2   =   0.0000
 KE= 2.257120715374D+02 PE=-8.740994282895D+02 EE= 2.487733432146D+02
 Leave Link  502 at Mon Jun 20 07:11:31 2011, MaxMem=   24000000 cpu:       7.6
 (Enter /usr/local/gaussian03-rev-E01-64/g03/l601.exe)
 Copying SCF densities to generalized density rwf, ISCF=0 IROHF=0.

 **********************************************************************

            Population analysis using the SCF density.

 **********************************************************************

 Orbital symmetries:
       Occupied  (A') (A') (A') (A') (A') (A') (A') (A') (A') (A')
                 (A') (A") (A') (A') (A') (A') (A") (A")
       Virtual   (A") (A') (A") (A') (A') (A') (A') (A') (A') (A')
                 (A') (A') (A") (A") (A') (A') (A") (A') (A') (A')
                 (A") (A') (A") (A') (A') (A') (A') (A') (A') (A')
                 (A') (A') (A") (A") (A') (A") (A') (A') (A") (A")
                 (A') (A') (A') (A') (A') (A') (A") (A") (A') (A")
                 (A') (A") (A') (A') (A") (A') (A') (A') (A') (A')
                 (A') (A') (A') (A') (A')
 The electronic state is 1-A'.
 Alpha  occ. eigenvalues --  -14.46660 -14.38472 -10.23159 -10.21148 -10.18697
 Alpha  occ. eigenvalues --   -1.14019  -0.86583  -0.82354  -0.66309  -0.63419
 Alpha  occ. eigenvalues --   -0.58014  -0.48873  -0.48708  -0.44808  -0.40813
 Alpha  occ. eigenvalues --   -0.27776  -0.27712  -0.25272
 Alpha virt. eigenvalues --    0.06220   0.11240   0.11479   0.17679   0.19712
 Alpha virt. eigenvalues --    0.22207   0.27324   0.28949   0.33437   0.41323
 Alpha virt. eigenvalues --    0.51942   0.55619   0.55973   0.61543   0.62383
 Alpha virt. eigenvalues --    0.64292   0.67621   0.70239   0.73850   0.74298
 Alpha virt. eigenvalues --    0.76214   0.84235   0.85377   0.87753   0.89830
 Alpha virt. eigenvalues --    0.93302   0.96169   0.99283   1.02703   1.09536
 Alpha virt. eigenvalues --    1.25987   1.29221   1.29367   1.38596   1.39096
 Alpha virt. eigenvalues --    1.41708   1.55268   1.56497   1.59622   1.62319
 Alpha virt. eigenvalues --    1.81355   1.98678   2.12463   2.17259   2.23299
 Alpha virt. eigenvalues --    2.29313   2.29549   2.29898   2.41210   2.42509
 Alpha virt. eigenvalues --    2.45497   2.49803   2.64603   2.70854   2.74282
 Alpha virt. eigenvalues --    2.78465   2.84830   3.07862   3.23569   3.29922
 Alpha virt. eigenvalues --    3.89045   4.09084   4.19597   4.33483   4.49701
          Condensed to atoms (all electrons):
              1          2          3          4          5          6
     1  H    0.533162   0.372986  -0.001234  -0.036921  -0.000323   0.004509
     2  C    0.372986   5.041683  -0.061502   0.575173   0.007621  -0.017754
     3  H   -0.001234  -0.061502   0.567300   0.378869  -0.003172  -0.050581
     4  C   -0.036921   0.575173   0.378869   4.883342  -0.065049   0.572742
     5  H   -0.000323   0.007621  -0.003172  -0.065049   0.542668   0.401419
     6  C    0.004509  -0.017754  -0.050581   0.572742   0.401419   4.735794
     7  N    0.008211  -0.203404   0.012733  -0.025946  -0.052820   0.511707
     8  H   -0.001645  -0.058983  -0.000106   0.007607  -0.000133   0.008000
     9  N   -0.052440   0.300398   0.008632  -0.025295   0.008157  -0.193996
              7          8          9
     1  H    0.008211  -0.001645  -0.052440
     2  C   -0.203404  -0.058983   0.300398
     3  H    0.012733  -0.000106   0.008632
     4  C   -0.025946   0.007607  -0.025295
     5  H   -0.052820  -0.000133   0.008157
     6  C    0.511707   0.008000  -0.193996
     7  N    6.712225  -0.046329   0.370345
     8  H   -0.046329   0.371450   0.364633
     9  N    0.370345   0.364633   6.580155
 Mulliken atomic charges:
              1
     1  H    0.173694
     2  C    0.043782
     3  H    0.149061
     4  C   -0.264523
     5  H    0.161631
     6  C    0.028161
     7  N   -0.286723
     8  H    0.355506
     9  N   -0.360590
 Sum of Mulliken charges=   0.00000
 Atomic charges with hydrogens summed into heavy atoms:
              1
     1  H    0.000000
     2  C    0.217477
     3  H    0.000000
     4  C   -0.115462
     5  H    0.000000
     6  C    0.189791
     7  N   -0.286723
     8  H    0.000000
     9  N   -0.005083
 Sum of Mulliken charges=   0.00000
 Electronic spatial extent (au):  <R**2>=   257.6073
 Charge=     0.0000 electrons
 Dipole moment (field-independent basis, Debye):
    X=     2.0371    Y=     1.0168    Z=     0.0000  Tot=     2.2767
 Quadrupole moment (field-independent basis, Debye-Ang):
   XX=   -29.3518   YY=   -21.5421   ZZ=   -30.1472
   XY=     2.4109   XZ=     0.0000   YZ=     0.0000
 Traceless Quadrupole moment (field-independent basis, Debye-Ang):
   XX=    -2.3381   YY=     5.4716   ZZ=    -3.1335
   XY=     2.4109   XZ=     0.0000   YZ=     0.0000
 Octapole moment (field-independent basis, Debye-Ang**2):
  XXX=     7.9561  YYY=    11.1144  ZZZ=     0.0000  XYY=     0.4698
  XXY=    -2.1935  XXZ=     0.0000  XZZ=    -0.7053  YZZ=     1.9103
  YYZ=     0.0000  XYZ=     0.0000
 Hexadecapole moment (field-independent basis, Debye-Ang**3):
 XXXX=  -148.8104 YYYY=  -119.2776 ZZZZ=   -28.5666 XXXY=     6.5011
 XXXZ=     0.0000 YYYX=    -0.0193 YYYZ=     0.0000 ZZZX=     0.0000
 ZZZY=     0.0000 XXYY=   -46.5325 XXZZ=   -31.7507 YYZZ=   -31.7707
 XXYZ=     0.0000 YYXZ=     0.0000 ZZXY=    -0.3013
 N-N= 1.737391745845D+02 E-N=-8.740994317169D+02  KE= 2.257120715374D+02
 Symmetry A'   KE= 2.174406239331D+02
 Symmetry A"   KE= 8.271447604277D+00
 No NMR shielding tensors so no spin-rotation constants.
 Leave Link  601 at Mon Jun 20 07:11:31 2011, MaxMem=   24000000 cpu:       0.1
 (Enter /usr/local/gaussian03-rev-E01-64/g03/l701.exe)
 Compute integral first derivatives.
 ... and contract with generalized density number  0.
 Leave Link  701 at Mon Jun 20 07:11:31 2011, MaxMem=   24000000 cpu:       0.1
 (Enter /usr/local/gaussian03-rev-E01-64/g03/l702.exe)
 L702 exits ... SP integral derivatives will be done elsewhere.
 Leave Link  702 at Mon Jun 20 07:11:32 2011, MaxMem=   24000000 cpu:       0.0
 (Enter /usr/local/gaussian03-rev-E01-64/g03/l703.exe)
 Compute integral first derivatives, UseDBF=F.
 Integral derivatives from FoFDir, PRISM(SPDF).
 Petite list used in FoFDir.
 MinBra= 0 MaxBra= 2 Meth= 1.
 IRaf=       0 NMat=   1 IRICut=       1 DoRegI=T DoRafI=F ISym2E= 1 JSym2E=1.
 Leave Link  703 at Mon Jun 20 07:11:35 2011, MaxMem=   24000000 cpu:       3.1
 (Enter /usr/local/gaussian03-rev-E01-64/g03/l716.exe)
 Dipole        = 8.01449560D-01 4.00036053D-01-2.08745803D-31
 ***** Axes restored to original set *****
 -------------------------------------------------------------------
 Center     Atomic                   Forces (Hartrees/Bohr)
 Number     Number              X              Y              Z
 -------------------------------------------------------------------
    1          1          -0.078905627    0.000000000   -0.040346326
    2          6          -0.012961726    0.000000000   -0.050133656
    3          1           0.022416993    0.000000000   -0.085189850
    4          6          -0.014007967    0.000000000   -0.038534058
    5          1           0.086008830    0.000000000    0.011511613
    6          6          -0.000856372    0.000000000    0.021706442
    7          7           0.085550358    0.000000000    0.134102094
    8          1          -0.057997094    0.000000000    0.060434023
    9          7          -0.029247394    0.000000000   -0.013550281
 -------------------------------------------------------------------
 Cartesian Forces:  Max     0.134102094 RMS     0.047662149
 Leave Link  716 at Mon Jun 20 07:11:35 2011, MaxMem=   24000000 cpu:       0.0
 (Enter /usr/local/gaussian03-rev-E01-64/g03/l103.exe)

 GradGradGradGradGradGradGradGradGradGradGradGradGradGradGradGradGradGrad
 Berny optimization.
 Internal  Forces:  Max     0.125341977 RMS     0.047122074
 Search for a local minimum.
 Step number   1 out of a maximum of  48
 All quantities printed in internal units (Hartrees-Bohrs-Radians)
 Second derivative matrix not updated -- first step.
     Eigenvalues ---    0.03204   0.03245   0.03263   0.03273   0.03342
     Eigenvalues ---    0.03375   0.16000   0.16000   0.16000   0.16000
     Eigenvalues ---    0.22000   0.22938   0.49374   0.49681   0.49740
     Eigenvalues ---    0.56490   0.56686   0.60708   0.68179   0.73042
     Eigenvalues ---    0.827791000.000001000.000001000.000001000.00000
     Eigenvalues --- 1000.000001000.000001000.000001000.000001000.00000
     Eigenvalues --- 1000.000001000.000001000.000001000.000001000.00000
     Eigenvalues --- 1000.000001000.000001000.00000
 RFO step:  Lambda=-1.16486151D-01.
 Linear search not attempted -- first point.
 Maximum step size (   0.300) exceeded in Quadratic search.
    -- Step size scaled by   0.722
 Iteration  1 RMS(Cart)=  0.06285689 RMS(Int)=  0.00075841
 Iteration  2 RMS(Cart)=  0.00096291 RMS(Int)=  0.00001787
 Iteration  3 RMS(Cart)=  0.00000067 RMS(Int)=  0.00001786
 Variable       Old X    -DE/DX   Delta X   Delta X   Delta X     New X
                                 (Linear)    (Quad)   (Total)
    R1        1.86889   0.08813   0.00000   0.10382   0.10382   1.97270
    R2        2.49307   0.07627   0.00000   0.07334   0.07336   2.56643
    R3        2.40839   0.10852   0.00000   0.09228   0.09226   2.50066
    R4        1.86829   0.08804   0.00000   0.10361   0.10361   1.97190
    R5        2.47696   0.12534   0.00000   0.11667   0.11669   2.59365
    R6        1.87202   0.08597   0.00000   0.10179   0.10179   1.97381
    R7        2.41851   0.07053   0.00000   0.05993   0.05993   2.47843
    R8        2.34237   0.11738   0.00000   0.08765   0.08762   2.42999
    R9        1.77084   0.08293   0.00000   0.08280   0.08280   1.85364
    A1        2.20252   0.01397   0.00000   0.03421   0.03420   2.23672
    A2        2.21295  -0.00352   0.00000  -0.01148  -0.01149   2.20147
    A3        1.86771  -0.01045   0.00000  -0.02272  -0.02271   1.84500
    A4        2.22327  -0.00239   0.00000  -0.00199  -0.00201   2.22125
    A5        1.83976  -0.00089   0.00000  -0.01087  -0.01082   1.82894
    A6        2.22016   0.00329   0.00000   0.01286   0.01283   2.23299
    A7        2.19731   0.00140   0.00000   0.01139   0.01138   2.20869
    A8        1.89479   0.01924   0.00000   0.03483   0.03485   1.92964
    A9        2.19108  -0.02064   0.00000  -0.04622  -0.04623   2.14485
   A10        1.88850  -0.02620   0.00000  -0.04729  -0.04734   1.84116
   A11        1.93402   0.01830   0.00000   0.04605   0.04602   1.98003
   A12        2.17185   0.00129   0.00000   0.00425   0.00427   2.17611
   A13        2.17732  -0.01959   0.00000  -0.05030  -0.05028   2.12704
    D1        0.00000   0.00000   0.00000   0.00000   0.00000   0.00000
    D2        3.14159   0.00000   0.00000   0.00000   0.00000   3.14159
    D3        3.14159   0.00000   0.00000   0.00000   0.00000   3.14159
    D4        0.00000   0.00000   0.00000   0.00000   0.00000   0.00000
    D5        3.14159   0.00000   0.00000   0.00000   0.00000   3.14159
    D6        0.00000   0.00000   0.00000   0.00000   0.00000   0.00000
    D7        0.00000   0.00000   0.00000   0.00000   0.00000   0.00000
    D8        3.14159   0.00000   0.00000   0.00000   0.00000   3.14159
    D9        3.14159   0.00000   0.00000   0.00000   0.00000   3.14159
   D10        0.00000   0.00000   0.00000   0.00000   0.00000   0.00000
   D11        0.00000   0.00000   0.00000   0.00000   0.00000   0.00000
   D12        3.14159   0.00000   0.00000   0.00000   0.00000   3.14159
   D13        0.00000   0.00000   0.00000   0.00000   0.00000   0.00000
   D14        3.14159   0.00000   0.00000   0.00000   0.00000   3.14159
   D15        0.00000   0.00000   0.00000   0.00000   0.00000   0.00000
   D16        3.14159   0.00000   0.00000   0.00000   0.00000   3.14159
         Item               Value     Threshold  Converged?
 Maximum Force            0.125342     0.000450     NO 
 RMS     Force            0.047122     0.000300     NO 
 Maximum Displacement     0.180583     0.001800     NO 
 RMS     Displacement     0.062825     0.001200     NO 
 Predicted change in Energy=-5.900002D-02
 GradGradGradGradGradGradGradGradGradGradGradGradGradGradGradGradGradGrad

 Leave Link  103 at Mon Jun 20 07:11:35 2011, MaxMem=   24000000 cpu:       0.5
 (Enter /usr/local/gaussian03-rev-E01-64/g03/l202.exe)
                          Input orientation:                          
 ---------------------------------------------------------------------
 Center     Atomic     Atomic              Coordinates (Angstroms)
 Number     Number      Type              X           Y           Z
 ---------------------------------------------------------------------
    1          1             0       -2.008060    0.000000   -0.795986
    2          6             0       -1.117295    0.000000   -0.251665
    3          1             0        0.457971    0.000000   -1.724129
    4          6             0        0.155481    0.000000   -0.725449
    5          1             0        1.991003    0.000000    0.420411
    6          6             0        0.946795    0.000000    0.395972
    7          7             0        0.209006    0.000000    1.480306
    8          1             0       -1.766813    0.000000    1.689626
    9          7             0       -1.008712    0.000000    1.067164
 ---------------------------------------------------------------------
                    Distance matrix (angstroms):
                    1          2          3          4          5
     1  H    0.000000
     2  C    1.043910   0.000000
     3  H    2.634912   2.156297   0.000000
     4  C    2.164691   1.358099   1.043486   0.000000
     5  H    4.179967   3.180126   2.636141   2.163823   0.000000
     6  C    3.186210   2.163308   2.175725   1.372502   1.044494
     7  N    3.177560   2.181467   3.214093   2.206404   2.073377
     8  H    2.497293   2.047067   4.074726   3.086714   3.966369
     9  N    2.114243   1.323291   3.153169   2.137476   3.068644
                    6          7          8          9
     6  C    0.000000
     7  N    1.311531   0.000000
     8  H    3.006195   1.986875   0.000000
     9  N    2.067488   1.285894   0.980906   0.000000
 Stoichiometry    C3H4N2
 Framework group  CS[SG(C3H4N2)]
 Deg. of freedom    15
 Full point group                 CS
 Largest Abelian subgroup         CS      NOp   2
 Largest concise Abelian subgroup C1      NOp   1
                         Standard orientation:                         
 ---------------------------------------------------------------------
 Center     Atomic     Atomic              Coordinates (Angstroms)
 Number     Number      Type              X           Y           Z
 ---------------------------------------------------------------------
    1          1             0        2.070511    0.632817    0.000000
    2          6             0        1.081652    0.298294    0.000000
    3          1             0        1.201505   -1.854669    0.000000
    4          6             0        0.629107   -0.982188    0.000000
    5          1             0       -1.427137   -1.655978    0.000000
    6          6             0       -0.738831   -0.870356    0.000000
    7          7             0       -1.097841    0.391082    0.000000
    8          1             0        0.008440    2.041481    0.000000
    9          7             0        0.000000    1.060611    0.000000
 ---------------------------------------------------------------------
 Rotational constants (GHZ):     10.1457184      9.9808191      5.0312966
 Leave Link  202 at Mon Jun 20 07:11:36 2011, MaxMem=   24000000 cpu:       0.0
 (Enter /usr/local/gaussian03-rev-E01-64/g03/l301.exe)
 Standard basis: 6-31G(d) (6D, 7F)
 There are    63 symmetry adapted basis functions of A'  symmetry.
 There are    20 symmetry adapted basis functions of A"  symmetry.
 Integral buffers will be    131072 words long.
 Raffenetti 2 integral format.
 Two-electron integral symmetry is turned on.
    83 basis functions,   156 primitive gaussians,    83 cartesian basis functions
    18 alpha electrons       18 beta electrons
       nuclear repulsion energy       167.5327910824 Hartrees.
 IExCor=1009 DFT=T Ex=PBE+HF Corr=PBE ExCW=0 ScaHFX=  0.250000
 ScaDFX=  0.750000  0.750000  1.000000  1.000000
 IRadAn=      0 IRanWt=     -1 IRanGd=            0 ICorTp=0
 NAtoms=    9 NActive=    9 NUniq=    9 SFac= 7.50D-01 NAtFMM=   80 NAOKFM=F Big=F
 Leave Link  301 at Mon Jun 20 07:11:36 2011, MaxMem=   24000000 cpu:       0.0
 (Enter /usr/local/gaussian03-rev-E01-64/g03/l302.exe)
 NPDir=0 NMtPBC=     1 NCelOv=     1 NCel=       1 NClECP=     1 NCelD=      1
         NCelK=      1 NCelE2=     1 NClLst=     1 CellRange=     0.0.
 One-electron integrals computed using PRISM.
 NBasis=    83 RedAO= T  NBF=    63    20
 NBsUse=    83 1.00D-06 NBFU=    63    20
 Precomputing XC quadrature grid using
 IXCGrd= 2 IRadAn=           0 IRanWt=          -1 IRanGd=           0.
 NRdTot=     555 NPtTot=       69836 NUsed=       73758 NTot=       73790
 NSgBfM=    83    83    83    83.
 Leave Link  302 at Mon Jun 20 07:11:36 2011, MaxMem=   24000000 cpu:       0.2
 (Enter /usr/local/gaussian03-rev-E01-64/g03/l303.exe)
 DipDrv:  MaxL=1.
 Leave Link  303 at Mon Jun 20 07:11:36 2011, MaxMem=   24000000 cpu:       0.0
 (Enter /usr/local/gaussian03-rev-E01-64/g03/l401.exe)
 Initial guess read from the read-write file:
 Guess basis will be translated and rotated to current coordinates.
 Initial guess orbital symmetries:
       Occupied  (A') (A') (A') (A') (A') (A') (A') (A') (A') (A')
                 (A') (A") (A') (A') (A') (A') (A") (A")
       Virtual   (A") (A') (A") (A') (A') (A') (A') (A') (A') (A')
                 (A') (A') (A") (A") (A') (A') (A") (A') (A') (A')
                 (A") (A') (A") (A') (A') (A') (A') (A') (A') (A')
                 (A') (A') (A") (A") (A') (A") (A') (A') (A") (A")
                 (A') (A') (A') (A') (A') (A') (A") (A") (A') (A")
                 (A') (A") (A') (A') (A") (A') (A') (A') (A') (A')
                 (A') (A') (A') (A') (A')
 The electronic state of the initial guess is 1-A'.
 Generating alternative initial guess.
 Harris functional with IExCor= 1009 diagonalized for initial guess.
 ExpMin= 1.61D-01 ExpMax= 4.17D+03 ExpMxC= 6.27D+02 IAcc=1 IRadAn=         1 AccDes= 1.00D-06
 HarFok:  IExCor=1009 AccDes= 1.00D-06 IRadAn=         1 IDoV=1
 ScaDFX=  1.000000  1.000000  1.000000  1.000000
 Harris En= -226.075248476970    
 Leave Link  401 at Mon Jun 20 07:11:37 2011, MaxMem=   24000000 cpu:       0.2
 (Enter /usr/local/gaussian03-rev-E01-64/g03/l502.exe)
 Closed shell SCF:
 Requested convergence on RMS density matrix=1.00D-08 within 128 cycles.
 Requested convergence on MAX density matrix=1.00D-06.
 Requested convergence on             energy=1.00D-06.
 No special actions if energy rises.
 Using DIIS extrapolation, IDIIS=  1040.
 Integral symmetry usage will be decided dynamically.
        73757 words used for storage of precomputed grid.
 Keep R1 integrals in memory in canonical form, NReq=     7915306.
 IEnd=    116005 IEndB=    116005 NGot=  24000000 MDV=  17829753
 LenX=  17829753
 Symmetry not used in FoFDir.
 MinBra= 0 MaxBra= 2 Meth= 1.
 IRaf=       0 NMat=   1 IRICut=       1 DoRegI=T DoRafI=F ISym2E= 0 JSym2E=0.
 Integral accuracy reduced to 1.0D-05 until final iterations.

 Cycle   1  Pass 0  IDiag  1:
 E= -225.923931980845    
 DIIS: error= 5.90D-03 at cycle   1 NSaved=   1.
 NSaved= 1 IEnMin= 1 EnMin= -225.923931980845     IErMin= 1 ErrMin= 5.90D-03
 ErrMax= 5.90D-03 EMaxC= 1.00D-01 BMatC= 4.90D-03 BMatP= 4.90D-03
 IDIUse=3 WtCom= 9.41D-01 WtEn= 5.90D-02
 Coeff-Com:  0.100D+01
 Coeff-En:   0.100D+01
 Coeff:      0.100D+01
 Gap=     0.303 Goal=   None    Shift=    0.000
 GapD=    0.303 DampG=1.000 DampE=1.000 DampFc=1.0000 IDamp=-1.
 RMSDP=1.85D-03 MaxDP=2.29D-02              OVMax= 2.05D-02

 Cycle   2  Pass 0  IDiag  1:
 E= -225.928724786816     Delta-E=       -0.004792805971 Rises=F Damp=F
 DIIS: error= 3.51D-03 at cycle   2 NSaved=   2.
 NSaved= 2 IEnMin= 2 EnMin= -225.928724786816     IErMin= 2 ErrMin= 3.51D-03
 ErrMax= 3.51D-03 EMaxC= 1.00D-01 BMatC= 1.40D-03 BMatP= 4.90D-03
 IDIUse=3 WtCom= 9.65D-01 WtEn= 3.51D-02
 Coeff-Com:  0.303D+00 0.697D+00
 Coeff-En:   0.000D+00 0.100D+01
 Coeff:      0.293D+00 0.707D+00
 Gap=     0.300 Goal=   None    Shift=    0.000
 RMSDP=6.81D-04 MaxDP=7.89D-03 DE=-4.79D-03 OVMax= 1.53D-02

 Cycle   3  Pass 0  IDiag  1:
 E= -225.929645210463     Delta-E=       -0.000920423646 Rises=F Damp=F
 DIIS: error= 2.43D-03 at cycle   3 NSaved=   3.
 NSaved= 3 IEnMin= 3 EnMin= -225.929645210463     IErMin= 3 ErrMin= 2.43D-03
 ErrMax= 2.43D-03 EMaxC= 1.00D-01 BMatC= 4.76D-04 BMatP= 1.40D-03
 IDIUse=3 WtCom= 9.76D-01 WtEn= 2.43D-02
 Coeff-Com:  0.336D-01 0.366D+00 0.600D+00
 Coeff-En:   0.000D+00 0.216D+00 0.784D+00
 Coeff:      0.327D-01 0.363D+00 0.605D+00
 Gap=     0.300 Goal=   None    Shift=    0.000
 RMSDP=2.98D-04 MaxDP=5.93D-03 DE=-9.20D-04 OVMax= 9.91D-03

 Cycle   4  Pass 0  IDiag  1:
 E= -225.929998309083     Delta-E=       -0.000353098620 Rises=F Damp=F
 DIIS: error= 1.18D-03 at cycle   4 NSaved=   4.
 NSaved= 4 IEnMin= 4 EnMin= -225.929998309083     IErMin= 4 ErrMin= 1.18D-03
 ErrMax= 1.18D-03 EMaxC= 1.00D-01 BMatC= 7.08D-05 BMatP= 4.76D-04
 IDIUse=3 WtCom= 9.88D-01 WtEn= 1.18D-02
 Coeff-Com: -0.602D-02 0.160D+00 0.358D+00 0.488D+00
 Coeff-En:   0.000D+00 0.000D+00 0.600D-01 0.940D+00
 Coeff:     -0.595D-02 0.158D+00 0.354D+00 0.494D+00
 Gap=     0.300 Goal=   None    Shift=    0.000
 RMSDP=1.11D-04 MaxDP=2.60D-03 DE=-3.53D-04 OVMax= 4.11D-03

 Cycle   5  Pass 0  IDiag  1:
 E= -225.930058606307     Delta-E=       -0.000060297225 Rises=F Damp=F
 DIIS: error= 2.00D-04 at cycle   5 NSaved=   5.
 NSaved= 5 IEnMin= 5 EnMin= -225.930058606307     IErMin= 5 ErrMin= 2.00D-04
 ErrMax= 2.00D-04 EMaxC= 1.00D-01 BMatC= 2.68D-06 BMatP= 7.08D-05
 IDIUse=3 WtCom= 9.98D-01 WtEn= 2.00D-03
 Coeff-Com: -0.482D-02 0.357D-01 0.946D-01 0.222D+00 0.653D+00
 Coeff-En:   0.000D+00 0.000D+00 0.000D+00 0.000D+00 0.100D+01
 Coeff:     -0.481D-02 0.356D-01 0.944D-01 0.221D+00 0.653D+00
 Gap=     0.300 Goal=   None    Shift=    0.000
 RMSDP=2.48D-05 MaxDP=3.89D-04 DE=-6.03D-05 OVMax= 8.12D-04

 Cycle   6  Pass 0  IDiag  1:
 E= -225.930060934558     Delta-E=       -0.000002328251 Rises=F Damp=F
 DIIS: error= 7.24D-05 at cycle   6 NSaved=   6.
 NSaved= 6 IEnMin= 6 EnMin= -225.930060934558     IErMin= 6 ErrMin= 7.24D-05
 ErrMax= 7.24D-05 EMaxC= 1.00D-01 BMatC= 3.14D-07 BMatP= 2.68D-06
 IDIUse=1 WtCom= 1.00D+00 WtEn= 0.00D+00
 Coeff-Com: -0.251D-02 0.107D-01 0.326D-01 0.952D-01 0.364D+00 0.500D+00
 Coeff:     -0.251D-02 0.107D-01 0.326D-01 0.952D-01 0.364D+00 0.500D+00
 Gap=     0.300 Goal=   None    Shift=    0.000
 RMSDP=6.07D-06 MaxDP=1.52D-04 DE=-2.33D-06 OVMax= 1.82D-04

 Initial convergence to 1.0D-05 achieved.  Increase integral accuracy.
 Cycle   7  Pass 1  IDiag  1:
 E= -225.930066962102     Delta-E=       -0.000006027544 Rises=F Damp=F
 DIIS: error= 1.68D-05 at cycle   1 NSaved=   1.
 NSaved= 1 IEnMin= 1 EnMin= -225.930066962102     IErMin= 1 ErrMin= 1.68D-05
 ErrMax= 1.68D-05 EMaxC= 1.00D-01 BMatC= 1.76D-08 BMatP= 1.76D-08
 IDIUse=1 WtCom= 1.00D+00 WtEn= 0.00D+00
 Coeff-Com:  0.100D+01
 Coeff:      0.100D+01
 Gap=     0.300 Goal=   None    Shift=    0.000
 RMSDP=6.07D-06 MaxDP=1.52D-04 DE=-6.03D-06 OVMax= 1.36D-04

 Cycle   8  Pass 1  IDiag  1:
 E= -225.930066951790     Delta-E=        0.000000010312 Rises=F Damp=F
 DIIS: error= 2.40D-05 at cycle   2 NSaved=   2.
 NSaved= 2 IEnMin= 1 EnMin= -225.930066962102     IErMin= 1 ErrMin= 1.68D-05
 ErrMax= 2.40D-05 EMaxC= 1.00D-01 BMatC= 3.10D-08 BMatP= 1.76D-08
 IDIUse=1 WtCom= 1.00D+00 WtEn= 0.00D+00
 Coeff-Com:  0.580D+00 0.420D+00
 Coeff:      0.580D+00 0.420D+00
 Gap=     0.300 Goal=   None    Shift=    0.000
 RMSDP=2.20D-06 MaxDP=4.70D-05 DE= 1.03D-08 OVMax= 7.85D-05

 Cycle   9  Pass 1  IDiag  1:
 E= -225.930066979230     Delta-E=       -0.000000027440 Rises=F Damp=F
 DIIS: error= 3.89D-06 at cycle   3 NSaved=   3.
 NSaved= 3 IEnMin= 3 EnMin= -225.930066979230     IErMin= 3 ErrMin= 3.89D-06
 ErrMax= 3.89D-06 EMaxC= 1.00D-01 BMatC= 8.63D-10 BMatP= 1.76D-08
 IDIUse=1 WtCom= 1.00D+00 WtEn= 0.00D+00
 Coeff-Com:  0.305D-01 0.143D+00 0.826D+00
 Coeff:      0.305D-01 0.143D+00 0.826D+00
 Gap=     0.300 Goal=   None    Shift=    0.000
 RMSDP=4.27D-07 MaxDP=7.16D-06 DE=-2.74D-08 OVMax= 1.64D-05

 Cycle  10  Pass 1  IDiag  1:
 E= -225.930066979980     Delta-E=       -0.000000000750 Rises=F Damp=F
 DIIS: error= 1.05D-06 at cycle   4 NSaved=   4.
 NSaved= 4 IEnMin= 4 EnMin= -225.930066979980     IErMin= 4 ErrMin= 1.05D-06
 ErrMax= 1.05D-06 EMaxC= 1.00D-01 BMatC= 1.08D-10 BMatP= 8.63D-10
 IDIUse=1 WtCom= 1.00D+00 WtEn= 0.00D+00
 Coeff-Com: -0.865D-02 0.478D-01 0.397D+00 0.564D+00
 Coeff:     -0.865D-02 0.478D-01 0.397D+00 0.564D+00
 Gap=     0.300 Goal=   None    Shift=    0.000
 RMSDP=1.51D-07 MaxDP=3.44D-06 DE=-7.50D-10 OVMax= 5.23D-06

 Cycle  11  Pass 1  IDiag  1:
 E= -225.930066980064     Delta-E=       -0.000000000084 Rises=F Damp=F
 DIIS: error= 5.60D-07 at cycle   5 NSaved=   5.
 NSaved= 5 IEnMin= 5 EnMin= -225.930066980064     IErMin= 5 ErrMin= 5.60D-07
 ErrMax= 5.60D-07 EMaxC= 1.00D-01 BMatC= 1.68D-11 BMatP= 1.08D-10
 IDIUse=1 WtCom= 1.00D+00 WtEn= 0.00D+00
 Coeff-Com: -0.782D-02 0.130D-01 0.153D+00 0.333D+00 0.509D+00
 Coeff:     -0.782D-02 0.130D-01 0.153D+00 0.333D+00 0.509D+00
 Gap=     0.300 Goal=   None    Shift=    0.000
 RMSDP=5.48D-08 MaxDP=1.16D-06 DE=-8.39D-11 OVMax= 1.95D-06

 Cycle  12  Pass 1  IDiag  1:
 E= -225.930066980078     Delta-E=       -0.000000000014 Rises=F Damp=F
 DIIS: error= 1.04D-07 at cycle   6 NSaved=   6.
 NSaved= 6 IEnMin= 6 EnMin= -225.930066980078     IErMin= 6 ErrMin= 1.04D-07
 ErrMax= 1.04D-07 EMaxC= 1.00D-01 BMatC= 9.84D-13 BMatP= 1.68D-11
 IDIUse=1 WtCom= 1.00D+00 WtEn= 0.00D+00
 Coeff-Com: -0.323D-02-0.126D-03 0.308D-01 0.109D+00 0.251D+00 0.613D+00
 Coeff:     -0.323D-02-0.126D-03 0.308D-01 0.109D+00 0.251D+00 0.613D+00
 Gap=     0.300 Goal=   None    Shift=    0.000
 RMSDP=1.31D-08 MaxDP=2.61D-07 DE=-1.40D-11 OVMax= 4.52D-07

 Cycle  13  Pass 1  IDiag  1:
 E= -225.930066980079     Delta-E=       -0.000000000001 Rises=F Damp=F
 DIIS: error= 3.10D-08 at cycle   7 NSaved=   7.
 NSaved= 7 IEnMin= 7 EnMin= -225.930066980079     IErMin= 7 ErrMin= 3.10D-08
 ErrMax= 3.10D-08 EMaxC= 1.00D-01 BMatC= 5.04D-14 BMatP= 9.84D-13
 IDIUse=1 WtCom= 1.00D+00 WtEn= 0.00D+00
 Coeff-Com: -0.288D-04-0.164D-02-0.570D-02 0.787D-03 0.210D-01 0.194D+00
 Coeff-Com:  0.791D+00
 Coeff:     -0.288D-04-0.164D-02-0.570D-02 0.787D-03 0.210D-01 0.194D+00
 Coeff:      0.791D+00
 Gap=     0.300 Goal=   None    Shift=    0.000
 RMSDP=4.22D-09 MaxDP=9.42D-08 DE=-1.25D-12 OVMax= 1.91D-07

 SCF Done:  E(RPBE+HF-PBE) =  -225.930066980     A.U. after   13 cycles
             Convg  =    0.4223D-08             -V/T =  2.0058
             S**2   =   0.0000
 KE= 2.246324538654D+02 PE=-8.609917665490D+02 EE= 2.428964546212D+02
 Leave Link  502 at Mon Jun 20 07:11:44 2011, MaxMem=   24000000 cpu:       6.7
 (Enter /usr/local/gaussian03-rev-E01-64/g03/l701.exe)
 Compute integral first derivatives.
 ... and contract with generalized density number  0.
 Leave Link  701 at Mon Jun 20 07:11:44 2011, MaxMem=   24000000 cpu:       0.1
 (Enter /usr/local/gaussian03-rev-E01-64/g03/l702.exe)
 L702 exits ... SP integral derivatives will be done elsewhere.
 Leave Link  702 at Mon Jun 20 07:11:44 2011, MaxMem=   24000000 cpu:       0.0
 (Enter /usr/local/gaussian03-rev-E01-64/g03/l703.exe)
 Compute integral first derivatives, UseDBF=F.
 Integral derivatives from FoFDir, PRISM(SPDF).
 Petite list used in FoFDir.
 MinBra= 0 MaxBra= 2 Meth= 1.
 IRaf=       0 NMat=   1 IRICut=       1 DoRegI=T DoRafI=F ISym2E= 1 JSym2E=1.
 Leave Link  703 at Mon Jun 20 07:11:47 2011, MaxMem=   24000000 cpu:       3.1
 (Enter /usr/local/gaussian03-rev-E01-64/g03/l716.exe)
 Dipole        = 8.31924385D-01 3.73238578D-01-1.38511734D-32
 ***** Axes restored to original set *****
 -------------------------------------------------------------------
 Center     Atomic                   Forces (Hartrees/Bohr)
 Number     Number              X              Y              Z
 -------------------------------------------------------------------
    1          1          -0.029340626    0.000000000   -0.009269927
    2          6           0.004451934    0.000000000   -0.019710390
    3          1           0.008007630    0.000000000   -0.029112803
    4          6          -0.003277868    0.000000000   -0.009370754
    5          1           0.029960467    0.000000000    0.007052912
    6          6          -0.002707293    0.000000000    0.000631751
    7          7           0.038769471    0.000000000    0.047117213
    8          1          -0.017010200    0.000000000    0.022782470
    9          7          -0.028853516    0.000000000   -0.010120473
 -------------------------------------------------------------------
 Cartesian Forces:  Max     0.047117213 RMS     0.018039975
 Leave Link  716 at Mon Jun 20 07:11:48 2011, MaxMem=   24000000 cpu:       0.0
 (Enter /usr/local/gaussian03-rev-E01-64/g03/l103.exe)

 GradGradGradGradGradGradGradGradGradGradGradGradGradGradGradGradGradGrad
 Berny optimization.
 Internal  Forces:  Max     0.049056954 RMS     0.016452067
 Search for a local minimum.
 Step number   2 out of a maximum of  48
 All quantities printed in internal units (Hartrees-Bohrs-Radians)
 Update second derivatives using D2CorX and points  1  2
 Trust test= 9.36D-01 RLast= 3.00D-01 DXMaxT set to 4.24D-01
     Eigenvalues ---    0.03204   0.03247   0.03260   0.03273   0.03343
     Eigenvalues ---    0.03374   0.15886   0.16000   0.16000   0.16027
     Eigenvalues ---    0.22015   0.23701   0.49451   0.49711   0.51339
     Eigenvalues ---    0.57105   0.58120   0.61601   0.68572   0.74231
     Eigenvalues ---    0.810151000.000001000.000001000.000001000.00000
     Eigenvalues --- 1000.000001000.000001000.000001000.000001000.00000
     Eigenvalues --- 1000.000001000.000001000.000001000.000001000.00000
     Eigenvalues --- 1000.000001000.000001000.00000
 RFO step:  Lambda=-2.34690693D-03.
 Quartic linear search produced a step of  0.67117.
 Iteration  1 RMS(Cart)=  0.05000998 RMS(Int)=  0.00120617
 Iteration  2 RMS(Cart)=  0.00139724 RMS(Int)=  0.00002088
 Iteration  3 RMS(Cart)=  0.00000206 RMS(Int)=  0.00002081
 Iteration  4 RMS(Cart)=  0.00000000 RMS(Int)=  0.00002081
 Variable       Old X    -DE/DX   Delta X   Delta X   Delta X     New X
                                 (Linear)    (Quad)   (Total)
    R1        1.97270   0.02987   0.06968   0.00223   0.07190   2.04461
    R2        2.56643   0.02672   0.04924   0.00018   0.04941   2.61584
    R3        2.50066   0.03441   0.06192  -0.00688   0.05500   2.55566
    R4        1.97190   0.03018   0.06954   0.00336   0.07290   2.04480
    R5        2.59365   0.03931   0.07832  -0.01169   0.06666   2.66031
    R6        1.97381   0.03012   0.06832   0.00557   0.07389   2.04770
    R7        2.47843   0.02392   0.04022  -0.00133   0.03892   2.51736
    R8        2.42999   0.04906   0.05881   0.01560   0.07440   2.50438
    R9        1.85364   0.02760   0.05558  -0.00185   0.05372   1.90737
    A1        2.23672   0.00759   0.02295   0.04422   0.06720   2.30392
    A2        2.20147  -0.00700  -0.00771  -0.06016  -0.06785   2.13362
    A3        1.84500  -0.00059  -0.01524   0.01594   0.00065   1.84565
    A4        2.22125  -0.00111  -0.00135   0.00185   0.00049   2.22175
    A5        1.82894   0.00068  -0.00726  -0.00473  -0.01198   1.81697
    A6        2.23299   0.00043   0.00861   0.00288   0.01148   2.24447
    A7        2.20869   0.00305   0.00764   0.03473   0.04234   2.25104
    A8        1.92964   0.00641   0.02339   0.00157   0.02502   1.95466
    A9        2.14485  -0.00946  -0.03103  -0.03631  -0.06736   2.07749
   A10        1.84116  -0.00775  -0.03177   0.00727  -0.02447   1.81669
   A11        1.98003   0.00125   0.03088  -0.02006   0.01078   1.99082
   A12        2.17611   0.00570   0.00286   0.04776   0.05064   2.22676
   A13        2.12704  -0.00695  -0.03375  -0.02770  -0.06143   2.06561
    D1        0.00000   0.00000   0.00000   0.00000   0.00000   0.00000
    D2        3.14159   0.00000   0.00000   0.00000   0.00000   3.14159
    D3        3.14159   0.00000   0.00000   0.00000   0.00000   3.14159
    D4        0.00000   0.00000   0.00000   0.00000   0.00000   0.00000
    D5        3.14159   0.00000   0.00000   0.00000   0.00000   3.14159
    D6        0.00000   0.00000   0.00000   0.00000   0.00000   0.00000
    D7        0.00000   0.00000   0.00000   0.00000   0.00000   0.00000
    D8        3.14159   0.00000   0.00000   0.00000   0.00000   3.14159
    D9        3.14159   0.00000   0.00000   0.00000   0.00000   3.14159
   D10        0.00000   0.00000   0.00000   0.00000   0.00000   0.00000
   D11        0.00000   0.00000   0.00000   0.00000   0.00000   0.00000
   D12        3.14159   0.00000   0.00000   0.00000   0.00000   3.14159
   D13        0.00000   0.00000   0.00000   0.00000   0.00000   0.00000
   D14        3.14159   0.00000   0.00000   0.00000   0.00000   3.14159
   D15        0.00000   0.00000   0.00000   0.00000   0.00000   0.00000
   D16        3.14159   0.00000   0.00000   0.00000   0.00000   3.14159
         Item               Value     Threshold  Converged?
 Maximum Force            0.049057     0.000450     NO 
 RMS     Force            0.016452     0.000300     NO 
 Maximum Displacement     0.152987     0.001800     NO 
 RMS     Displacement     0.049999     0.001200     NO 
 Predicted change in Energy=-7.694623D-03
 GradGradGradGradGradGradGradGradGradGradGradGradGradGradGradGradGradGrad

 Leave Link  103 at Mon Jun 20 07:11:48 2011, MaxMem=   24000000 cpu:       0.0
 (Enter /usr/local/gaussian03-rev-E01-64/g03/l202.exe)
                          Input orientation:                          
 ---------------------------------------------------------------------
 Center     Atomic     Atomic              Coordinates (Angstroms)
 Number     Number      Type              X           Y           Z
 ---------------------------------------------------------------------
    1          1             0       -2.089018    0.000000   -0.788564
    2          6             0       -1.131396    0.000000   -0.284978
    3          1             0        0.484324    0.000000   -1.798797
    4          6             0        0.167235    0.000000   -0.764237
    5          1             0        2.041875    0.000000    0.485046
    6          6             0        0.961792    0.000000    0.397879
    7          7             0        0.223724    0.000000    1.506851
    8          1             0       -1.774077    0.000000    1.739818
    9          7             0       -1.025084    0.000000    1.063232
 ---------------------------------------------------------------------
                    Distance matrix (angstroms):
                    1          2          3          4          5
     1  H    0.000000
     2  C    1.081960   0.000000
     3  H    2.764536   2.214091   0.000000
     4  C    2.256384   1.384244   1.082063   0.000000
     5  H    4.322772   3.265362   2.764399   2.252772   0.000000
     6  C    3.273391   2.201756   2.247968   1.407776   1.083595
     7  N    3.258482   2.246554   3.315904   2.271791   2.085608
     8  H    2.547922   2.124344   4.197877   3.168435   4.016957
     9  N    2.135674   1.352395   3.235664   2.182033   3.120984
                    6          7          8          9
     6  C    0.000000
     7  N    1.332128   0.000000
     8  H    3.047257   2.011338   0.000000
     9  N    2.095322   1.325262   1.009335   0.000000
 Stoichiometry    C3H4N2
 Framework group  CS[SG(C3H4N2)]
 Deg. of freedom    15
 Full point group                 CS
 Largest Abelian subgroup         CS      NOp   2
 Largest concise Abelian subgroup C1      NOp   1
                         Standard orientation:                         
 ---------------------------------------------------------------------
 Center     Atomic     Atomic              Coordinates (Angstroms)
 Number     Number      Type              X           Y           Z
 ---------------------------------------------------------------------
    1          1             0        2.106528    0.724042    0.000000
    2          6             0        1.109883    0.302927    0.000000
    3          1             0        1.255820   -1.906349    0.000000
    4          6             0        0.656952   -1.005119    0.000000
    5          1             0       -1.497796   -1.662422    0.000000
    6          6             0       -0.745479   -0.882552    0.000000
    7          7             0       -1.134928    0.391377    0.000000
    8          1             0       -0.048191    2.083855    0.000000
    9          7             0        0.000000    1.075671    0.000000
 ---------------------------------------------------------------------
 Rotational constants (GHZ):      9.7451719      9.4734166      4.8036865
 Leave Link  202 at Mon Jun 20 07:11:48 2011, MaxMem=   24000000 cpu:       0.0
 (Enter /usr/local/gaussian03-rev-E01-64/g03/l301.exe)
 Standard basis: 6-31G(d) (6D, 7F)
 There are    63 symmetry adapted basis functions of A'  symmetry.
 There are    20 symmetry adapted basis functions of A"  symmetry.
 Integral buffers will be    131072 words long.
 Raffenetti 2 integral format.
 Two-electron integral symmetry is turned on.
    83 basis functions,   156 primitive gaussians,    83 cartesian basis functions
    18 alpha electrons       18 beta electrons
       nuclear repulsion energy       163.6215370350 Hartrees.
 IExCor=1009 DFT=T Ex=PBE+HF Corr=PBE ExCW=0 ScaHFX=  0.250000
 ScaDFX=  0.750000  0.750000  1.000000  1.000000
 IRadAn=      0 IRanWt=     -1 IRanGd=            0 ICorTp=0
 NAtoms=    9 NActive=    9 NUniq=    9 SFac= 7.50D-01 NAtFMM=   80 NAOKFM=F Big=F
 Leave Link  301 at Mon Jun 20 07:11:48 2011, MaxMem=   24000000 cpu:       0.0
 (Enter /usr/local/gaussian03-rev-E01-64/g03/l302.exe)
 NPDir=0 NMtPBC=     1 NCelOv=     1 NCel=       1 NClECP=     1 NCelD=      1
         NCelK=      1 NCelE2=     1 NClLst=     1 CellRange=     0.0.
 One-electron integrals computed using PRISM.
 NBasis=    83 RedAO= T  NBF=    63    20
 NBsUse=    83 1.00D-06 NBFU=    63    20
 Precomputing XC quadrature grid using
 IXCGrd= 2 IRadAn=           0 IRanWt=          -1 IRanGd=           0.
 NRdTot=     555 NPtTot=       69836 NUsed=       73758 NTot=       73790
 NSgBfM=    83    83    83    83.
 Leave Link  302 at Mon Jun 20 07:11:48 2011, MaxMem=   24000000 cpu:       0.2
 (Enter /usr/local/gaussian03-rev-E01-64/g03/l303.exe)
 DipDrv:  MaxL=1.
 Leave Link  303 at Mon Jun 20 07:11:48 2011, MaxMem=   24000000 cpu:       0.0
 (Enter /usr/local/gaussian03-rev-E01-64/g03/l401.exe)
 Initial guess read from the read-write file:
 Guess basis will be translated and rotated to current coordinates.
 Initial guess orbital symmetries:
       Occupied  (A') (A') (A') (A') (A') (A') (A') (A') (A') (A')
                 (A') (A") (A') (A') (A') (A') (A") (A")
       Virtual   (A") (A") (A') (A') (A') (A') (A') (A') (A') (A')
                 (A') (A') (A") (A') (A") (A') (A") (A') (A') (A')
                 (A") (A') (A") (A') (A') (A') (A') (A') (A') (A')
                 (A') (A') (A") (A') (A") (A") (A') (A') (A") (A")
                 (A') (A') (A') (A') (A') (A') (A") (A") (A') (A")
                 (A') (A") (A') (A') (A") (A') (A') (A') (A') (A')
                 (A') (A') (A') (A') (A')
 The electronic state of the initial guess is 1-A'.
 Generating alternative initial guess.
 Harris functional with IExCor= 1009 diagonalized for initial guess.
 ExpMin= 1.61D-01 ExpMax= 4.17D+03 ExpMxC= 6.27D+02 IAcc=1 IRadAn=         1 AccDes= 1.00D-06
 HarFok:  IExCor=1009 AccDes= 1.00D-06 IRadAn=         1 IDoV=1
 ScaDFX=  1.000000  1.000000  1.000000  1.000000
 Harris En= -226.065658885175    
 Leave Link  401 at Mon Jun 20 07:11:49 2011, MaxMem=   24000000 cpu:       0.2
 (Enter /usr/local/gaussian03-rev-E01-64/g03/l502.exe)
 Closed shell SCF:
 Requested convergence on RMS density matrix=1.00D-08 within 128 cycles.
 Requested convergence on MAX density matrix=1.00D-06.
 Requested convergence on             energy=1.00D-06.
 No special actions if energy rises.
 Using DIIS extrapolation, IDIIS=  1040.
 Integral symmetry usage will be decided dynamically.
        73757 words used for storage of precomputed grid.
 Keep R1 integrals in memory in canonical form, NReq=     7915306.
 IEnd=    116005 IEndB=    116005 NGot=  24000000 MDV=  17829753
 LenX=  17829753
 Symmetry not used in FoFDir.
 MinBra= 0 MaxBra= 2 Meth= 1.
 IRaf=       0 NMat=   1 IRICut=       1 DoRegI=T DoRafI=F ISym2E= 0 JSym2E=0.
 Integral accuracy reduced to 1.0D-05 until final iterations.

 Cycle   1  Pass 0  IDiag  1:
 E= -225.937255144723    
 DIIS: error= 4.21D-03 at cycle   1 NSaved=   1.
 NSaved= 1 IEnMin= 1 EnMin= -225.937255144723     IErMin= 1 ErrMin= 4.21D-03
 ErrMax= 4.21D-03 EMaxC= 1.00D-01 BMatC= 2.34D-03 BMatP= 2.34D-03
 IDIUse=3 WtCom= 9.58D-01 WtEn= 4.21D-02
 Coeff-Com:  0.100D+01
 Coeff-En:   0.100D+01
 Coeff:      0.100D+01
 Gap=     0.290 Goal=   None    Shift=    0.000
 GapD=    0.290 DampG=1.000 DampE=1.000 DampFc=1.0000 IDamp=-1.
 RMSDP=1.12D-03 MaxDP=1.18D-02              OVMax= 1.52D-02

 Cycle   2  Pass 0  IDiag  1:
 E= -225.939774208585     Delta-E=       -0.002519063861 Rises=F Damp=F
 DIIS: error= 2.30D-03 at cycle   2 NSaved=   2.
 NSaved= 2 IEnMin= 2 EnMin= -225.939774208585     IErMin= 2 ErrMin= 2.30D-03
 ErrMax= 2.30D-03 EMaxC= 1.00D-01 BMatC= 5.37D-04 BMatP= 2.34D-03
 IDIUse=3 WtCom= 9.77D-01 WtEn= 2.30D-02
 Coeff-Com:  0.266D+00 0.734D+00
 Coeff-En:   0.000D+00 0.100D+01
 Coeff:      0.260D+00 0.740D+00
 Gap=     0.289 Goal=   None    Shift=    0.000
 RMSDP=4.48D-04 MaxDP=5.40D-03 DE=-2.52D-03 OVMax= 1.03D-02

 Cycle   3  Pass 0  IDiag  1:
 E= -225.940085569343     Delta-E=       -0.000311360758 Rises=F Damp=F
 DIIS: error= 1.69D-03 at cycle   3 NSaved=   3.
 NSaved= 3 IEnMin= 3 EnMin= -225.940085569343     IErMin= 3 ErrMin= 1.69D-03
 ErrMax= 1.69D-03 EMaxC= 1.00D-01 BMatC= 2.44D-04 BMatP= 5.37D-04
 IDIUse=3 WtCom= 9.83D-01 WtEn= 1.69D-02
 Coeff-Com:  0.271D-01 0.399D+00 0.574D+00
 Coeff-En:   0.000D+00 0.282D+00 0.718D+00
 Coeff:      0.267D-01 0.397D+00 0.576D+00
 Gap=     0.289 Goal=   None    Shift=    0.000
 RMSDP=2.01D-04 MaxDP=4.01D-03 DE=-3.11D-04 OVMax= 7.06D-03

 Cycle   4  Pass 0  IDiag  1:
 E= -225.940273152169     Delta-E=       -0.000187582826 Rises=F Damp=F
 DIIS: error= 8.23D-04 at cycle   4 NSaved=   4.
 NSaved= 4 IEnMin= 4 EnMin= -225.940273152169     IErMin= 4 ErrMin= 8.23D-04
 ErrMax= 8.23D-04 EMaxC= 1.00D-01 BMatC= 3.47D-05 BMatP= 2.44D-04
 IDIUse=3 WtCom= 9.92D-01 WtEn= 8.23D-03
 Coeff-Com: -0.863D-02 0.175D+00 0.343D+00 0.490D+00
 Coeff-En:   0.000D+00 0.000D+00 0.530D-01 0.947D+00
 Coeff:     -0.856D-02 0.174D+00 0.341D+00 0.494D+00
 Gap=     0.289 Goal=   None    Shift=    0.000
 RMSDP=7.47D-05 MaxDP=1.84D-03 DE=-1.88D-04 OVMax= 2.89D-03

 Cycle   5  Pass 0  IDiag  1:
 E= -225.940302741829     Delta-E=       -0.000029589660 Rises=F Damp=F
 DIIS: error= 1.59D-04 at cycle   5 NSaved=   5.
 NSaved= 5 IEnMin= 5 EnMin= -225.940302741829     IErMin= 5 ErrMin= 1.59D-04
 ErrMax= 1.59D-04 EMaxC= 1.00D-01 BMatC= 1.41D-06 BMatP= 3.47D-05
 IDIUse=3 WtCom= 9.98D-01 WtEn= 1.59D-03
 Coeff-Com: -0.546D-02 0.384D-01 0.906D-01 0.226D+00 0.650D+00
 Coeff-En:   0.000D+00 0.000D+00 0.000D+00 0.000D+00 0.100D+01
 Coeff:     -0.545D-02 0.383D-01 0.904D-01 0.226D+00 0.651D+00
 Gap=     0.289 Goal=   None    Shift=    0.000
 RMSDP=1.82D-05 MaxDP=2.67D-04 DE=-2.96D-05 OVMax= 6.01D-04

 Cycle   6  Pass 0  IDiag  1:
 E= -225.940303993763     Delta-E=       -0.000001251934 Rises=F Damp=F
 DIIS: error= 5.45D-05 at cycle   6 NSaved=   6.
 NSaved= 6 IEnMin= 6 EnMin= -225.940303993763     IErMin= 6 ErrMin= 5.45D-05
 ErrMax= 5.45D-05 EMaxC= 1.00D-01 BMatC= 1.77D-07 BMatP= 1.41D-06
 IDIUse=1 WtCom= 1.00D+00 WtEn= 0.00D+00
 Coeff-Com: -0.292D-02 0.127D-01 0.342D-01 0.104D+00 0.376D+00 0.476D+00
 Coeff:     -0.292D-02 0.127D-01 0.342D-01 0.104D+00 0.376D+00 0.476D+00
 Gap=     0.289 Goal=   None    Shift=    0.000
 RMSDP=4.53D-06 MaxDP=1.16D-04 DE=-1.25D-06 OVMax= 1.55D-04

 Initial convergence to 1.0D-05 achieved.  Increase integral accuracy.
 Cycle   7  Pass 1  IDiag  1:
 E= -225.940320493855     Delta-E=       -0.000016500092 Rises=F Damp=F
 DIIS: error= 1.31D-05 at cycle   1 NSaved=   1.
 NSaved= 1 IEnMin= 1 EnMin= -225.940320493855     IErMin= 1 ErrMin= 1.31D-05
 ErrMax= 1.31D-05 EMaxC= 1.00D-01 BMatC= 1.24D-08 BMatP= 1.24D-08
 IDIUse=1 WtCom= 1.00D+00 WtEn= 0.00D+00
 Coeff-Com:  0.100D+01
 Coeff:      0.100D+01
 Gap=     0.289 Goal=   None    Shift=    0.000
 RMSDP=4.53D-06 MaxDP=1.16D-04 DE=-1.65D-05 OVMax= 1.13D-04

 Cycle   8  Pass 1  IDiag  1:
 E= -225.940320487897     Delta-E=        0.000000005958 Rises=F Damp=F
 DIIS: error= 1.97D-05 at cycle   2 NSaved=   2.
 NSaved= 2 IEnMin= 1 EnMin= -225.940320493855     IErMin= 1 ErrMin= 1.31D-05
 ErrMax= 1.97D-05 EMaxC= 1.00D-01 BMatC= 2.01D-08 BMatP= 1.24D-08
 IDIUse=1 WtCom= 1.00D+00 WtEn= 0.00D+00
 Coeff-Com:  0.571D+00 0.429D+00
 Coeff:      0.571D+00 0.429D+00
 Gap=     0.289 Goal=   None    Shift=    0.000
 RMSDP=1.82D-06 MaxDP=3.99D-05 DE= 5.96D-09 OVMax= 6.81D-05

 Cycle   9  Pass 1  IDiag  1:
 E= -225.940320505609     Delta-E=       -0.000000017712 Rises=F Damp=F
 DIIS: error= 4.38D-06 at cycle   3 NSaved=   3.
 NSaved= 3 IEnMin= 3 EnMin= -225.940320505609     IErMin= 3 ErrMin= 4.38D-06
 ErrMax= 4.38D-06 EMaxC= 1.00D-01 BMatC= 1.00D-09 BMatP= 1.24D-08
 IDIUse=1 WtCom= 1.00D+00 WtEn= 0.00D+00
 Coeff-Com:  0.177D-01 0.180D+00 0.802D+00
 Coeff:      0.177D-01 0.180D+00 0.802D+00
 Gap=     0.289 Goal=   None    Shift=    0.000
 RMSDP=4.15D-07 MaxDP=7.90D-06 DE=-1.77D-08 OVMax= 1.74D-05

 Cycle  10  Pass 1  IDiag  1:
 E= -225.940320506514     Delta-E=       -0.000000000905 Rises=F Damp=F
 DIIS: error= 1.08D-06 at cycle   4 NSaved=   4.
 NSaved= 4 IEnMin= 4 EnMin= -225.940320506514     IErMin= 4 ErrMin= 1.08D-06
 ErrMax= 1.08D-06 EMaxC= 1.00D-01 BMatC= 9.24D-11 BMatP= 1.00D-09
 IDIUse=1 WtCom= 1.00D+00 WtEn= 0.00D+00
 Coeff-Com: -0.117D-01 0.720D-01 0.405D+00 0.535D+00
 Coeff:     -0.117D-01 0.720D-01 0.405D+00 0.535D+00
 Gap=     0.289 Goal=   None    Shift=    0.000
 RMSDP=1.35D-07 MaxDP=3.09D-06 DE=-9.05D-10 OVMax= 4.65D-06

 Cycle  11  Pass 1  IDiag  1:
 E= -225.940320506588     Delta-E=       -0.000000000074 Rises=F Damp=F
 DIIS: error= 4.97D-07 at cycle   5 NSaved=   5.
 NSaved= 5 IEnMin= 5 EnMin= -225.940320506588     IErMin= 5 ErrMin= 4.97D-07
 ErrMax= 4.97D-07 EMaxC= 1.00D-01 BMatC= 1.22D-11 BMatP= 9.24D-11
 IDIUse=1 WtCom= 1.00D+00 WtEn= 0.00D+00
 Coeff-Com: -0.793D-02 0.244D-01 0.163D+00 0.315D+00 0.505D+00
 Coeff:     -0.793D-02 0.244D-01 0.163D+00 0.315D+00 0.505D+00
 Gap=     0.289 Goal=   None    Shift=    0.000
 RMSDP=4.56D-08 MaxDP=1.02D-06 DE=-7.41D-11 OVMax= 1.81D-06

 Cycle  12  Pass 1  IDiag  1:
 E= -225.940320506599     Delta-E=       -0.000000000011 Rises=F Damp=F
 DIIS: error= 1.02D-07 at cycle   6 NSaved=   6.
 NSaved= 6 IEnMin= 6 EnMin= -225.940320506599     IErMin= 6 ErrMin= 1.02D-07
 ErrMax= 1.02D-07 EMaxC= 1.00D-01 BMatC= 8.97D-13 BMatP= 1.22D-11
 IDIUse=1 WtCom= 1.00D+00 WtEn= 0.00D+00
 Coeff-Com: -0.258D-02-0.275D-03 0.188D-01 0.786D-01 0.252D+00 0.654D+00
 Coeff:     -0.258D-02-0.275D-03 0.188D-01 0.786D-01 0.252D+00 0.654D+00
 Gap=     0.289 Goal=   None    Shift=    0.000
 RMSDP=1.20D-08 MaxDP=2.13D-07 DE=-1.08D-11 OVMax= 3.86D-07

 Cycle  13  Pass 1  IDiag  1:
 E= -225.940320506600     Delta-E=       -0.000000000001 Rises=F Damp=F
 DIIS: error= 2.86D-08 at cycle   7 NSaved=   7.
 NSaved= 7 IEnMin= 7 EnMin= -225.940320506600     IErMin= 7 ErrMin= 2.86D-08
 ErrMax= 2.86D-08 EMaxC= 1.00D-01 BMatC= 3.72D-14 BMatP= 8.97D-13
 IDIUse=1 WtCom= 1.00D+00 WtEn= 0.00D+00
 Coeff-Com:  0.456D-04-0.222D-02-0.675D-02-0.634D-03 0.401D-01 0.212D+00
 Coeff-Com:  0.758D+00
 Coeff:      0.456D-04-0.222D-02-0.675D-02-0.634D-03 0.401D-01 0.212D+00
 Coeff:      0.758D+00
 Gap=     0.289 Goal=   None    Shift=    0.000
 RMSDP=3.47D-09 MaxDP=9.06D-08 DE=-9.09D-13 OVMax= 1.73D-07

 SCF Done:  E(RPBE+HF-PBE) =  -225.940320507     A.U. after   13 cycles
             Convg  =    0.3465D-08             -V/T =  2.0086
             S**2   =   0.0000
 KE= 2.240033498500D+02 PE=-8.527439499686D+02 EE= 2.391787425770D+02
 Leave Link  502 at Mon Jun 20 07:11:56 2011, MaxMem=   24000000 cpu:       7.2
 (Enter /usr/local/gaussian03-rev-E01-64/g03/l701.exe)
 Compute integral first derivatives.
 ... and contract with generalized density number  0.
 Leave Link  701 at Mon Jun 20 07:11:57 2011, MaxMem=   24000000 cpu:       0.1
 (Enter /usr/local/gaussian03-rev-E01-64/g03/l702.exe)
 L702 exits ... SP integral derivatives will be done elsewhere.
 Leave Link  702 at Mon Jun 20 07:11:57 2011, MaxMem=   24000000 cpu:       0.0
 (Enter /usr/local/gaussian03-rev-E01-64/g03/l703.exe)
 Compute integral first derivatives, UseDBF=F.
 Integral derivatives from FoFDir, PRISM(SPDF).
 Petite list used in FoFDir.
 MinBra= 0 MaxBra= 2 Meth= 1.
 IRaf=       0 NMat=   1 IRICut=       1 DoRegI=T DoRafI=F ISym2E= 1 JSym2E=1.
 Leave Link  703 at Mon Jun 20 07:12:00 2011, MaxMem=   24000000 cpu:       3.1
 (Enter /usr/local/gaussian03-rev-E01-64/g03/l716.exe)
 Dipole        = 8.28585205D-01 3.71227217D-01-7.43252711D-32
 ***** Axes restored to original set *****
 -------------------------------------------------------------------
 Center     Atomic                   Forces (Hartrees/Bohr)
 Number     Number              X              Y              Z
 -------------------------------------------------------------------
    1          1           0.000659102    0.000000000    0.000816808
    2          6           0.003854713    0.000000000   -0.002368620
    3          1          -0.000346602    0.000000000    0.001400205
    4          6          -0.004210363    0.000000000    0.001157651
    5          1          -0.000978768    0.000000000   -0.000860170
    6          6           0.001341023    0.000000000    0.003099050
    7          7           0.010465818    0.000000000   -0.000487003
    8          1           0.000482101    0.000000000   -0.001650785
    9          7          -0.011267024    0.000000000   -0.001107135
 -------------------------------------------------------------------
 Cartesian Forces:  Max     0.011267024 RMS     0.003315054
 Leave Link  716 at Mon Jun 20 07:12:00 2011, MaxMem=   24000000 cpu:       0.0
 (Enter /usr/local/gaussian03-rev-E01-64/g03/l103.exe)

 GradGradGradGradGradGradGradGradGradGradGradGradGradGradGradGradGradGrad
 Berny optimization.
 Internal  Forces:  Max     0.009366858 RMS     0.001893117
 Search for a local minimum.
 Step number   3 out of a maximum of  48
 All quantities printed in internal units (Hartrees-Bohrs-Radians)
 Update second derivatives using D2CorX and points  1  2  3
 Trust test= 1.33D+00 RLast= 2.43D-01 DXMaxT set to 6.00D-01
     Eigenvalues ---    0.03203   0.03248   0.03251   0.03273   0.03342
     Eigenvalues ---    0.03372   0.15290   0.16000   0.16004   0.16030
     Eigenvalues ---    0.22056   0.23510   0.47088   0.49524   0.49717
     Eigenvalues ---    0.57239   0.58516   0.60300   0.67454   0.69455
     Eigenvalues ---    0.810011000.000001000.000001000.000001000.00000
     Eigenvalues --- 1000.000001000.000001000.000001000.000001000.00000
     Eigenvalues --- 1000.000001000.000001000.000001000.000001000.00000
     Eigenvalues --- 1000.000001000.000001000.00000
 RFO step:  Lambda=-2.10025641D-04.
 Quartic linear search produced a step of -0.00636.
 Iteration  1 RMS(Cart)=  0.00412395 RMS(Int)=  0.00000976
 Iteration  2 RMS(Cart)=  0.00000992 RMS(Int)=  0.00000107
 Iteration  3 RMS(Cart)=  0.00000000 RMS(Int)=  0.00000107
 Variable       Old X    -DE/DX   Delta X   Delta X   Delta X     New X
                                 (Linear)    (Quad)   (Total)
    R1        2.04461  -0.00096  -0.00046  -0.00066  -0.00112   2.04349
    R2        2.61584  -0.00365  -0.00031  -0.00593  -0.00624   2.60960
    R3        2.55566  -0.00098  -0.00035   0.00021  -0.00014   2.55552
    R4        2.04480  -0.00144  -0.00046  -0.00161  -0.00207   2.04273
    R5        2.66031   0.00076  -0.00042   0.00147   0.00105   2.66136
    R6        2.04770  -0.00104  -0.00047  -0.00085  -0.00131   2.04638
    R7        2.51736  -0.00264  -0.00025  -0.00264  -0.00289   2.51447
    R8        2.50438   0.00937  -0.00047   0.01268   0.01221   2.51659
    R9        1.90737  -0.00146  -0.00034  -0.00142  -0.00176   1.90561
    A1        2.30392   0.00012  -0.00043   0.00271   0.00228   2.30620
    A2        2.13362  -0.00075   0.00043  -0.00376  -0.00333   2.13029
    A3        1.84565   0.00063   0.00000   0.00105   0.00105   1.84669
    A4        2.22175  -0.00118   0.00000  -0.00236  -0.00236   2.21938
    A5        1.81697   0.00251   0.00008   0.00540   0.00548   1.82244
    A6        2.24447  -0.00133  -0.00007  -0.00304  -0.00311   2.24136
    A7        2.25104  -0.00060  -0.00027  -0.00270  -0.00297   2.24807
    A8        1.95466  -0.00042  -0.00016  -0.00352  -0.00368   1.95098
    A9        2.07749   0.00102   0.00043   0.00622   0.00665   2.08414
   A10        1.81669  -0.00064   0.00016   0.00197   0.00212   1.81881
   A11        1.99082  -0.00208  -0.00007  -0.00489  -0.00496   1.98586
   A12        2.22676   0.00019  -0.00032  -0.00229  -0.00261   2.22414
   A13        2.06561   0.00189   0.00039   0.00718   0.00757   2.07319
    D1        0.00000   0.00000   0.00000   0.00000   0.00000   0.00000
    D2        3.14159   0.00000   0.00000   0.00000   0.00000   3.14159
    D3        3.14159   0.00000   0.00000   0.00000   0.00000   3.14159
    D4        0.00000   0.00000   0.00000   0.00000   0.00000   0.00000
    D5        3.14159   0.00000   0.00000   0.00000   0.00000   3.14159
    D6        0.00000   0.00000   0.00000   0.00000   0.00000   0.00000
    D7        0.00000   0.00000   0.00000   0.00000   0.00000   0.00000
    D8        3.14159   0.00000   0.00000   0.00000   0.00000   3.14159
    D9        3.14159   0.00000   0.00000   0.00000   0.00000   3.14159
   D10        0.00000   0.00000   0.00000   0.00000   0.00000   0.00000
   D11        0.00000   0.00000   0.00000   0.00000   0.00000   0.00000
   D12        3.14159   0.00000   0.00000   0.00000   0.00000   3.14159
   D13        0.00000   0.00000   0.00000   0.00000   0.00000   0.00000
   D14        3.14159   0.00000   0.00000   0.00000   0.00000   3.14159
   D15        0.00000   0.00000   0.00000   0.00000   0.00000   0.00000
   D16        3.14159   0.00000   0.00000   0.00000   0.00000   3.14159
         Item               Value     Threshold  Converged?
 Maximum Force            0.009367     0.000450     NO 
[...]
     17  0.884193D-02 -0.516074D-02  0.252185D-01 -0.560222D-01  0.308038D-01
     18 -0.583749D-02  0.851743D-02 -0.144557D-01  0.298061D-01 -0.153504D-01
     19 -0.133715D-01  0.138247D-01  0.281678D-02  0.925285D-02 -0.120696D-01
     20  0.345203D-01 -0.600427D-01 -0.611461D-02 -0.173231D-03  0.628784D-02
     21 -0.175272D-01  0.294273D-01  0.797668D-02 -0.694286D-02 -0.103382D-02
     22 -0.169930D-01  0.306154D-01 -0.186207D-02  0.711609D-02 -0.525402D-02
     23  0.000000D+00  0.000000D+00  0.000000D+00  0.000000D+00  0.000000D+00
     24  0.000000D+00  0.000000D+00  0.000000D+00  0.000000D+00  0.000000D+00
     25  0.000000D+00  0.000000D+00  0.000000D+00  0.000000D+00  0.000000D+00
     26  0.000000D+00  0.000000D+00  0.000000D+00  0.000000D+00  0.000000D+00
     27  0.000000D+00  0.000000D+00  0.000000D+00  0.000000D+00  0.000000D+00
     28  0.000000D+00  0.000000D+00  0.000000D+00  0.000000D+00  0.000000D+00
     29  0.000000D+00  0.000000D+00  0.000000D+00  0.000000D+00  0.000000D+00
     30  0.000000D+00  0.000000D+00  0.000000D+00  0.000000D+00  0.000000D+00
     31  0.000000D+00  0.000000D+00  0.000000D+00  0.000000D+00  0.000000D+00
     32  0.000000D+00  0.000000D+00  0.000000D+00  0.000000D+00  0.000000D+00
     33  0.000000D+00  0.000000D+00  0.000000D+00  0.000000D+00  0.000000D+00
     34  0.000000D+00  0.000000D+00  0.000000D+00  0.000000D+00  0.000000D+00
     35  0.000000D+00  0.000000D+00  0.000000D+00  0.000000D+00  0.000000D+00
     36  0.000000D+00  0.000000D+00  0.000000D+00  0.000000D+00  0.000000D+00
     37  0.000000D+00  0.000000D+00  0.000000D+00  0.000000D+00  0.000000D+00
     38  0.000000D+00  0.000000D+00  0.000000D+00  0.000000D+00  0.000000D+00
               16            17            18            19            20
     16  0.822691D-01
     17 -0.541386D-01  0.119150D+00
     18 -0.281305D-01 -0.650112D-01  0.931417D-01
     19  0.358681D-01 -0.796232D-01  0.437551D-01  0.145631D+00
     20 -0.458891D-02  0.216564D-01 -0.170675D-01 -0.890853D-01  0.127645D+00
     21  0.506502D-03 -0.376112D-02  0.325462D-02  0.395061D-01 -0.582294D-01
     22  0.408241D-02 -0.178953D-01  0.138129D-01  0.495792D-01 -0.694153D-01
     23  0.000000D+00  0.000000D+00  0.000000D+00  0.000000D+00  0.000000D+00
     24  0.000000D+00  0.000000D+00  0.000000D+00  0.000000D+00  0.000000D+00
     25  0.000000D+00  0.000000D+00  0.000000D+00  0.000000D+00  0.000000D+00
     26  0.000000D+00  0.000000D+00  0.000000D+00  0.000000D+00  0.000000D+00
     27  0.000000D+00  0.000000D+00  0.000000D+00  0.000000D+00  0.000000D+00
     28  0.000000D+00  0.000000D+00  0.000000D+00  0.000000D+00  0.000000D+00
     29  0.000000D+00  0.000000D+00  0.000000D+00  0.000000D+00  0.000000D+00
     30  0.000000D+00  0.000000D+00  0.000000D+00  0.000000D+00  0.000000D+00
     31  0.000000D+00  0.000000D+00  0.000000D+00  0.000000D+00  0.000000D+00
     32  0.000000D+00  0.000000D+00  0.000000D+00  0.000000D+00  0.000000D+00
     33  0.000000D+00  0.000000D+00  0.000000D+00  0.000000D+00  0.000000D+00
     34  0.000000D+00  0.000000D+00  0.000000D+00  0.000000D+00  0.000000D+00
     35  0.000000D+00  0.000000D+00  0.000000D+00  0.000000D+00  0.000000D+00
     36  0.000000D+00  0.000000D+00  0.000000D+00  0.000000D+00  0.000000D+00
     37  0.000000D+00  0.000000D+00  0.000000D+00  0.000000D+00  0.000000D+00
     38  0.000000D+00  0.000000D+00  0.000000D+00  0.000000D+00  0.000000D+00
               21            22            23            24            25
     21  0.879993D-01
     22 -0.297698D-01  0.991852D-01
     23  0.000000D+00  0.000000D+00  0.627618D-02
     24  0.000000D+00  0.000000D+00  0.170564D-02  0.818940D-02
     25  0.000000D+00  0.000000D+00  0.120928D-02 -0.918292D-03  0.939431D-02
     26  0.000000D+00  0.000000D+00 -0.336126D-02  0.556547D-02  0.726673D-02
     27  0.000000D+00  0.000000D+00 -0.149735D-02 -0.504404D-02 -0.974975D-03
     28  0.000000D+00  0.000000D+00 -0.183379D-02 -0.190027D-02  0.176456D-02
     29  0.000000D+00  0.000000D+00  0.292798D-02 -0.275236D-02 -0.812362D-02
     30  0.000000D+00  0.000000D+00  0.259154D-02  0.391422D-03 -0.538408D-02
     31  0.000000D+00  0.000000D+00  0.322575D-02 -0.411642D-02  0.152781D-02
     32  0.000000D+00  0.000000D+00  0.296185D-02 -0.699046D-02 -0.461765D-02
     33  0.000000D+00  0.000000D+00 -0.141255D-02  0.246346D-02 -0.631304D-03
     34  0.000000D+00  0.000000D+00 -0.167645D-02 -0.410583D-03 -0.677676D-02
     35  0.000000D+00  0.000000D+00 -0.124070D-02  0.529954D-02 -0.951440D-04
     36  0.000000D+00  0.000000D+00 -0.147787D-02  0.271665D-02 -0.561804D-02
     37  0.000000D+00  0.000000D+00 -0.106568D-02 -0.154736D-02  0.513837D-02
     38  0.000000D+00  0.000000D+00 -0.761693D-03 -0.438789D-02  0.266308D-02
               26            27            28            29            30
     26  0.161935D-01
     27 -0.452167D-02  0.913907D-02
     28  0.169809D-02  0.822476D-03  0.403241D-02
     29 -0.138040D-01  0.868283D-02 -0.232025D-02  0.183351D-01
     30 -0.758420D-02  0.366244D-03  0.889675D-03  0.733199D-02  0.785542D-02
     31 -0.581436D-02  0.331127D-02 -0.263815D-03  0.479422D-02  0.121913D-02
     32 -0.145700D-01 -0.738478D-03 -0.659003D-03  0.588130D-02  0.596078D-02
     33  0.324471D-02 -0.288001D-03 -0.331275D-03 -0.970326D-03 -0.101360D-02
     34 -0.551089D-02 -0.433775D-02 -0.726464D-03  0.116758D-03  0.372804D-02
     35  0.644510D-02  0.567720D-02 -0.675602D-03  0.467669D-02 -0.167611D-02
     36 -0.142352D-02  0.203771D-02 -0.103076D-02  0.565365D-02  0.258519D-02
     37  0.465669D-02 -0.893069D-02  0.186752D-02 -0.143492D-01 -0.355097D-02
     38 -0.963120D-03 -0.141630D-02 -0.103279D-02 -0.440743D-02 -0.402392D-02
               31            32            33            34            35
     31  0.122538D-01
     32  0.539288D-02  0.196187D-01
     33  0.480279D-02 -0.470698D-02  0.873627D-02
     34 -0.205814D-02  0.951886D-02 -0.773502D-03  0.108035D-01
     35 -0.256528D-02 -0.159242D-01  0.407193D-02 -0.928704D-02  0.183148D-01
     36 -0.873117D-02 -0.313954D-02 -0.447447D-02  0.111716D-02  0.630914D-02
     37 -0.141573D-02  0.614344D-02 -0.190455D-02  0.565462D-02 -0.142197D-01
     38  0.181451D-02  0.607164D-02 -0.186545D-02  0.239168D-02 -0.847966D-02
               36            37            38
     36  0.113343D-01
     37 -0.742628D-02  0.177423D-01
     38 -0.465379D-02  0.798565D-02  0.763913D-02
 Leave Link  716 at Mon Jun 20 07:14:04 2011, MaxMem=   24000000 cpu:       0.0
 (Enter /usr/local/gaussian03-rev-E01-64/g03/l103.exe)

 GradGradGradGradGradGradGradGradGradGradGradGradGradGradGradGradGradGrad
 Berny optimization.
 Internal  Forces:  Max     0.000236929 RMS     0.000084323
 Search for a local minimum.
 Step number   1 out of a maximum of   2
 All quantities printed in internal units (Hartrees-Bohrs-Radians)
 Second derivative matrix not updated -- analytic derivatives used.
     Eigenvalues ---    0.00740   0.01156   0.01629   0.02817   0.05950
     Eigenvalues ---    0.06293   0.09480   0.10496   0.11287   0.12201
     Eigenvalues ---    0.22771   0.27376   0.36530   0.37892   0.38394
     Eigenvalues ---    0.38687   0.42096   0.44815   0.48898   0.51485
     Eigenvalues ---    0.591351000.000001000.000001000.000001000.00000
     Eigenvalues --- 1000.000001000.000001000.000001000.000001000.00000
     Eigenvalues --- 1000.000001000.000001000.000001000.000001000.00000
     Eigenvalues --- 1000.000001000.000001000.00000
 Angle between quadratic step and forces=  33.64 degrees.
 Linear search not attempted -- first point.
 Iteration  1 RMS(Cart)=  0.00031307 RMS(Int)=  0.00000011
 Iteration  2 RMS(Cart)=  0.00000011 RMS(Int)=  0.00000001
 Variable       Old X    -DE/DX   Delta X   Delta X   Delta X     New X
                                 (Linear)    (Quad)   (Total)
    R1        2.04244   0.00002   0.00000   0.00005   0.00005   2.04248
    R2        2.60423   0.00007   0.00000   0.00037   0.00037   2.60459
    R3        2.55551  -0.00024   0.00000  -0.00065  -0.00065   2.55486
    R4        2.04130  -0.00001   0.00000  -0.00005  -0.00005   2.04126
    R5        2.66312   0.00009   0.00000   0.00018   0.00018   2.66330
    R6        2.04502   0.00002   0.00000   0.00009   0.00009   2.04510
    R7        2.51015  -0.00024   0.00000  -0.00037  -0.00037   2.50978
    R8        2.52774  -0.00002   0.00000   0.00009   0.00009   2.52783
    R9        1.90362  -0.00002   0.00000  -0.00003  -0.00003   1.90358
    A1        2.30579  -0.00002   0.00000  -0.00063  -0.00063   2.30516
    A2        2.12678   0.00013   0.00000   0.00082   0.00082   2.12760
    A3        1.85062  -0.00010   0.00000  -0.00019  -0.00019   1.85043
    A4        2.22177   0.00004   0.00000   0.00020   0.00020   2.22197
    A5        1.82071  -0.00007   0.00000  -0.00023  -0.00023   1.82047
    A6        2.24071   0.00003   0.00000   0.00003   0.00003   2.24074
    A7        2.24292  -0.00001   0.00000   0.00000   0.00000   2.24292
    A8        1.95532   0.00008   0.00000   0.00028   0.00028   1.95560
    A9        2.08495  -0.00008   0.00000  -0.00028  -0.00028   2.08467
   A10        1.81557  -0.00012   0.00000  -0.00037  -0.00037   1.81520
   A11        1.98257   0.00020   0.00000   0.00051   0.00051   1.98308
   A12        2.22758   0.00000   0.00000   0.00052   0.00052   2.22810
   A13        2.07304  -0.00020   0.00000  -0.00103  -0.00103   2.07201
    D1        0.00000   0.00000   0.00000   0.00000   0.00000   0.00000
    D2        3.14159   0.00000   0.00000   0.00000   0.00000   3.14159
    D3        3.14159   0.00000   0.00000   0.00000   0.00000   3.14159
    D4        0.00000   0.00000   0.00000   0.00000   0.00000   0.00000
    D5        3.14159   0.00000   0.00000   0.00000   0.00000   3.14159
    D6        0.00000   0.00000   0.00000   0.00000   0.00000   0.00000
    D7        0.00000   0.00000   0.00000   0.00000   0.00000   0.00000
    D8        3.14159   0.00000   0.00000   0.00000   0.00000   3.14159
    D9        3.14159   0.00000   0.00000   0.00000   0.00000   3.14159
   D10        0.00000   0.00000   0.00000   0.00000   0.00000   0.00000
   D11        0.00000   0.00000   0.00000   0.00000   0.00000   0.00000
   D12        3.14159   0.00000   0.00000   0.00000   0.00000   3.14159
   D13        0.00000   0.00000   0.00000   0.00000   0.00000   0.00000
   D14        3.14159   0.00000   0.00000   0.00000   0.00000   3.14159
   D15        0.00000   0.00000   0.00000   0.00000   0.00000   0.00000
   D16        3.14159   0.00000   0.00000   0.00000   0.00000   3.14159
         Item               Value     Threshold  Converged?
 Maximum Force            0.000237     0.000450     YES
 RMS     Force            0.000084     0.000300     YES
 Maximum Displacement     0.001204     0.001800     YES
 RMS     Displacement     0.000313     0.001200     YES
 Predicted change in Energy=-4.236620D-07
 Optimization completed.
    -- Stationary point found.
                           ----------------------------
                           !   Optimized Parameters   !
                           ! (Angstroms and Degrees)  !
 --------------------------                            --------------------------
 ! Name  Definition              Value          Derivative Info.                !
 --------------------------------------------------------------------------------
 ! R1    R(1,2)                  1.0808         -DE/DX =    0.0                 !
 ! R2    R(2,4)                  1.3781         -DE/DX =    0.0001              !
 ! R3    R(2,9)                  1.3523         -DE/DX =   -0.0002              !
 ! R4    R(3,4)                  1.0802         -DE/DX =    0.0                 !
 ! R5    R(4,6)                  1.4093         -DE/DX =    0.0001              !
 ! R6    R(5,6)                  1.0822         -DE/DX =    0.0                 !
 ! R7    R(6,7)                  1.3283         -DE/DX =   -0.0002              !
 ! R8    R(7,9)                  1.3376         -DE/DX =    0.0                 !
 ! R9    R(8,9)                  1.0074         -DE/DX =    0.0                 !
 ! A1    A(1,2,4)              132.1121         -DE/DX =    0.0                 !
 ! A2    A(1,2,9)              121.8554         -DE/DX =    0.0001              !
 ! A3    A(4,2,9)              106.0325         -DE/DX =   -0.0001              !
 ! A4    A(2,4,3)              127.2979         -DE/DX =    0.0                 !
 ! A5    A(2,4,6)              104.3188         -DE/DX =   -0.0001              !
 ! A6    A(3,4,6)              128.3833         -DE/DX =    0.0                 !
 ! A7    A(4,6,5)              128.5096         -DE/DX =    0.0                 !
 ! A8    A(4,6,7)              112.0316         -DE/DX =    0.0001              !
 ! A9    A(5,6,7)              119.4588         -DE/DX =   -0.0001              !
 ! A10   A(6,7,9)              104.0245         -DE/DX =   -0.0001              !
 ! A11   A(2,9,7)              113.5926         -DE/DX =    0.0002              !
 ! A12   A(2,9,8)              127.631          -DE/DX =    0.0                 !
 ! A13   A(7,9,8)              118.7764         -DE/DX =   -0.0002              !
 ! D1    D(1,2,4,3)              0.0            -DE/DX =    0.0                 !
 ! D2    D(1,2,4,6)            180.0            -DE/DX =    0.0                 !
 ! D3    D(9,2,4,3)            180.0            -DE/DX =    0.0                 !
 ! D4    D(9,2,4,6)              0.0            -DE/DX =    0.0                 !
 ! D5    D(1,2,9,7)            180.0            -DE/DX =    0.0                 !
 ! D6    D(1,2,9,8)              0.0            -DE/DX =    0.0                 !
 ! D7    D(4,2,9,7)              0.0            -DE/DX =    0.0                 !
 ! D8    D(4,2,9,8)            180.0            -DE/DX =    0.0                 !
 ! D9    D(2,4,6,5)            180.0            -DE/DX =    0.0                 !
 ! D10   D(2,4,6,7)              0.0            -DE/DX =    0.0                 !
 ! D11   D(3,4,6,5)              0.0            -DE/DX =    0.0                 !
 ! D12   D(3,4,6,7)            180.0            -DE/DX =    0.0                 !
 ! D13   D(4,6,7,9)              0.0            -DE/DX =    0.0                 !
 ! D14   D(5,6,7,9)            180.0            -DE/DX =    0.0                 !
 ! D15   D(6,7,9,2)              0.0            -DE/DX =    0.0                 !
 ! D16   D(6,7,9,8)            180.0            -DE/DX =    0.0                 !
 --------------------------------------------------------------------------------
 GradGradGradGradGradGradGradGradGradGradGradGradGradGradGradGradGradGrad

 Leave Link  103 at Mon Jun 20 07:14:04 2011, MaxMem=   24000000 cpu:       0.0
 (Enter /usr/local/gaussian03-rev-E01-64/g03/l9999.exe)
 1\1\GINC-P2212\Freq\RPBE1PBE\6-31G(d)\C3H4N2\RDJ3\20-Jun-2011\0\\#P Ge
 om=AllCheck Guess=Read SCRF=Check GenChk RPBE1PBE/6-31G(d) Freq\\1H py
 razole C3H4N2 casno=288131 method=54 basis=1\\0,1\H,-2.085387692,0.,-0
 .7876187903\C,-1.1284270893,0.,-0.2852435223\H,0.482764983,0.,-1.79328
 12879\C,0.1649920832,0.,-0.7608674088\H,2.0429183626,0.,0.4759315988\C
 ,0.9633798106,0.,0.4004226831\N,0.2310105241,0.,1.5085994651\H,-1.7814
 845892,0.,1.7347928581\N,-1.030391393,0.,1.0635144042\\Version=AM64L-G
 03RevE.01\State=1-A'\HF=-225.9404984\RMSD=4.130e-09\RMSF=1.532e-04\Zer
 oPoint=0.0723197\Thermal=0.0760275\Dipole=-0.808506,0.,-0.4165299\Dipo
 leDeriv=-0.0097772,0.,-0.0471286,0.,0.1766105,0.,-0.0325641,0.,0.07640
 16,0.1475815,0.,-0.1138802,0.,-0.0771986,0.,-0.2890203,0.,0.2051419,0.
 0944418,0.,0.028954,0.,0.1636276,0.,0.0347207,0.,-0.0278205,-0.262918,
 0.,-0.0032149,0.,-0.2171731,0.,-0.0534389,0.,-0.0133355,-0.0523899,0.,
 -0.0097785,0.,0.137018,0.,-0.0280282,0.,0.079164,0.2237624,0.,0.119026
 3,0.,-0.0595972,0.,0.1938612,0.,0.1757427,-0.0070149,0.,-0.2262919,0.,
 -0.233739,0.,-0.0849907,0.,-0.5814811,0.2048582,0.,-0.0411038,0.,0.325
 9019,0.,-0.0287016,0.,0.2219092,-0.338544,0.,0.2934176,0.,-0.21545,0.,
 0.2881618,0.,-0.1357224\Polar=48.421109,0.,17.2131961,-0.3155536,0.,44
 .5788957\PG=CS [SG(C3H4N2)]\NImag=0\\0.31084941,0.,0.02054343,0.137492
 34,0.,0.12414701,-0.30525992,0.,-0.11831973,0.88148440,0.,-0.02471154,
 0.,0.,0.11766829,-0.12802995,0.,-0.12198082,0.09565805,0.,0.67537639,0
 .00031176,0.,-0.00080223,0.00200475,0.,0.02630622,0.07747055,0.,-0.002
 64812,0.,0.,-0.00237049,0.,0.,0.02197473,0.00048150,0.,-0.00014180,-0.
 00323113,0.,0.00015993,-0.09549637,0.,0.35476455,-0.00717821,0.,0.0092
 0331,-0.36108657,0.,0.07972309,-0.08478518,0.,0.08898428,0.64480878,0.
 ,0.00055215,0.,0.,-0.06221904,0.,0.,-0.02566093,0.,0.,0.11515600,-0.01
 523024,0.,0.01312857,0.10737882,0.,-0.14568174,0.08653316,0.,-0.341504
 76,-0.12044890,0.,0.85246480,-0.00020996,0.,0.00029255,-0.00091571,0.,
 -0.00129682,-0.00008517,0.,-0.00043273,-0.00516689,0.,0.00366733,0.378
 90501,0.,0.00092896,0.,0.,0.00451338,0.,0.,-0.00186069,0.,0.,0.0006619
 3,0.,0.,0.02478275,-0.00108687,0.,0.00113826,-0.00294307,0.,-0.0060542
 8,0.00087849,0.,0.00020217,-0.02225066,0.,0.00688398,0.02211327,0.,0.0
 5689517,-0.00469478,0.,0.00470514,-0.05308994,0.,0.00105873,0.01350425
 ,0.,0.01238540,-0.18624568,0.,-0.11374241,-0.35804561,0.,-0.03355777,0
 .90358770,0.,0.00501091,0.,0.,0.01072688,0.,0.,-0.00332330,0.,0.,-0.06
 509214,0.,0.,-0.03055205,0.,0.,0.14007826,0.00101613,0.,-0.00244235,-0
 .07098849,0.,0.03708661,-0.01526928,0.,-0.00923561,-0.07860003,0.,-0.2
 4416915,-0.02556807,0.,-0.06176557,-0.01148496,0.,0.63689584,0.0005723
 5,0.,0.00044989,-0.05970354,0.,-0.05029347,-0.00212234,0.,-0.00108266,
 0.02827351,0.,0.04065274,-0.01355655,0.,0.02888576,-0.18835108,0.,0.15
 281323,0.53965554,0.,0.00682870,0.,0.,0.01756065,0.,0.,0.00674859,0.,0
 .,0.02041753,0.,0.,-0.00798734,0.,0.,-0.07360139,0.,0.,0.10770750,0.00
 207098,0.,-0.00580595,-0.01888622,0.,-0.06835408,-0.00608809,0.,-0.004
 27464,-0.03397717,0.,-0.07719715,-0.00093116,0.,0.00657419,0.11679847,
 0.,-0.32073506,-0.04837143,0.,0.58432784,-0.00021028,0.,0.00041753,0.0
 1028236,0.,-0.00423980,0.00074869,0.,-0.00007379,0.00202421,0.,-0.0032
 4132,-0.00041635,0.,0.00150517,-0.00779039,0.,-0.00555376,-0.02253499,
 0.,0.02487454,0.30084056,0.,-0.00146858,0.,0.,-0.00837201,0.,0.,0.0023
 5675,0.,0.,0.00312925,0.,0.,0.00227829,0.,0.,0.00458475,0.,0.,-0.01293
 173,0.,0.,0.01277775,-0.00069316,0.,0.00004813,0.02589388,0.,-0.006253
 11,0.00131437,0.,0.00019806,-0.00237794,0.,-0.00726909,-0.00052666,0.,
 0.00100252,-0.00593976,0.,0.00090998,-0.01099924,0.,0.01673604,-0.2092
 4655,0.,0.25621755,0.00581962,0.,-0.03343879,-0.11371583,0.,-0.0188860
 4,-0.00704731,0.,-0.00153450,-0.03064396,0.,0.01443081,-0.00050876,0.,
 0.00645569,-0.11887446,0.,0.05363523,-0.28223290,0.,-0.03548992,-0.282
 94381,0.,0.20257506,0.83014741,0.,-0.00503591,0.,0.,-0.05279612,0.,0.,
 0.00478346,0.,0.,0.01305524,0.,0.,0.00723477,0.,0.,0.01216808,0.,0.,-0
 .06474251,0.,0.,-0.00235448,0.,0.,0.08768747,0.00397926,0.,-0.00809104
 ,-0.01456211,0.,-0.36429889,0.00262373,0.,-0.00016790,0.07974402,0.,-0
 .05665545,0.00268230,0.,-0.00487643,0.02977716,0.,-0.03654470,-0.11205
 480,0.,-0.13127117,0.19555799,0.,-0.26159008,-0.18774754,0.,0.86349567
 \\-0.00001745,0.,0.00008424,0.00022728,0.,-0.00035259,-0.00001174,0.,-
 0.00001818,-0.00006962,0.,0.00016190,-0.00001820,0.,-0.00004443,0.0002
 4936,0.,-0.00022351,-0.00013359,0.,-0.00005634,-0.00007990,0.,-0.00005
 356,-0.00014612,0.,0.00050247\\\@


 WE SHOULD BE CAREFUL TO GET OUT OF AN EXPERIENCE ONLY THE WISDOM
 THAT IS IN IT -- AND STOP THERE;
 LEST WE BE LIKE THE CAT THAT SITS DOWN ON A HOT STOVE-LID.
 SHE WILL NEVER SIT DOWN ON A HOT STOVE LID AGAIN;
 BUT ALSO SHE WILL NEVER SIT DOWN ON A COLD ONE ANY MORE.

                                                     -- MARK TWAIN
 Job cpu time:  0 days  0 hours  1 minutes 26.8 seconds.
 File lengths (MBytes):  RWF=     19 Int=      0 D2E=      0 Chk=      6 Scr=      1
 Normal termination of Gaussian 03 at Mon Jun 20 07:14:05 2011.
