 Entering Link 1 = C:\G03W\l1.exe PID=      1956.
  
 Copyright (c) 1988,1990,1992,1993,1995,1998,2003, Gaussian, Inc.
                  All Rights Reserved.
  
 This is the Gaussian(R) 03 program.  It is based on the
 the Gaussian(R) 98 system (copyright 1998, Gaussian, Inc.),
 the Gaussian(R) 94 system (copyright 1995, Gaussian, Inc.),
 the Gaussian 92(TM) system (copyright 1992, Gaussian, Inc.),
 the Gaussian 90(TM) system (copyright 1990, Gaussian, Inc.),
 the Gaussian 88(TM) system (copyright 1988, Gaussian, Inc.),
 the Gaussian 86(TM) system (copyright 1986, Carnegie Mellon
 University), and the Gaussian 82(TM) system (copyright 1983,
 Carnegie Mellon University). Gaussian is a federally registered
 trademark of Gaussian, Inc.
  
 This software contains proprietary and confidential information,
 including trade secrets, belonging to Gaussian, Inc.
  
 This software is provided under written license and may be
 used, copied, transmitted, or stored only in accord with that
 written license.
  
 The following legend is applicable only to US Government
 contracts under DFARS:
  
                    RESTRICTED RIGHTS LEGEND
  
 Use, duplication or disclosure by the US Government is subject
 to restrictions as set forth in subparagraph (c)(1)(ii) of the
 Rights in Technical Data and Computer Software clause at DFARS
 252.227-7013.
  
 Gaussian, Inc.
 Carnegie Office Park, Building 6, Pittsburgh, PA 15106 USA
  
 The following legend is applicable only to US Government
 contracts under FAR:
  
                    RESTRICTED RIGHTS LEGEND
  
 Use, reproduction and disclosure by the US Government is subject
 to restrictions as set forth in subparagraph (c) of the
 Commercial Computer Software - Restricted Rights clause at FAR
 52.227-19.
  
 Gaussian, Inc.
 Carnegie Office Park, Building 6, Pittsburgh, PA 15106 USA
  
  
 ---------------------------------------------------------------
 Warning -- This program may not be used in any manner that
 competes with the business of Gaussian, Inc. or will provide
 assistance to any competitor of Gaussian, Inc.  The licensee
 of this program is prohibited from giving any competitor of
 Gaussian, Inc. access to this program.  By using this program,
 the user acknowledges that Gaussian, Inc. is engaged in the
 business of creating and licensing software in the field of
 computational chemistry and represents and warrants to the
 licensee that it is not a competitor of Gaussian, Inc. and that
 it will not use this program in any manner prohibited above.
 ---------------------------------------------------------------
  

 Cite this work as:
 Gaussian 03, Revision B.05,
 M. J. Frisch, G. W. Trucks, H. B. Schlegel, G. E. Scuseria, 
 M. A. Robb, J. R. Cheeseman, J. A. Montgomery, Jr., T. Vreven, 
 K. N. Kudin, J. C. Burant, J. M. Millam, S. S. Iyengar, J. Tomasi, 
 V. Barone, B. Mennucci, M. Cossi, G. Scalmani, N. Rega, 
 G. A. Petersson, H. Nakatsuji, M. Hada, M. Ehara, K. Toyota, 
 R. Fukuda, J. Hasegawa, M. Ishida, T. Nakajima, Y. Honda, O. Kitao, 
 H. Nakai, M. Klene, X. Li, J. E. Knox, H. P. Hratchian, J. B. Cross, 
 C. Adamo, J. Jaramillo, R. Gomperts, R. E. Stratmann, O. Yazyev, 
 A. J. Austin, R. Cammi, C. Pomelli, J. W. Ochterski, P. Y. Ayala, 
 K. Morokuma, G. A. Voth, P. Salvador, J. J. Dannenberg, 
 V. G. Zakrzewski, S. Dapprich, A. D. Daniels, M. C. Strain, 
 O. Farkas, D. K. Malick, A. D. Rabuck, K. Raghavachari, 
 J. B. Foresman, J. V. Ortiz, Q. Cui, A. G. Baboul, S. Clifford, 
 J. Cioslowski, B. B. Stefanov, G. Liu, A. Liashenko, P. Piskorz, 
 I. Komaromi, R. L. Martin, D. J. Fox, T. Keith, M. A. Al-Laham, 
 C. Y. Peng, A. Nanayakkara, M. Challacombe, P. M. W. Gill, 
 B. Johnson, W. Chen, M. W. Wong, C. Gonzalez, and J. A. Pople, 
 Gaussian, Inc., Pittsburgh PA, 2003.
 
 **********************************************
 Gaussian 03:  x86-Win32-G03RevB.05  8-Nov-2003
                  07-Sep-2006 
 **********************************************
 %mem=24000000
 Default route:  MaxDisk=200GB
 ----------------------------
 #B1B95/6-31G(2df,p) OPT FREQ
 ----------------------------
 1/14=-1,18=20,26=3,38=1/1,3;
 2/9=110,17=6,18=5,40=1/2;
 3/5=1,6=6,7=104,11=2,16=1,25=1,30=1,74=-17/1,2,3;
 4//1;
 5/5=2,38=5/2;
 6/7=2,8=2,9=2,10=2,28=1/1;
 7//1,2,3,16;
 1/14=-1,18=20/3(1);
 99//99;
 2/9=110/2;
 3/5=1,6=6,7=104,11=2,16=1,25=1,30=1,74=-17/1,2,3;
 4/5=5,16=3/1;
 5/5=2,38=5/2;
 7//1,2,3,16;
 1/14=-1,18=20/3(-5);
 2/9=110/2;
 6/7=2,8=2,9=2,10=2,19=2,28=1/1;
 99/9=1/99;
 -------------------------------------------------
 1H pyrazole C3H4N2 casno=288131 method=55 basis=1
 -------------------------------------------------
 Symbolic Z-matrix:
 Charge =  0 Multiplicity = 1
 H                    -1.8728    0.       -1.15878 
 C                    -0.92619   0.       -0.66007 
 H                     0.66681   0.       -2.15994 
 C                     0.34995   0.       -1.13858 
 H                     2.21745   0.        0.09827 
 C                     1.14883   0.        0.02698 
 N                     0.42381   0.        1.10895 
 H                    -1.57341   0.        1.34082 
 N                    -0.83433   0.        0.67814 
 

 GradGradGradGradGradGradGradGradGradGradGradGradGradGradGradGradGradGrad
 Berny optimization.
 Initialization pass.
                           ----------------------------
                           !    Initial Parameters    !
                           ! (Angstroms and Degrees)  !
 --------------------------                            --------------------------
 ! Name  Definition              Value          Derivative Info.                !
 --------------------------------------------------------------------------------
 ! R1    R(1,2)                  1.0699         estimate D2E/DX2                !
 ! R2    R(2,4)                  1.3629         estimate D2E/DX2                !
 ! R3    R(2,9)                  1.3414         estimate D2E/DX2                !
 ! R4    R(3,4)                  1.0694         estimate D2E/DX2                !
 ! R5    R(4,6)                  1.4131         estimate D2E/DX2                !
 ! R6    R(5,6)                  1.071          estimate D2E/DX2                !
 ! R7    R(6,7)                  1.3024         estimate D2E/DX2                !
 ! R8    R(7,9)                  1.3299         estimate D2E/DX2                !
 ! R9    R(8,9)                  0.9927         estimate D2E/DX2                !
 ! A1    A(1,2,4)              131.6638         estimate D2E/DX2                !
 ! A2    A(1,2,9)              121.709          estimate D2E/DX2                !
 ! A3    A(4,2,9)              106.6272         estimate D2E/DX2                !
 ! A4    A(2,4,3)              127.7895         estimate D2E/DX2                !
 ! A5    A(2,4,6)              103.8727         estimate D2E/DX2                !
 ! A6    A(3,4,6)              128.3378         estimate D2E/DX2                !
 ! A7    A(4,6,5)              128.2433         estimate D2E/DX2                !
 ! A8    A(4,6,7)              111.7472         estimate D2E/DX2                !
 ! A9    A(5,6,7)              120.0095         estimate D2E/DX2                !
 ! A10   A(6,7,9)              104.9237         estimate D2E/DX2                !
 ! A11   A(2,9,7)              112.8292         estimate D2E/DX2                !
 ! A12   A(2,9,8)              127.9532         estimate D2E/DX2                !
 ! A13   A(7,9,8)              119.2176         estimate D2E/DX2                !
 ! D1    D(1,2,4,3)              0.0            estimate D2E/DX2                !
 ! D2    D(1,2,4,6)            180.0            estimate D2E/DX2                !
 ! D3    D(9,2,4,3)            180.0            estimate D2E/DX2                !
 ! D4    D(9,2,4,6)              0.0            estimate D2E/DX2                !
 ! D5    D(1,2,9,7)            180.0            estimate D2E/DX2                !
 ! D6    D(1,2,9,8)              0.0            estimate D2E/DX2                !
 ! D7    D(4,2,9,7)              0.0            estimate D2E/DX2                !
 ! D8    D(4,2,9,8)            180.0            estimate D2E/DX2                !
 ! D9    D(2,4,6,5)            180.0            estimate D2E/DX2                !
 ! D10   D(2,4,6,7)              0.0            estimate D2E/DX2                !
 ! D11   D(3,4,6,5)              0.0            estimate D2E/DX2                !
 ! D12   D(3,4,6,7)            180.0            estimate D2E/DX2                !
 ! D13   D(4,6,7,9)              0.0            estimate D2E/DX2                !
 ! D14   D(5,6,7,9)            180.0            estimate D2E/DX2                !
 ! D15   D(6,7,9,2)              0.0            estimate D2E/DX2                !
 ! D16   D(6,7,9,8)            180.0            estimate D2E/DX2                !
 --------------------------------------------------------------------------------
 Trust Radius=3.00D-01 FncErr=1.00D-07 GrdErr=1.00D-06
 Number of steps in this run=  48 maximum allowed number of steps= 100.
 GradGradGradGradGradGradGradGradGradGradGradGradGradGradGradGradGradGrad

                          Input orientation:                          
 ---------------------------------------------------------------------
 Center     Atomic     Atomic              Coordinates (Angstroms)
 Number     Number      Type              X           Y           Z
 ---------------------------------------------------------------------
    1          1             0       -1.872799    0.000000   -1.158779
    2          6             0       -0.926193    0.000000   -0.660070
    3          1             0        0.666806    0.000000   -2.159940
    4          6             0        0.349953    0.000000   -1.138578
    5          1             0        2.217455    0.000000    0.098267
    6          6             0        1.148834    0.000000    0.026983
    7          7             0        0.423812    0.000000    1.108951
    8          1             0       -1.573407    0.000000    1.340816
    9          7             0       -0.834329    0.000000    0.678139
 ---------------------------------------------------------------------
                    Distance matrix (angstroms):
                    1          2          3          4          5
     1  H    0.000000
     2  C    1.069941   0.000000
     3  H    2.729821   2.187980   0.000000
     4  C    2.222844   1.362908   1.069381   0.000000
     5  H    4.279058   3.233821   2.739345   2.239944   0.000000
     6  C    3.245967   2.185814   2.239416   1.413062   1.070995
     7  N    3.227541   2.225298   3.277910   2.248742   2.058794
     8  H    2.517461   2.102957   4.156182   3.137946   3.989305
     9  N    2.110140   1.341359   3.210624   2.168637   3.106386
                    6          7          8          9
     6  C    0.000000
     7  N    1.302425   0.000000
     8  H    3.022706   2.010633   0.000000
     9  N    2.087329   1.329856   0.992661   0.000000
 Stoichiometry    C3H4N2
 Framework group  CS[SG(C3H4N2)]
 Deg. of freedom    15
 Full point group                 CS      NOp   2
 Largest Abelian subgroup         CS      NOp   2
 Largest concise Abelian subgroup C1      NOp   1
                         Standard orientation:                         
 ---------------------------------------------------------------------
 Center     Atomic     Atomic              Coordinates (Angstroms)
 Number     Number      Type              X           Y           Z
 ---------------------------------------------------------------------
    1          1             0        2.080447    0.722417    0.000000
    2          6             0        1.096394    0.302400    0.000000
    3          1             0        1.255542   -1.879784    0.000000
    4          6             0        0.662812   -0.989701    0.000000
    5          1             0       -1.474873   -1.658768    0.000000
    6          6             0       -0.745544   -0.874478    0.000000
    7          7             0       -1.127859    0.370571    0.000000
    8          1             0       -0.048078    2.066660    0.000000
    9          7             0        0.000000    1.075164    0.000000
 ---------------------------------------------------------------------
 Rotational constants (GHZ):      9.8799658      9.6409234      4.8794905
 Standard basis: 6-31G(2df,p) (6D, 7F)
 There are   111 symmetry adapted basis functions of A'  symmetry.
 There are    49 symmetry adapted basis functions of A"  symmetry.
 Integral buffers will be    262144 words long.
 Raffenetti 2 integral format.
 Two-electron integral symmetry is turned on.
   160 basis functions,   248 primitive gaussians,   175 cartesian basis functions
    18 alpha electrons       18 beta electrons
       nuclear repulsion energy       164.9559038372 Hartrees.
 NAtoms=    9 NActive=    9 NUniq=    9 SFac= 1.00D+00 NAtFMM=   60 Big=F
 One-electron integrals computed using PRISM.
 NBasis=   160 RedAO= T  NBF=   111    49
 NBsUse=   160 1.00D-06 NBFU=   111    49
 Harris functional with IExCor=  411 diagonalized for initial guess.
 ExpMin= 1.61D-01 ExpMax= 4.17D+03 ExpMxC= 6.27D+02 IAcc=1 IRadAn=         1 AccDes= 1.00D-06
 HarFok:  IExCor= 411 AccDes= 1.00D-06 IRadAn=         1 IDoV=1
 ScaDFX=  1.000000  1.000000  1.000000  1.000000
 Initial guess orbital symmetries:
       Occupied  (A') (A') (A') (A') (A') (A') (A') (A') (A') (A')
                 (A') (A') (A') (A") (A') (A') (A") (A")
       Virtual   (A") (A") (A') (A') (A') (A') (A') (A') (A') (A')
                 (A') (A') (A') (A") (A') (A') (A") (A') (A') (A")
                 (A") (A') (A') (A") (A') (A") (A') (A') (A') (A")
                 (A") (A') (A') (A') (A") (A") (A') (A') (A') (A')
                 (A') (A") (A") (A') (A') (A") (A') (A') (A") (A')
                 (A') (A") (A') (A') (A') (A') (A') (A') (A") (A')
                 (A') (A") (A') (A") (A') (A") (A') (A') (A") (A')
                 (A") (A') (A') (A') (A') (A") (A') (A") (A') (A")
                 (A') (A') (A') (A") (A') (A') (A") (A') (A') (A")
                 (A") (A') (A') (A') (A") (A') (A') (A") (A') (A")
                 (A') (A") (A') (A") (A") (A') (A") (A") (A") (A')
                 (A") (A") (A') (A") (A") (A') (A") (A') (A') (A')
                 (A") (A') (A') (A') (A') (A') (A") (A') (A') (A')
                 (A') (A') (A') (A') (A') (A') (A') (A') (A') (A')
                 (A') (A')
 The electronic state of the initial guess is 1-A'.
 Requested convergence on RMS density matrix=1.00D-08 within 128 cycles.
 Requested convergence on MAX density matrix=1.00D-06.
 Requested convergence on             energy=1.00D-06.
 No special actions if energy rises.
 Integral accuracy reduced to 1.0D-05 until final iterations.
 Initial convergence to 1.0D-05 achieved.  Increase integral accuracy.
 SCF Done:  E(RB+HF-B95) =  -226.127536982     A.U. after   14 cycles
             Convg  =    0.9241D-08             -V/T =  2.0058
             S**2   =   0.0000

 **********************************************************************

            Population analysis using the SCF density.

 **********************************************************************

 Orbital symmetries:
       Occupied  (A') (A') (A') (A') (A') (A') (A') (A') (A') (A')
                 (A') (A") (A') (A') (A') (A') (A") (A")
       Virtual   (A") (A") (A') (A') (A') (A') (A') (A') (A') (A')
                 (A') (A') (A') (A") (A') (A") (A') (A') (A') (A")
                 (A") (A') (A") (A') (A') (A") (A') (A') (A') (A")
                 (A") (A') (A') (A') (A") (A") (A') (A') (A') (A')
                 (A') (A") (A") (A') (A") (A') (A') (A") (A') (A')
                 (A') (A") (A') (A') (A') (A') (A') (A') (A") (A')
                 (A') (A") (A') (A") (A') (A") (A') (A') (A") (A')
                 (A") (A') (A') (A') (A') (A") (A') (A") (A') (A")
                 (A') (A') (A') (A") (A') (A') (A") (A') (A') (A")
                 (A") (A') (A') (A') (A") (A') (A') (A") (A') (A")
                 (A') (A") (A') (A") (A") (A') (A") (A") (A") (A')
                 (A") (A') (A") (A") (A") (A') (A") (A') (A') (A')
                 (A") (A') (A') (A') (A') (A') (A") (A') (A') (A')
                 (A') (A') (A') (A') (A') (A') (A') (A') (A') (A')
                 (A') (A')
 The electronic state is 1-A'.
 Alpha  occ. eigenvalues --  -14.46872 -14.40648 -10.26841 -10.24649 -10.22671
 Alpha  occ. eigenvalues --   -1.06176  -0.82719  -0.78444  -0.61491  -0.60132
 Alpha  occ. eigenvalues --   -0.54891  -0.44835  -0.44574  -0.42771  -0.39547
 Alpha  occ. eigenvalues --   -0.28733  -0.26112  -0.25073
 Alpha virt. eigenvalues --    0.04052   0.08977   0.10319   0.15732   0.17844
 Alpha virt. eigenvalues --    0.18981   0.23705   0.25242   0.29193   0.35163
 Alpha virt. eigenvalues --    0.43168   0.44804   0.49386   0.50054   0.54156
 Alpha virt. eigenvalues --    0.56604   0.57978   0.60670   0.61069   0.61893
 Alpha virt. eigenvalues --    0.66124   0.69195   0.72489   0.72746   0.75599
 Alpha virt. eigenvalues --    0.79885   0.80855   0.83674   0.85418   0.86065
 Alpha virt. eigenvalues --    0.86634   0.87920   0.93498   1.02576   1.04171
 Alpha virt. eigenvalues --    1.04464   1.07472   1.20676   1.26205   1.28155
 Alpha virt. eigenvalues --    1.32701   1.34474   1.35686   1.44922   1.44986
 Alpha virt. eigenvalues --    1.47722   1.53869   1.56293   1.57472   1.64258
 Alpha virt. eigenvalues --    1.65190   1.74958   1.78352   1.84060   1.89411
 Alpha virt. eigenvalues --    1.93074   1.97864   2.04358   2.07893   2.19624
 Alpha virt. eigenvalues --    2.25583   2.37608   2.45198   2.47493   2.52254
 Alpha virt. eigenvalues --    2.65280   2.69776   2.76855   2.79436   2.84705
 Alpha virt. eigenvalues --    2.87878   2.90772   2.94068   2.98227   3.04601
 Alpha virt. eigenvalues --    3.06080   3.07323   3.10198   3.13359   3.16224
 Alpha virt. eigenvalues --    3.17002   3.21570   3.30861   3.31996   3.35813
 Alpha virt. eigenvalues --    3.42378   3.46271   3.50886   3.54326   3.55327
 Alpha virt. eigenvalues --    3.63822   3.75719   3.77692   3.85839   3.86776
 Alpha virt. eigenvalues --    3.89427   3.98026   3.99935   4.08096   4.13175
 Alpha virt. eigenvalues --    4.13998   4.21184   4.22969   4.28686   4.29594
 Alpha virt. eigenvalues --    4.32344   4.38795   4.46081   4.49760   4.50394
 Alpha virt. eigenvalues --    4.51483   4.52770   4.55036   4.56884   4.61032
 Alpha virt. eigenvalues --    4.64258   4.68281   4.71267   4.71752   4.80608
 Alpha virt. eigenvalues --    4.84619   5.00147   5.05427   5.05928   5.17313
 Alpha virt. eigenvalues --    5.25894   5.28814   5.31812   5.42535   5.48265
 Alpha virt. eigenvalues --    5.50586   5.61146   5.81229   6.08022   6.18603
 Alpha virt. eigenvalues --    9.13612  10.09446  10.54322  11.28395  11.38596
 Alpha virt. eigenvalues --   11.99315  17.28775
          Condensed to atoms (all electrons):
              1          2          3          4          5          6
     1  H    0.539790   0.373626   0.000226  -0.027014  -0.000155   0.001172
     2  C    0.373626   4.913762  -0.041266   0.544860   0.004279   0.015423
     3  H    0.000226  -0.041266   0.569202   0.385676  -0.001153  -0.038858
     4  C   -0.027014   0.544860   0.385676   4.823446  -0.043945   0.549467
     5  H   -0.000155   0.004279  -0.001153  -0.043945   0.562009   0.388436
     6  C    0.001172   0.015423  -0.038858   0.549467   0.388436   4.703162
     7  N    0.005543  -0.168925   0.007147   0.001203  -0.034496   0.538648
     8  H   -0.001056  -0.046239  -0.000144   0.006197  -0.000221   0.006171
     9  N   -0.030947   0.416468   0.003237  -0.015948   0.005563  -0.155857
              7          8          9
     1  H    0.005543  -0.001056  -0.030947
     2  C   -0.168925  -0.046239   0.416468
     3  H    0.007147  -0.000144   0.003237
     4  C    0.001203   0.006197  -0.015948
     5  H   -0.034496  -0.000221   0.005563
     6  C    0.538648   0.006171  -0.155857
     7  N    6.436202  -0.031408   0.464145
     8  H   -0.031408   0.412154   0.369825
     9  N    0.464145   0.369825   6.140915
 Mulliken atomic charges:
              1
     1  H    0.138816
     2  C   -0.011986
     3  H    0.115933
     4  C   -0.223944
     5  H    0.119685
     6  C   -0.007765
     7  N   -0.218060
     8  H    0.284723
     9  N   -0.197403
 Sum of Mulliken charges=   0.00000
 Atomic charges with hydrogens summed into heavy atoms:
              1
     1  H    0.000000
     2  C    0.126830
     3  H    0.000000
     4  C   -0.108010
     5  H    0.000000
     6  C    0.111919
     7  N   -0.218060
     8  H    0.000000
     9  N    0.087320
 Sum of Mulliken charges=   0.00000
 Electronic spatial extent (au):  <R**2>=   279.5452
 Charge=     0.0000 electrons
 Dipole moment (field-independent basis, Debye):
    X=     1.9868    Y=     0.9165    Z=     0.0000  Tot=     2.1880
 Quadrupole moment (field-independent basis, Debye-Ang):
   XX=   -28.9799   YY=   -21.7374   ZZ=   -30.7708
   XY=     2.3225   XZ=     0.0000   YZ=     0.0000
 Traceless Quadrupole moment (field-independent basis, Debye-Ang):
   XX=    -1.8172   YY=     5.4253   ZZ=    -3.6081
   XY=     2.3225   XZ=     0.0000   YZ=     0.0000
 Octapole moment (field-independent basis, Debye-Ang**2):
  XXX=     8.1841  YYY=    11.8926  ZZZ=     0.0000  XYY=     0.3078
  XXY=    -2.0628  XXZ=     0.0000  XZZ=    -0.9543  YZZ=     2.0378
  YYZ=     0.0000  XYZ=     0.0000
 Hexadecapole moment (field-independent basis, Debye-Ang**3):
 XXXX=  -167.3794 YYYY=  -128.1115 ZZZZ=   -29.4316 XXXY=     9.2685
 XXXZ=     0.0000 YYYX=    -1.7726 YYYZ=     0.0000 ZZZX=     0.0000
 ZZZY=     0.0000 XXYY=   -49.6839 XXZZ=   -35.6978 YYZZ=   -34.4481
 XXYZ=     0.0000 YYXZ=     0.0000 ZZXY=    -0.1625
 N-N= 1.649559038372D+02 E-N=-8.564198798210D+02  KE= 2.248211603898D+02
 Symmetry A'   KE= 2.166315385523D+02
 Symmetry A"   KE= 8.189621837569D+00
 ***** Axes restored to original set *****
 -------------------------------------------------------------------
 Center     Atomic                   Forces (Hartrees/Bohr)
 Number     Number              X              Y              Z
 -------------------------------------------------------------------
    1          1          -0.005157132    0.000000000   -0.002506213
    2          6          -0.006006141    0.000000000   -0.004221468
    3          1           0.001108341    0.000000000   -0.005035292
    4          6           0.009337233    0.000000000    0.003585642
    5          1           0.005995407    0.000000000    0.000475081
    6          6           0.003559256    0.000000000   -0.020633003
    7          7          -0.005773235    0.000000000    0.023640355
    8          1          -0.007620350    0.000000000    0.007050403
    9          7           0.004556621    0.000000000   -0.002355505
 -------------------------------------------------------------------
 Cartesian Forces:  Max     0.023640355 RMS     0.007237353

 GradGradGradGradGradGradGradGradGradGradGradGradGradGradGradGradGradGrad
 Berny optimization.
 Internal  Forces:  Max     0.021688058 RMS     0.004909980
 Search for a local minimum.
 Step number   1 out of a maximum of  48
 All quantities printed in internal units (Hartrees-Bohrs-Radians)
 Second derivative matrix not updated -- first step.
     Eigenvalues ---    0.02140   0.02277   0.02344   0.02397   0.02534
     Eigenvalues ---    0.02554   0.16000   0.16000   0.16000   0.16000
     Eigenvalues ---    0.22000   0.22929   0.37105   0.37238   0.37308
     Eigenvalues ---    0.40394   0.48796   0.49002   0.53148   0.57511
     Eigenvalues ---    0.639231000.000001000.000001000.000001000.00000
     Eigenvalues --- 1000.000001000.000001000.000001000.000001000.00000
     Eigenvalues --- 1000.000001000.000001000.000001000.000001000.00000
     Eigenvalues --- 1000.000001000.000001000.00000
 RFO step:  Lambda=-1.66381867D-03.
 Linear search not attempted -- first point.
 Iteration  1 RMS(Cart)=  0.01034887 RMS(Int)=  0.00002525
 Iteration  2 RMS(Cart)=  0.00002599 RMS(Int)=  0.00001129
 Iteration  3 RMS(Cart)=  0.00000000 RMS(Int)=  0.00001129
 Variable       Old X    -DE/DX   Delta X   Delta X   Delta X     New X
                                 (Linear)    (Quad)   (Total)
    R1        2.02190   0.00573   0.00000   0.01532   0.01532   2.03722
    R2        2.57552   0.00999   0.00000   0.01786   0.01784   2.59337
    R3        2.53480   0.00918   0.00000   0.01572   0.01573   2.55054
    R4        2.02084   0.00514   0.00000   0.01372   0.01372   2.03455
    R5        2.67030  -0.00115   0.00000  -0.00288  -0.00290   2.66740
    R6        2.02389   0.00602   0.00000   0.01615   0.01615   2.04003
    R7        2.46123   0.02169   0.00000   0.03329   0.03330   2.49452
    R8        2.51306   0.00561   0.00000   0.01016   0.01018   2.52324
    R9        1.87586   0.01038   0.00000   0.02110   0.02110   1.89696
    A1        2.29797   0.00026   0.00000   0.00365   0.00366   2.30162
    A2        2.12422  -0.00022   0.00000   0.00064   0.00064   2.12487
    A3        1.86100  -0.00004   0.00000  -0.00429  -0.00430   1.85670
    A4        2.23035  -0.00120   0.00000  -0.00432  -0.00430   2.22605
    A5        1.81292   0.00141   0.00000   0.00253   0.00250   1.81542
    A6        2.23992  -0.00021   0.00000   0.00179   0.00180   2.24172
    A7        2.23827  -0.00050   0.00000  -0.00271  -0.00270   2.23556
    A8        1.95036   0.00103   0.00000   0.00561   0.00559   1.95595
    A9        2.09456  -0.00053   0.00000  -0.00290  -0.00289   2.09167
   A10        1.83126  -0.00404   0.00000  -0.01155  -0.01152   1.81975
   A11        1.96924   0.00164   0.00000   0.00770   0.00773   1.97697
   A12        2.23320  -0.00062   0.00000  -0.00258  -0.00259   2.23062
   A13        2.08074  -0.00103   0.00000  -0.00513  -0.00514   2.07560
    D1        0.00000   0.00000   0.00000   0.00000   0.00000   0.00000
    D2        3.14159   0.00000   0.00000   0.00000   0.00000   3.14159
    D3        3.14159   0.00000   0.00000   0.00000   0.00000   3.14159
    D4        0.00000   0.00000   0.00000   0.00000   0.00000   0.00000
    D5        3.14159   0.00000   0.00000   0.00000   0.00000   3.14159
    D6        0.00000   0.00000   0.00000   0.00000   0.00000   0.00000
    D7        0.00000   0.00000   0.00000   0.00000   0.00000   0.00000
    D8        3.14159   0.00000   0.00000   0.00000   0.00000   3.14159
    D9        3.14159   0.00000   0.00000   0.00000   0.00000   3.14159
   D10        0.00000   0.00000   0.00000   0.00000   0.00000   0.00000
   D11        0.00000   0.00000   0.00000   0.00000   0.00000   0.00000
   D12        3.14159   0.00000   0.00000   0.00000   0.00000   3.14159
   D13        0.00000   0.00000   0.00000   0.00000   0.00000   0.00000
   D14        3.14159   0.00000   0.00000   0.00000   0.00000   3.14159
   D15        0.00000   0.00000   0.00000   0.00000   0.00000   0.00000
   D16        3.14159   0.00000   0.00000   0.00000   0.00000   3.14159
         Item               Value     Threshold  Converged?
 Maximum Force            0.021688     0.000450     NO 
 RMS     Force            0.004910     0.000300     NO 
 Maximum Displacement     0.028178     0.001800     NO 
 RMS     Displacement     0.010337     0.001200     NO 
 Predicted change in Energy=-8.345080D-04
 GradGradGradGradGradGradGradGradGradGradGradGradGradGradGradGradGradGrad

                          Input orientation:                          
 ---------------------------------------------------------------------
 Center     Atomic     Atomic              Coordinates (Angstroms)
 Number     Number      Type              X           Y           Z
 ---------------------------------------------------------------------
    1          1             0       -1.884577    0.000000   -1.165543
    2          6             0       -0.930573    0.000000   -0.663482
    3          1             0        0.673835    0.000000   -2.169821
    4          6             0        0.355953    0.000000   -1.141179
    5          1             0        2.230424    0.000000    0.093390
    6          6             0        1.153138    0.000000    0.023684
    7          7             0        0.423669    0.000000    1.123862
    8          1             0       -1.585067    0.000000    1.351944
    9          7             0       -0.836671    0.000000    0.682933
 ---------------------------------------------------------------------
                    Distance matrix (angstroms):
                    1          2          3          4          5
     1  H    0.000000
     2  C    1.078048   0.000000
     3  H    2.748463   2.200723   0.000000
     4  C    2.240663   1.372350   1.076640   0.000000
     5  H    4.303272   3.250348   2.746833   2.244504   0.000000
     6  C    3.262203   2.194094   2.245260   1.411526   1.079539
     7  N    3.251057   2.242447   3.303169   2.266052   2.079962
     8  H    2.535240   2.119033   4.183953   3.159623   4.017702
     9  N    2.124846   1.349685   3.227976   2.179389   3.123241
                    6          7          8          9
     6  C    0.000000
     7  N    1.320045   0.000000
     8  H    3.043360   2.021643   0.000000
     9  N    2.096174   1.335243   1.003829   0.000000
 Stoichiometry    C3H4N2
 Framework group  CS[SG(C3H4N2)]
 Deg. of freedom    15
 Full point group                 CS      NOp   2
 Largest Abelian subgroup         CS      NOp   2
 Largest concise Abelian subgroup C1      NOp   1
                         Standard orientation:                         
 ---------------------------------------------------------------------
 Center     Atomic     Atomic              Coordinates (Angstroms)
 Number     Number      Type              X           Y           Z
 ---------------------------------------------------------------------
    1          1             0        2.095223    0.725497    0.000000
    2          6             0        1.103731    0.302259    0.000000
    3          1             0        1.259806   -1.892923    0.000000
    4          6             0        0.662441   -0.997206    0.000000
    5          1             0       -1.478148   -1.672245    0.000000
    6          6             0       -0.744255   -0.880534    0.000000
    7          7             0       -1.137382    0.379612    0.000000
    8          1             0       -0.046708    2.081808    0.000000
    9          7             0        0.000000    1.079066    0.000000
 ---------------------------------------------------------------------
 Rotational constants (GHZ):      9.7762083      9.5162783      4.8222461
 Standard basis: 6-31G(2df,p) (6D, 7F)
 There are   111 symmetry adapted basis functions of A'  symmetry.
 There are    49 symmetry adapted basis functions of A"  symmetry.
 Integral buffers will be    262144 words long.
 Raffenetti 2 integral format.
 Two-electron integral symmetry is turned on.
   160 basis functions,   248 primitive gaussians,   175 cartesian basis functions
    18 alpha electrons       18 beta electrons
       nuclear repulsion energy       163.9405965827 Hartrees.
 NAtoms=    9 NActive=    9 NUniq=    9 SFac= 1.00D+00 NAtFMM=   60 Big=F
 One-electron integrals computed using PRISM.
 NBasis=   160 RedAO= T  NBF=   111    49
 NBsUse=   160 1.00D-06 NBFU=   111    49
 Initial guess read from the read-write file:
 Initial guess orbital symmetries:
       Occupied  (A') (A') (A') (A') (A') (A') (A') (A') (A') (A')
                 (A') (A") (A') (A') (A') (A') (A") (A")
       Virtual   (A") (A") (A') (A') (A') (A') (A') (A') (A') (A')
                 (A') (A') (A') (A") (A') (A") (A') (A') (A') (A")
                 (A") (A') (A") (A') (A') (A") (A') (A') (A') (A")
                 (A") (A') (A') (A') (A") (A") (A') (A') (A') (A')
                 (A') (A") (A") (A') (A") (A') (A') (A") (A') (A')
                 (A') (A") (A') (A') (A') (A') (A') (A') (A") (A')
                 (A') (A") (A') (A") (A') (A") (A') (A') (A") (A')
                 (A") (A') (A') (A') (A') (A") (A') (A") (A') (A")
                 (A') (A') (A') (A") (A') (A') (A") (A') (A') (A")
                 (A") (A') (A') (A') (A") (A') (A') (A") (A') (A")
                 (A') (A") (A') (A") (A") (A') (A") (A") (A") (A')
                 (A") (A') (A") (A") (A") (A') (A") (A') (A') (A')
                 (A") (A') (A') (A') (A') (A') (A") (A') (A') (A')
                 (A') (A') (A') (A') (A') (A') (A') (A') (A') (A')
                 (A') (A')
 Harris functional with IExCor=  411 diagonalized for initial guess.
 ExpMin= 1.61D-01 ExpMax= 4.17D+03 ExpMxC= 6.27D+02 IAcc=1 IRadAn=         1 AccDes= 1.00D-06
 HarFok:  IExCor= 411 AccDes= 1.00D-06 IRadAn=         1 IDoV=1
 ScaDFX=  1.000000  1.000000  1.000000  1.000000
 Requested convergence on RMS density matrix=1.00D-08 within 128 cycles.
 Requested convergence on MAX density matrix=1.00D-06.
 Requested convergence on             energy=1.00D-06.
 No special actions if energy rises.
 Integral accuracy reduced to 1.0D-05 until final iterations.
 Initial convergence to 1.0D-05 achieved.  Increase integral accuracy.
 SCF Done:  E(RB+HF-B95) =  -226.128430745     A.U. after   12 cycles
             Convg  =    0.8384D-08             -V/T =  2.0066
             S**2   =   0.0000
 ***** Axes restored to original set *****
 -------------------------------------------------------------------
 Center     Atomic                   Forces (Hartrees/Bohr)
 Number     Number              X              Y              Z
 -------------------------------------------------------------------
    1          1           0.000169843    0.000000000    0.000401552
    2          6          -0.001926411    0.000000000   -0.000135038
    3          1          -0.000246375    0.000000000    0.000126136
    4          6           0.002758611    0.000000000    0.003760656
    5          1          -0.000319305    0.000000000    0.000502184
    6          6           0.000668710    0.000000000   -0.006777305
    7          7          -0.001787891    0.000000000    0.004005726
    8          1          -0.000029968    0.000000000   -0.000160680
    9          7           0.000712787    0.000000000   -0.001723230
 -------------------------------------------------------------------
 Cartesian Forces:  Max     0.006777305 RMS     0.001878024

 GradGradGradGradGradGradGradGradGradGradGradGradGradGradGradGradGradGrad
 Berny optimization.
 Internal  Forces:  Max     0.003534742 RMS     0.000888762
 Search for a local minimum.
 Step number   2 out of a maximum of  48
 All quantities printed in internal units (Hartrees-Bohrs-Radians)
 Update second derivatives using D2CorX and points  1  2
 Trust test= 1.07D+00 RLast= 5.70D-02 DXMaxT set to 3.00D-01
     Eigenvalues ---    0.02140   0.02276   0.02344   0.02397   0.02534
     Eigenvalues ---    0.02554   0.15898   0.16000   0.16000   0.16019
     Eigenvalues ---    0.21457   0.22786   0.37060   0.37217   0.37284
     Eigenvalues ---    0.39946   0.48849   0.49273   0.53493   0.57950
     Eigenvalues ---    0.605231000.000001000.000001000.000001000.00000
     Eigenvalues --- 1000.000001000.000001000.000001000.000001000.00000
     Eigenvalues --- 1000.000001000.000001000.000001000.000001000.00000
     Eigenvalues --- 1000.000001000.000001000.00000
 RFO step:  Lambda=-6.75201688D-05.
 Quartic linear search produced a step of  0.09740.
 Iteration  1 RMS(Cart)=  0.00180809 RMS(Int)=  0.00000348
 Iteration  2 RMS(Cart)=  0.00000397 RMS(Int)=  0.00000178
 Iteration  3 RMS(Cart)=  0.00000000 RMS(Int)=  0.00000178
 Variable       Old X    -DE/DX   Delta X   Delta X   Delta X     New X
                                 (Linear)    (Quad)   (Total)
    R1        2.03722  -0.00034   0.00149  -0.00180  -0.00031   2.03691
    R2        2.59337   0.00092   0.00174   0.00063   0.00236   2.59573
    R3        2.55054  -0.00100   0.00153  -0.00296  -0.00143   2.54911
    R4        2.03455  -0.00019   0.00134  -0.00128   0.00005   2.03461
    R5        2.66740  -0.00327  -0.00028  -0.00808  -0.00837   2.65903
    R6        2.04003  -0.00028   0.00157  -0.00168  -0.00011   2.03992
    R7        2.49452   0.00353   0.00324   0.00428   0.00753   2.50205
    R8        2.52324   0.00007   0.00099  -0.00024   0.00076   2.52400
    R9        1.89696  -0.00009   0.00206  -0.00133   0.00073   1.89769
    A1        2.30162   0.00057   0.00036   0.00400   0.00436   2.30598
    A2        2.12487  -0.00009   0.00006  -0.00040  -0.00034   2.12453
    A3        1.85670  -0.00049  -0.00042  -0.00360  -0.00402   1.85268
    A4        2.22605  -0.00077  -0.00042  -0.00360  -0.00402   2.22203
    A5        1.81542   0.00104   0.00024   0.00404   0.00428   1.81970
    A6        2.24172  -0.00027   0.00018  -0.00044  -0.00026   2.24146
    A7        2.23556   0.00059  -0.00026   0.00369   0.00343   2.23899
    A8        1.95595  -0.00022   0.00054  -0.00085  -0.00031   1.95564
    A9        2.09167  -0.00037  -0.00028  -0.00285  -0.00313   2.08855
   A10        1.81975  -0.00105  -0.00112  -0.00264  -0.00376   1.81599
   A11        1.97697   0.00072   0.00075   0.00304   0.00380   1.98077
   A12        2.23062  -0.00044  -0.00025  -0.00216  -0.00241   2.22820
   A13        2.07560  -0.00027  -0.00050  -0.00089  -0.00139   2.07421
    D1        0.00000   0.00000   0.00000   0.00000   0.00000   0.00000
    D2        3.14159   0.00000   0.00000   0.00000   0.00000   3.14159
    D3        3.14159   0.00000   0.00000   0.00000   0.00000   3.14159
    D4        0.00000   0.00000   0.00000   0.00000   0.00000   0.00000
    D5        3.14159   0.00000   0.00000   0.00000   0.00000   3.14159
    D6        0.00000   0.00000   0.00000   0.00000   0.00000   0.00000
    D7        0.00000   0.00000   0.00000   0.00000   0.00000   0.00000
    D8        3.14159   0.00000   0.00000   0.00000   0.00000   3.14159
    D9        3.14159   0.00000   0.00000   0.00000   0.00000   3.14159
   D10        0.00000   0.00000   0.00000   0.00000   0.00000   0.00000
   D11        0.00000   0.00000   0.00000   0.00000   0.00000   0.00000
   D12        3.14159   0.00000   0.00000   0.00000   0.00000   3.14159
   D13        0.00000   0.00000   0.00000   0.00000   0.00000   0.00000
   D14        3.14159   0.00000   0.00000   0.00000   0.00000   3.14159
   D15        0.00000   0.00000   0.00000   0.00000   0.00000   0.00000
   D16        3.14159   0.00000   0.00000   0.00000   0.00000   3.14159
         Item               Value     Threshold  Converged?
 Maximum Force            0.003535     0.000450     NO 
 RMS     Force            0.000889     0.000300     NO 
 Maximum Displacement     0.004804     0.001800     NO 
 RMS     Displacement     0.001808     0.001200     NO 
 Predicted change in Energy=-4.015380D-05
 GradGradGradGradGradGradGradGradGradGradGradGradGradGradGradGradGradGrad

                          Input orientation:                          
 ---------------------------------------------------------------------
 Center     Atomic     Atomic              Coordinates (Angstroms)
 Number     Number      Type              X           Y           Z
 ---------------------------------------------------------------------
    1          1             0       -1.886381    0.000000   -1.164436
    2          6             0       -0.931671    0.000000   -0.664069
    3          1             0        0.673786    0.000000   -2.167876
    4          6             0        0.357295    0.000000   -1.138775
    5          1             0        2.230962    0.000000    0.092791
    6          6             0        1.153862    0.000000    0.021141
    7          7             0        0.423646    0.000000    1.125602
    8          1             0       -1.585376    0.000000    1.349944
    9          7             0       -0.835990    0.000000    0.681464
 ---------------------------------------------------------------------
                    Distance matrix (angstroms):
                    1          2          3          4          5
     1  H    0.000000
     2  C    1.077886   0.000000
     3  H    2.749790   2.199756   0.000000
     4  C    2.243823   1.373601   1.076669   0.000000
     5  H    4.305013   3.251936   2.745071   2.242183   0.000000
     6  C    3.263230   2.195213   2.241042   1.407098   1.079481
     7  N    3.252767   2.244951   3.302963   2.265348   2.081608
     8  H    2.532333   2.117447   4.180774   3.157166   4.018069
     9  N    2.123833   1.348931   3.224618   2.176510   3.122936
                    6          7          8          9
     6  C    0.000000
     7  N    1.324027   0.000000
     8  H    3.044527   2.021509   0.000000
     9  N    2.096553   1.335642   1.004214   0.000000
 Stoichiometry    C3H4N2
 Framework group  CS[SG(C3H4N2)]
 Deg. of freedom    15
 Full point group                 CS      NOp   2
 Largest Abelian subgroup         CS      NOp   2
 Largest concise Abelian subgroup C1      NOp   1
                         Standard orientation:                         
 ---------------------------------------------------------------------
 Center     Atomic     Atomic              Coordinates (Angstroms)
 Number     Number      Type              X           Y           Z
 ---------------------------------------------------------------------
    1          1             0        2.095058    0.729416    0.000000
    2          6             0        1.104758    0.303806    0.000000
    3          1             0        1.259879   -1.890474    0.000000
    4          6             0        0.660600   -0.996003    0.000000
    5          1             0       -1.476638   -1.673940    0.000000
    6          6             0       -0.741956   -0.883041    0.000000
    7          7             0       -1.138896    0.380085    0.000000
    8          1             0       -0.046435    2.080976    0.000000
    9          7             0        0.000000    1.077836    0.000000
 ---------------------------------------------------------------------
 Rotational constants (GHZ):      9.7684788      9.5232077      4.8221420
 Standard basis: 6-31G(2df,p) (6D, 7F)
 There are   111 symmetry adapted basis functions of A'  symmetry.
 There are    49 symmetry adapted basis functions of A"  symmetry.
 Integral buffers will be    262144 words long.
 Raffenetti 2 integral format.
 Two-electron integral symmetry is turned on.
   160 basis functions,   248 primitive gaussians,   175 cartesian basis functions
    18 alpha electrons       18 beta electrons
       nuclear repulsion energy       163.9255591772 Hartrees.
 NAtoms=    9 NActive=    9 NUniq=    9 SFac= 1.00D+00 NAtFMM=   60 Big=F
 One-electron integrals computed using PRISM.
 NBasis=   160 RedAO= T  NBF=   111    49
 NBsUse=   160 1.00D-06 NBFU=   111    49
 Initial guess read from the read-write file:
 Initial guess orbital symmetries:
       Occupied  (A') (A') (A') (A') (A') (A') (A') (A') (A') (A')
                 (A') (A") (A') (A') (A') (A') (A") (A")
       Virtual   (A") (A") (A') (A') (A') (A') (A') (A') (A') (A')
                 (A') (A') (A') (A") (A') (A") (A') (A') (A') (A")
                 (A") (A') (A") (A') (A') (A") (A') (A') (A') (A")
                 (A") (A') (A') (A') (A") (A") (A') (A') (A') (A')
                 (A') (A") (A") (A') (A") (A') (A') (A") (A') (A')
                 (A') (A") (A') (A') (A') (A') (A') (A') (A") (A')
                 (A') (A") (A') (A") (A') (A") (A') (A') (A") (A')
                 (A") (A') (A') (A') (A') (A") (A') (A") (A') (A')
                 (A") (A') (A') (A") (A') (A') (A") (A') (A') (A")
                 (A") (A') (A') (A') (A") (A') (A') (A") (A') (A')
                 (A") (A') (A") (A") (A") (A') (A") (A") (A") (A')
                 (A") (A') (A") (A") (A") (A') (A") (A') (A') (A')
                 (A") (A') (A') (A') (A') (A') (A") (A') (A') (A')
                 (A') (A') (A') (A') (A') (A') (A') (A') (A') (A')
                 (A') (A')
 Requested convergence on RMS density matrix=1.00D-08 within 128 cycles.
 Requested convergence on MAX density matrix=1.00D-06.
 Requested convergence on             energy=1.00D-06.
 No special actions if energy rises.
 SCF Done:  E(RB+HF-B95) =  -226.128478914     A.U. after    9 cycles
             Convg  =    0.3751D-08             -V/T =  2.0066
             S**2   =   0.0000
 ***** Axes restored to original set *****
 -------------------------------------------------------------------
 Center     Atomic                   Forces (Hartrees/Bohr)
 Number     Number              X              Y              Z
 -------------------------------------------------------------------
    1          1           0.000259391    0.000000000    0.000176600
    2          6          -0.000399822    0.000000000    0.000451954
    3          1          -0.000086422    0.000000000    0.000089036
    4          6           0.000942420    0.000000000    0.000638997
    5          1          -0.000309302    0.000000000    0.000273935
    6          6           0.000229491    0.000000000   -0.001762751
    7          7          -0.000971171    0.000000000    0.000539789
    8          1           0.000184303    0.000000000   -0.000260183
    9          7           0.000151112    0.000000000   -0.000147378
 -------------------------------------------------------------------
 Cartesian Forces:  Max     0.001762751 RMS     0.000490121

 GradGradGradGradGradGradGradGradGradGradGradGradGradGradGradGradGradGrad
 Berny optimization.
 Internal  Forces:  Max     0.000973955 RMS     0.000274076
 Search for a local minimum.
 Step number   3 out of a maximum of  48
 All quantities printed in internal units (Hartrees-Bohrs-Radians)
 Update second derivatives using D2CorX and points  1  2  3
 Trust test= 1.20D+00 RLast= 1.62D-02 DXMaxT set to 3.00D-01
     Eigenvalues ---    0.02138   0.02275   0.02343   0.02397   0.02534
     Eigenvalues ---    0.02553   0.14689   0.16000   0.16006   0.16019
     Eigenvalues ---    0.22680   0.22968   0.33534   0.37160   0.37398
     Eigenvalues ---    0.38225   0.47469   0.49248   0.50402   0.58431
     Eigenvalues ---    0.621901000.000001000.000001000.000001000.00000
     Eigenvalues --- 1000.000001000.000001000.000001000.000001000.00000
     Eigenvalues --- 1000.000001000.000001000.000001000.000001000.00000
     Eigenvalues --- 1000.000001000.000001000.00000
 RFO step:  Lambda=-4.44895796D-06.
 Quartic linear search produced a step of  0.29219.
 Iteration  1 RMS(Cart)=  0.00080105 RMS(Int)=  0.00000090
 Iteration  2 RMS(Cart)=  0.00000087 RMS(Int)=  0.00000035
 Variable       Old X    -DE/DX   Delta X   Delta X   Delta X     New X
                                 (Linear)    (Quad)   (Total)
    R1        2.03691  -0.00031  -0.00009  -0.00075  -0.00083   2.03607
    R2        2.59573   0.00034   0.00069   0.00056   0.00125   2.59698
    R3        2.54911  -0.00055  -0.00042  -0.00077  -0.00119   2.54792
    R4        2.03461  -0.00011   0.00002  -0.00015  -0.00014   2.03447
    R5        2.65903  -0.00097  -0.00245  -0.00096  -0.00341   2.65562
    R6        2.03992  -0.00029  -0.00003  -0.00069  -0.00072   2.03920
    R7        2.50205   0.00082   0.00220   0.00052   0.00272   2.50477
    R8        2.52400  -0.00056   0.00022  -0.00123  -0.00101   2.52299
    R9        1.89769  -0.00031   0.00021  -0.00063  -0.00042   1.89727
    A1        2.30598   0.00001   0.00127  -0.00033   0.00094   2.30692
    A2        2.12453  -0.00015  -0.00010  -0.00082  -0.00092   2.12361
    A3        1.85268   0.00014  -0.00117   0.00115  -0.00002   1.85266
    A4        2.22203  -0.00008  -0.00117  -0.00005  -0.00122   2.22080
    A5        1.81970  -0.00004   0.00125  -0.00096   0.00029   1.81999
    A6        2.24146   0.00012  -0.00008   0.00101   0.00093   2.24239
    A7        2.23899   0.00030   0.00100   0.00135   0.00235   2.24134
    A8        1.95564  -0.00009  -0.00009   0.00002  -0.00007   1.95558
    A9        2.08855  -0.00020  -0.00091  -0.00137  -0.00228   2.08626
   A10        1.81599  -0.00001  -0.00110   0.00069  -0.00041   1.81558
   A11        1.98077   0.00001   0.00111  -0.00091   0.00020   1.98097
   A12        2.22820  -0.00003  -0.00070   0.00040  -0.00031   2.22790
   A13        2.07421   0.00002  -0.00041   0.00051   0.00011   2.07432
    D1        0.00000   0.00000   0.00000   0.00000   0.00000   0.00000
    D2        3.14159   0.00000   0.00000   0.00000   0.00000   3.14159
    D3        3.14159   0.00000   0.00000   0.00000   0.00000   3.14159
    D4        0.00000   0.00000   0.00000   0.00000   0.00000   0.00000
    D5        3.14159   0.00000   0.00000   0.00000   0.00000   3.14159
    D6        0.00000   0.00000   0.00000   0.00000   0.00000   0.00000
    D7        0.00000   0.00000   0.00000   0.00000   0.00000   0.00000
    D8        3.14159   0.00000   0.00000   0.00000   0.00000   3.14159
    D9        3.14159   0.00000   0.00000   0.00000   0.00000   3.14159
   D10        0.00000   0.00000   0.00000   0.00000   0.00000   0.00000
   D11        0.00000   0.00000   0.00000   0.00000   0.00000   0.00000
   D12        3.14159   0.00000   0.00000   0.00000   0.00000   3.14159
   D13        0.00000   0.00000   0.00000   0.00000   0.00000   0.00000
   D14        3.14159   0.00000   0.00000   0.00000   0.00000   3.14159
   D15        0.00000   0.00000   0.00000   0.00000   0.00000   0.00000
   D16        3.14159   0.00000   0.00000   0.00000   0.00000   3.14159
         Item               Value     Threshold  Converged?
 Maximum Force            0.000974     0.000450     NO 
 RMS     Force            0.000274     0.000300     YES
 Maximum Displacement     0.002730     0.001800     NO 
 RMS     Displacement     0.000801     0.001200     YES
 Predicted change in Energy=-4.389322D-06
 GradGradGradGradGradGradGradGradGradGradGradGradGradGradGradGradGradGrad

                          Input orientation:                          
 ---------------------------------------------------------------------
 Center     Atomic     Atomic              Coordinates (Angstroms)
 Number     Number      Type              X           Y           Z
 ---------------------------------------------------------------------
    1          1             0       -1.886216    0.000000   -1.163098
    2          6             0       -0.931471    0.000000   -0.663749
    3          1             0        0.673458    0.000000   -2.167961
    4          6             0        0.358157    0.000000   -1.138570
    5          1             0        2.230503    0.000000    0.093631
    6          6             0        1.153941    0.000000    0.019697
    7          7             0        0.423085    0.000000    1.125459
    8          1             0       -1.585399    0.000000    1.349216
    9          7             0       -0.835927    0.000000    0.681163
 ---------------------------------------------------------------------
                    Distance matrix (angstroms):
                    1          2          3          4          5
     1  H    0.000000
     2  C    1.077444   0.000000
     3  H    2.749851   2.199648   0.000000
     4  C    2.244507   1.374261   1.076597   0.000000
     5  H    4.304270   3.251416   2.745758   2.241428   0.000000
     6  C    3.262140   2.194548   2.239802   1.405295   1.079098
     7  N    3.251210   2.244124   3.302924   2.264960   2.081209
     8  H    2.530259   2.116519   4.180068   3.156975   4.017164
     9  N    2.122358   1.348302   3.224244   2.176525   3.122209
                    6          7          8          9
     6  C    0.000000
     7  N    1.325467   0.000000
     8  H    3.044931   2.020910   0.000000
     9  N    2.096929   1.335107   1.003994   0.000000
 Stoichiometry    C3H4N2
 Framework group  CS[SG(C3H4N2)]
 Deg. of freedom    15
 Full point group                 CS      NOp   2
 Largest Abelian subgroup         CS      NOp   2
 Largest concise Abelian subgroup C1      NOp   1
                         Standard orientation:                         
 ---------------------------------------------------------------------
 Center     Atomic     Atomic              Coordinates (Angstroms)
 Number     Number      Type              X           Y           Z
 ---------------------------------------------------------------------
    1          1             0        2.093749    0.730482    0.000000
    2          6             0        1.104251    0.304125    0.000000
    3          1             0        1.260193   -1.889988    0.000000
    4          6             0        0.659867   -0.996305    0.000000
    5          1             0       -1.476977   -1.672985    0.000000
    6          6             0       -0.740924   -0.883886    0.000000
    7          7             0       -1.138571    0.380527    0.000000
    8          1             0       -0.046129    2.080717    0.000000
    9          7             0        0.000000    1.077783    0.000000
 ---------------------------------------------------------------------
 Rotational constants (GHZ):      9.7664220      9.5308127      4.8235895
 Standard basis: 6-31G(2df,p) (6D, 7F)
 There are   111 symmetry adapted basis functions of A'  symmetry.
 There are    49 symmetry adapted basis functions of A"  symmetry.
 Integral buffers will be    262144 words long.
 Raffenetti 2 integral format.
 Two-electron integral symmetry is turned on.
   160 basis functions,   248 primitive gaussians,   175 cartesian basis functions
    18 alpha electrons       18 beta electrons
       nuclear repulsion energy       163.9479624080 Hartrees.
 NAtoms=    9 NActive=    9 NUniq=    9 SFac= 1.00D+00 NAtFMM=   60 Big=F
 One-electron integrals computed using PRISM.
 NBasis=   160 RedAO= T  NBF=   111    49
 NBsUse=   160 1.00D-06 NBFU=   111    49
 Initial guess read from the read-write file:
 Initial guess orbital symmetries:
       Occupied  (A') (A') (A') (A') (A') (A') (A') (A') (A') (A')
                 (A') (A") (A') (A') (A') (A') (A") (A")
       Virtual   (A") (A") (A') (A') (A') (A') (A') (A') (A') (A')
                 (A') (A') (A') (A") (A') (A") (A') (A') (A') (A")
                 (A") (A') (A") (A') (A') (A") (A') (A') (A') (A")
                 (A") (A') (A') (A') (A") (A") (A') (A') (A') (A')
                 (A') (A") (A") (A') (A") (A') (A') (A") (A') (A')
                 (A') (A") (A') (A') (A') (A') (A') (A') (A") (A')
                 (A') (A") (A') (A") (A') (A") (A') (A') (A") (A')
                 (A") (A') (A') (A') (A') (A") (A') (A") (A') (A')
                 (A") (A') (A') (A") (A') (A') (A") (A') (A') (A")
                 (A") (A') (A') (A') (A") (A') (A') (A") (A') (A')
                 (A") (A') (A") (A") (A") (A') (A") (A") (A") (A')
                 (A') (A") (A") (A") (A") (A') (A") (A') (A') (A')
                 (A") (A') (A') (A') (A') (A') (A") (A') (A') (A')
                 (A') (A') (A') (A') (A') (A') (A') (A') (A') (A')
                 (A') (A')
 Requested convergence on RMS density matrix=1.00D-08 within 128 cycles.
 Requested convergence on MAX density matrix=1.00D-06.
 Requested convergence on             energy=1.00D-06.
 No special actions if energy rises.
 SCF Done:  E(RB+HF-B95) =  -226.128483253     A.U. after    9 cycles
             Convg  =    0.2992D-08             -V/T =  2.0065
             S**2   =   0.0000
 ***** Axes restored to original set *****
 -------------------------------------------------------------------
 Center     Atomic                   Forces (Hartrees/Bohr)
 Number     Number              X              Y              Z
 -------------------------------------------------------------------
    1          1           0.000035456    0.000000000   -0.000089123
    2          6          -0.000067639    0.000000000    0.000131094
    3          1          -0.000012796    0.000000000    0.000047602
    4          6          -0.000096277    0.000000000   -0.000127951
    5          1          -0.000040083    0.000000000    0.000111617
    6          6           0.000019782    0.000000000    0.000265584
    7          7          -0.000100593    0.000000000   -0.000144245
    8          1           0.000015977    0.000000000   -0.000095970
    9          7           0.000246172    0.000000000   -0.000098607
 -------------------------------------------------------------------
 Cartesian Forces:  Max     0.000265584 RMS     0.000097132

 GradGradGradGradGradGradGradGradGradGradGradGradGradGradGradGradGradGrad
 Berny optimization.
 Internal  Forces:  Max     0.000199001 RMS     0.000069470
 Search for a local minimum.
 Step number   4 out of a maximum of  48
 All quantities printed in internal units (Hartrees-Bohrs-Radians)
 Update second derivatives using D2CorX and points  1  2  3  4
 Trust test= 9.89D-01 RLast= 6.30D-03 DXMaxT set to 3.00D-01
     Eigenvalues ---    0.02137   0.02275   0.02343   0.02397   0.02534
     Eigenvalues ---    0.02553   0.12890   0.16000   0.16005   0.16141
     Eigenvalues ---    0.22052   0.22778   0.37129   0.37340   0.37534
     Eigenvalues ---    0.40301   0.46721   0.49007   0.50174   0.57445
     Eigenvalues ---    0.606351000.000001000.000001000.000001000.00000
     Eigenvalues --- 1000.000001000.000001000.000001000.000001000.00000
     Eigenvalues --- 1000.000001000.000001000.000001000.000001000.00000
     Eigenvalues --- 1000.000001000.000001000.00000
 RFO step:  Lambda=-4.25638385D-07.
 Quartic linear search produced a step of -0.05469.
 Iteration  1 RMS(Cart)=  0.00028144 RMS(Int)=  0.00000004
 Iteration  2 RMS(Cart)=  0.00000004 RMS(Int)=  0.00000001
 Variable       Old X    -DE/DX   Delta X   Delta X   Delta X     New X
                                 (Linear)    (Quad)   (Total)
    R1        2.03607   0.00001   0.00005  -0.00004   0.00001   2.03608
    R2        2.59698  -0.00007  -0.00007  -0.00003  -0.00010   2.59688
    R3        2.54792  -0.00013   0.00006  -0.00031  -0.00025   2.54767
    R4        2.03447  -0.00005   0.00001  -0.00013  -0.00012   2.03435
    R5        2.65562   0.00018   0.00019   0.00023   0.00041   2.65604
    R6        2.03920  -0.00003   0.00004  -0.00013  -0.00009   2.03911
    R7        2.50477  -0.00020  -0.00015  -0.00013  -0.00028   2.50449
    R8        2.52299  -0.00017   0.00006  -0.00039  -0.00033   2.52265
    R9        1.89727  -0.00008   0.00002  -0.00019  -0.00017   1.89711
    A1        2.30692  -0.00002  -0.00005  -0.00015  -0.00020   2.30672
    A2        2.12361   0.00008   0.00005   0.00036   0.00041   2.12402
    A3        1.85266  -0.00006   0.00000  -0.00021  -0.00021   1.85245
    A4        2.22080  -0.00003   0.00007  -0.00031  -0.00024   2.22056
    A5        1.81999  -0.00003  -0.00002  -0.00001  -0.00002   1.81997
    A6        2.24239   0.00006  -0.00005   0.00032   0.00027   2.24265
    A7        2.24134   0.00008  -0.00013   0.00056   0.00043   2.24178
    A8        1.95558  -0.00003   0.00000  -0.00007  -0.00007   1.95551
    A9        2.08626  -0.00005   0.00012  -0.00049  -0.00036   2.08590
   A10        1.81558   0.00000   0.00002  -0.00012  -0.00009   1.81549
   A11        1.98097   0.00013  -0.00001   0.00041   0.00040   1.98136
   A12        2.22790  -0.00008   0.00002  -0.00029  -0.00028   2.22762
   A13        2.07432  -0.00005  -0.00001  -0.00011  -0.00012   2.07420
    D1        0.00000   0.00000   0.00000   0.00000   0.00000   0.00000
    D2        3.14159   0.00000   0.00000   0.00000   0.00000   3.14159
    D3        3.14159   0.00000   0.00000   0.00000   0.00000   3.14159
    D4        0.00000   0.00000   0.00000   0.00000   0.00000   0.00000
    D5        3.14159   0.00000   0.00000   0.00000   0.00000   3.14159
    D6        0.00000   0.00000   0.00000   0.00000   0.00000   0.00000
    D7        0.00000   0.00000   0.00000   0.00000   0.00000   0.00000
    D8        3.14159   0.00000   0.00000   0.00000   0.00000   3.14159
    D9        3.14159   0.00000   0.00000   0.00000   0.00000   3.14159
   D10        0.00000   0.00000   0.00000   0.00000   0.00000   0.00000
   D11        0.00000   0.00000   0.00000   0.00000   0.00000   0.00000
   D12        3.14159   0.00000   0.00000   0.00000   0.00000   3.14159
   D13        0.00000   0.00000   0.00000   0.00000   0.00000   0.00000
   D14        3.14159   0.00000   0.00000   0.00000   0.00000   3.14159
   D15        0.00000   0.00000   0.00000   0.00000   0.00000   0.00000
   D16        3.14159   0.00000   0.00000   0.00000   0.00000   3.14159
         Item               Value     Threshold  Converged?
 Maximum Force            0.000199     0.000450     YES
 RMS     Force            0.000069     0.000300     YES
 Maximum Displacement     0.001012     0.001800     YES
 RMS     Displacement     0.000281     0.001200     YES
 Predicted change in Energy=-2.278816D-07
 Optimization completed.
    -- Stationary point found.
                           ----------------------------
                           !   Optimized Parameters   !
                           ! (Angstroms and Degrees)  !
 --------------------------                            --------------------------
 ! Name  Definition              Value          Derivative Info.                !
 --------------------------------------------------------------------------------
 ! R1    R(1,2)                  1.0774         -DE/DX =    0.0                 !
 ! R2    R(2,4)                  1.3743         -DE/DX =   -0.0001              !
 ! R3    R(2,9)                  1.3483         -DE/DX =   -0.0001              !
 ! R4    R(3,4)                  1.0766         -DE/DX =    0.0                 !
 ! R5    R(4,6)                  1.4053         -DE/DX =    0.0002              !
 ! R6    R(5,6)                  1.0791         -DE/DX =    0.0                 !
 ! R7    R(6,7)                  1.3255         -DE/DX =   -0.0002              !
 ! R8    R(7,9)                  1.3351         -DE/DX =   -0.0002              !
 ! R9    R(8,9)                  1.004          -DE/DX =   -0.0001              !
 ! A1    A(1,2,4)              132.1767         -DE/DX =    0.0                 !
 ! A2    A(1,2,9)              121.6739         -DE/DX =    0.0001              !
 ! A3    A(4,2,9)              106.1494         -DE/DX =   -0.0001              !
 ! A4    A(2,4,3)              127.2426         -DE/DX =    0.0                 !
 ! A5    A(2,4,6)              104.278          -DE/DX =    0.0                 !
 ! A6    A(3,4,6)              128.4793         -DE/DX =    0.0001              !
 ! A7    A(4,6,5)              128.4196         -DE/DX =    0.0001              !
 ! A8    A(4,6,7)              112.0463         -DE/DX =    0.0                 !
 ! A9    A(5,6,7)              119.5341         -DE/DX =   -0.0001              !
 ! A10   A(6,7,9)              104.0252         -DE/DX =    0.0                 !
 ! A11   A(2,9,7)              113.5011         -DE/DX =    0.0001              !
 ! A12   A(2,9,8)              127.6491         -DE/DX =   -0.0001              !
 ! A13   A(7,9,8)              118.8497         -DE/DX =   -0.0001              !
 ! D1    D(1,2,4,3)              0.0            -DE/DX =    0.0                 !
 ! D2    D(1,2,4,6)            180.0            -DE/DX =    0.0                 !
 ! D3    D(9,2,4,3)            180.0            -DE/DX =    0.0                 !
 ! D4    D(9,2,4,6)              0.0            -DE/DX =    0.0                 !
 ! D5    D(1,2,9,7)            180.0            -DE/DX =    0.0                 !
 ! D6    D(1,2,9,8)              0.0            -DE/DX =    0.0                 !
 ! D7    D(4,2,9,7)              0.0            -DE/DX =    0.0                 !
 ! D8    D(4,2,9,8)            180.0            -DE/DX =    0.0                 !
 ! D9    D(2,4,6,5)            180.0            -DE/DX =    0.0                 !
 ! D10   D(2,4,6,7)              0.0            -DE/DX =    0.0                 !
 ! D11   D(3,4,6,5)              0.0            -DE/DX =    0.0                 !
 ! D12   D(3,4,6,7)            180.0            -DE/DX =    0.0                 !
 ! D13   D(4,6,7,9)              0.0            -DE/DX =    0.0                 !
 ! D14   D(5,6,7,9)            180.0            -DE/DX =    0.0                 !
 ! D15   D(6,7,9,2)              0.0            -DE/DX =    0.0                 !
 ! D16   D(6,7,9,8)            180.0            -DE/DX =    0.0                 !
 --------------------------------------------------------------------------------
 GradGradGradGradGradGradGradGradGradGradGradGradGradGradGradGradGradGrad

                          Input orientation:                          
 ---------------------------------------------------------------------
 Center     Atomic     Atomic              Coordinates (Angstroms)
 Number     Number      Type              X           Y           Z
 ---------------------------------------------------------------------
    1          1             0       -1.886216    0.000000   -1.163098
    2          6             0       -0.931471    0.000000   -0.663749
    3          1             0        0.673458    0.000000   -2.167961
    4          6             0        0.358157    0.000000   -1.138570
    5          1             0        2.230503    0.000000    0.093631
    6          6             0        1.153941    0.000000    0.019697
    7          7             0        0.423085    0.000000    1.125459
    8          1             0       -1.585399    0.000000    1.349216
    9          7             0       -0.835927    0.000000    0.681163
 ---------------------------------------------------------------------
                    Distance matrix (angstroms):
                    1          2          3          4          5
     1  H    0.000000
     2  C    1.077444   0.000000
     3  H    2.749851   2.199648   0.000000
     4  C    2.244507   1.374261   1.076597   0.000000
     5  H    4.304270   3.251416   2.745758   2.241428   0.000000
     6  C    3.262140   2.194548   2.239802   1.405295   1.079098
     7  N    3.251210   2.244124   3.302924   2.264960   2.081209
     8  H    2.530259   2.116519   4.180068   3.156975   4.017164
     9  N    2.122358   1.348302   3.224244   2.176525   3.122209
                    6          7          8          9
     6  C    0.000000
     7  N    1.325467   0.000000
     8  H    3.044931   2.020910   0.000000
     9  N    2.096929   1.335107   1.003994   0.000000
 Stoichiometry    C3H4N2
 Framework group  CS[SG(C3H4N2)]
 Deg. of freedom    15
 Full point group                 CS      NOp   2
 Largest Abelian subgroup         CS      NOp   2
 Largest concise Abelian subgroup C1      NOp   1
                         Standard orientation:                         
 ---------------------------------------------------------------------
 Center     Atomic     Atomic              Coordinates (Angstroms)
 Number     Number      Type              X           Y           Z
 ---------------------------------------------------------------------
    1          1             0        2.093749    0.730482    0.000000
    2          6             0        1.104251    0.304125    0.000000
    3          1             0        1.260193   -1.889988    0.000000
    4          6             0        0.659867   -0.996305    0.000000
    5          1             0       -1.476977   -1.672985    0.000000
    6          6             0       -0.740924   -0.883886    0.000000
    7          7             0       -1.138571    0.380527    0.000000
    8          1             0       -0.046129    2.080717    0.000000
    9          7             0        0.000000    1.077783    0.000000
 ---------------------------------------------------------------------
 Rotational constants (GHZ):      9.7664220      9.5308127      4.8235895

 **********************************************************************

            Population analysis using the SCF density.

 **********************************************************************

 Orbital symmetries:
       Occupied  (A') (A') (A') (A') (A') (A') (A') (A') (A') (A')
                 (A') (A") (A') (A') (A') (A') (A") (A")
       Virtual   (A") (A") (A') (A') (A') (A') (A') (A') (A') (A')
                 (A') (A') (A') (A") (A') (A") (A') (A') (A') (A")
                 (A") (A') (A") (A') (A') (A") (A') (A') (A') (A")
                 (A") (A') (A') (A') (A") (A") (A') (A') (A') (A')
                 (A') (A") (A") (A') (A") (A') (A') (A") (A') (A')
                 (A') (A") (A') (A') (A') (A') (A') (A') (A") (A')
                 (A') (A") (A') (A") (A') (A") (A') (A') (A") (A')
                 (A") (A') (A') (A') (A') (A") (A') (A") (A') (A')
                 (A") (A') (A') (A") (A') (A') (A") (A') (A') (A")
                 (A") (A') (A') (A') (A") (A') (A') (A") (A') (A')
                 (A") (A') (A") (A") (A") (A') (A") (A") (A") (A')
                 (A") (A') (A") (A") (A") (A') (A") (A') (A') (A')
                 (A") (A') (A') (A') (A') (A') (A") (A') (A') (A')
                 (A') (A') (A') (A') (A') (A') (A') (A') (A') (A')
                 (A') (A')
 The electronic state is 1-A'.
 Alpha  occ. eigenvalues --  -14.47146 -14.40922 -10.27160 -10.24931 -10.22976
 Alpha  occ. eigenvalues --   -1.05596  -0.82125  -0.78344  -0.61359  -0.59716
 Alpha  occ. eigenvalues --   -0.54717  -0.44496  -0.44238  -0.42658  -0.39477
 Alpha  occ. eigenvalues --   -0.28991  -0.25997  -0.24966
 Alpha virt. eigenvalues --    0.03621   0.08740   0.09974   0.15369   0.17569
 Alpha virt. eigenvalues --    0.18720   0.23655   0.24566   0.28935   0.35310
 Alpha virt. eigenvalues --    0.42669   0.44648   0.49356   0.50223   0.53580
 Alpha virt. eigenvalues --    0.56772   0.57119   0.60206   0.60756   0.62029
 Alpha virt. eigenvalues --    0.66077   0.68613   0.72468   0.72567   0.75198
 Alpha virt. eigenvalues --    0.79779   0.80365   0.83391   0.85219   0.85827
 Alpha virt. eigenvalues --    0.86427   0.87585   0.92883   1.02045   1.03360
 Alpha virt. eigenvalues --    1.04257   1.07261   1.20224   1.25824   1.27794
 Alpha virt. eigenvalues --    1.32271   1.34181   1.35179   1.43964   1.44732
 Alpha virt. eigenvalues --    1.47906   1.53210   1.56006   1.56170   1.64045
 Alpha virt. eigenvalues --    1.65070   1.74240   1.77648   1.83427   1.88570
 Alpha virt. eigenvalues --    1.92446   1.96441   2.03536   2.07275   2.17617
 Alpha virt. eigenvalues --    2.23937   2.36269   2.43250   2.46256   2.50661
 Alpha virt. eigenvalues --    2.63966   2.69218   2.75042   2.79079   2.83513
 Alpha virt. eigenvalues --    2.86809   2.89103   2.93343   2.96467   3.04422
 Alpha virt. eigenvalues --    3.05009   3.06701   3.09839   3.11838   3.15178
 Alpha virt. eigenvalues --    3.16169   3.19401   3.29740   3.31882   3.34528
 Alpha virt. eigenvalues --    3.40951   3.45663   3.50482   3.53864   3.55988
 Alpha virt. eigenvalues --    3.62773   3.73942   3.76403   3.85215   3.87189
 Alpha virt. eigenvalues --    3.88241   3.98956   4.03668   4.07852   4.12243
 Alpha virt. eigenvalues --    4.12992   4.21801   4.23155   4.27212   4.30167
 Alpha virt. eigenvalues --    4.30646   4.37722   4.46000   4.49123   4.50601
 Alpha virt. eigenvalues --    4.51156   4.51216   4.53562   4.55448   4.59527
 Alpha virt. eigenvalues --    4.62729   4.64657   4.69782   4.70552   4.78267
 Alpha virt. eigenvalues --    4.81939   4.98847   5.03125   5.04889   5.14699
 Alpha virt. eigenvalues --    5.25416   5.25881   5.31336   5.39066   5.45771
 Alpha virt. eigenvalues --    5.47848   5.58334   5.78209   6.02975   6.13586
 Alpha virt. eigenvalues --    8.97019  10.07940  10.51398  11.27869  11.38962
 Alpha virt. eigenvalues --   11.95251  16.91645
          Condensed to atoms (all electrons):
              1          2          3          4          5          6
     1  H    0.537775   0.373807   0.000181  -0.026949  -0.000147   0.001212
     2  C    0.373807   4.924377  -0.041156   0.537192   0.004382   0.010678
     3  H    0.000181  -0.041156   0.568248   0.385597  -0.001284  -0.038595
     4  C   -0.026949   0.537192   0.385597   4.819091  -0.043892   0.553374
     5  H   -0.000147   0.004382  -0.001284  -0.043892   0.561254   0.388651
     6  C    0.001212   0.010678  -0.038595   0.553374   0.388651   4.706922
     7  N    0.005232  -0.163865   0.006722   0.002385  -0.034740   0.527143
     8  H   -0.001092  -0.045924  -0.000133   0.006051  -0.000208   0.006153
     9  N   -0.030515   0.417140   0.003151  -0.015176   0.005230  -0.152422
              7          8          9
     1  H    0.005232  -0.001092  -0.030515
     2  C   -0.163865  -0.045924   0.417140
     3  H    0.006722  -0.000133   0.003151
     4  C    0.002385   0.006051  -0.015176
     5  H   -0.034740  -0.000208   0.005230
     6  C    0.527143   0.006153  -0.152422
     7  N    6.459487  -0.031439   0.459173
     8  H   -0.031439   0.412916   0.366672
     9  N    0.459173   0.366672   6.144746
 Mulliken atomic charges:
              1
     1  H    0.140495
     2  C   -0.016632
     3  H    0.117268
     4  C   -0.217674
     5  H    0.120753
     6  C   -0.003117
     7  N   -0.230099
     8  H    0.287005
     9  N   -0.197999
 Sum of Mulliken charges=   0.00000
 Atomic charges with hydrogens summed into heavy atoms:
              1
     1  H    0.000000
     2  C    0.123864
     3  H    0.000000
     4  C   -0.100406
     5  H    0.000000
     6  C    0.117635
     7  N   -0.230099
     8  H    0.000000
     9  N    0.089006
 Sum of Mulliken charges=   0.00000
 Electronic spatial extent (au):  <R**2>=   282.1576
 Charge=     0.0000 electrons
 Dipole moment (field-independent basis, Debye):
    X=     2.0325    Y=     0.9097    Z=     0.0000  Tot=     2.2268
 Quadrupole moment (field-independent basis, Debye-Ang):
   XX=   -28.9946   YY=   -21.6862   ZZ=   -30.8904
   XY=     2.3505   XZ=     0.0000   YZ=     0.0000
 Traceless Quadrupole moment (field-independent basis, Debye-Ang):
   XX=    -1.8042   YY=     5.5042   ZZ=    -3.7000
   XY=     2.3505   XZ=     0.0000   YZ=     0.0000
 Octapole moment (field-independent basis, Debye-Ang**2):
  XXX=     8.4315  YYY=    12.0308  ZZZ=     0.0000  XYY=     0.3705
  XXY=    -2.1134  XXZ=     0.0000  XZZ=    -0.9322  YZZ=     2.0426
  YYZ=     0.0000  XYZ=     0.0000
 Hexadecapole moment (field-independent basis, Debye-Ang**3):
 XXXX=  -168.6937 YYYY=  -129.5191 ZZZZ=   -29.6184 XXXY=     9.6172
 XXXZ=     0.0000 YYYX=    -1.6735 YYYZ=     0.0000 ZZZX=     0.0000
 ZZZY=     0.0000 XXYY=   -50.1574 XXZZ=   -36.0849 YYZZ=   -34.9395
 XXYZ=     0.0000 YYXZ=     0.0000 ZZXY=    -0.1653
 N-N= 1.639479624080D+02 E-N=-8.542901383809D+02  KE= 2.246572349086D+02
 Symmetry A'   KE= 2.164871294672D+02
 Symmetry A"   KE= 8.170105441436D+00
 1|1|UNPC-UNK|FOpt|RB1B95|6-31G(2df,p)|C3H4N2|PCUSER|07-Sep-2006|0||#B1
 B95/6-31G(2DF,P) OPT FREQ||1H pyrazole C3H4N2 casno=288131 method=55 b
 asis=1||0,1|H,-1.8869439549,0.,-1.1648311063|C,-0.9321992531,0.,-0.665
 4828155|H,0.672729246,0.,-2.1696948539|C,0.3574286081,0.,-1.1403033993
 |H,2.2297747625,0.,0.0918969558|C,1.153212977,0.,0.0179630523|N,0.4223
 570615,0.,1.1237258737|H,-1.5861275146,0.,1.3474823098|N,-0.8366551373
 ,0.,0.6794292219||Version=x86-Win32-G03RevB.05|State=1-A'|HF=-226.1284
 833|RMSD=2.992e-009|RMSF=9.713e-005|Dipole=-0.7819145,0.,-0.3951233|PG
 =CS [SG(C3H4N2)]||@


 DON'T WORRY CHARLIE BROWN...WE LEARN MORE FROM LOSING 
 THAN WE DO FROM WINNING.
 THEN THAT MAKES ME THE SMARTEST PERSON IN THE WORLD...
 CHARLES SCHULZ 'PEANUTS'
 Job cpu time:  0 days  0 hours 22 minutes 55.0 seconds.
 File lengths (MBytes):  RWF=     26 Int=      0 D2E=      0 Chk=      6 Scr=      1
 Normal termination of Gaussian 03 at Thu Sep 07 18:23:27 2006.
 Link1:  Proceeding to internal job step number  2.
 ----------------------------------------------------------------------
 #N Geom=AllCheck Guess=Read SCRF=Check GenChk RB1B95/6-31G(2df,p) Freq
 ----------------------------------------------------------------------
 1/10=4,29=7,30=1,38=1,40=1,46=1/1,3;
 2/40=1/2;
 3/5=1,6=6,7=104,11=2,16=1,25=1,30=1,70=2,71=2,74=-17/1,2,3;
 4/5=1,7=1/1;
 5/5=2,38=6/2;
 8/6=4,10=90,11=11,27=1073741824/1;
 11/6=1,8=1,9=11,15=111,16=1/1,2,10;
 10/6=1/2;
 6/7=2,8=2,9=2,10=2,18=1,28=1/1;
 7/8=1,10=1,25=1/1,2,3,16;
 1/10=4,30=1,46=1/3;
 99//99;
 -------------------------------------------------
 1H pyrazole C3H4N2 casno=288131 method=55 basis=1
 -------------------------------------------------
 Redundant internal coordinates taken from checkpoint file:
 gxx.chk
 Charge =  0 Multiplicity = 1
 H,0,-1.8869439549,0.,-1.1648311063
 C,0,-0.9321992531,0.,-0.6654828155
 H,0,0.672729246,0.,-2.1696948539
 C,0,0.3574286081,0.,-1.1403033993
 H,0,2.2297747625,0.,0.0918969558
 C,0,1.153212977,0.,0.0179630523
 N,0,0.4223570615,0.,1.1237258737
 H,0,-1.5861275146,0.,1.3474823098
 N,0,-0.8366551373,0.,0.6794292219
 Recover connectivity data from disk.

 GradGradGradGradGradGradGradGradGradGradGradGradGradGradGradGradGradGrad
 Berny optimization.
 Initialization pass.
                           ----------------------------
                           !    Initial Parameters    !
                           ! (Angstroms and Degrees)  !
 --------------------------                            --------------------------
 ! Name  Definition              Value          Derivative Info.                !
 --------------------------------------------------------------------------------
 ! R1    R(1,2)                  1.0774         calculate D2E/DX2 analytically  !
 ! R2    R(2,4)                  1.3743         calculate D2E/DX2 analytically  !
 ! R3    R(2,9)                  1.3483         calculate D2E/DX2 analytically  !
 ! R4    R(3,4)                  1.0766         calculate D2E/DX2 analytically  !
 ! R5    R(4,6)                  1.4053         calculate D2E/DX2 analytically  !
 ! R6    R(5,6)                  1.0791         calculate D2E/DX2 analytically  !
 ! R7    R(6,7)                  1.3255         calculate D2E/DX2 analytically  !
 ! R8    R(7,9)                  1.3351         calculate D2E/DX2 analytically  !
 ! R9    R(8,9)                  1.004          calculate D2E/DX2 analytically  !
 ! A1    A(1,2,4)              132.1767         calculate D2E/DX2 analytically  !
 ! A2    A(1,2,9)              121.6739         calculate D2E/DX2 analytically  !
 ! A3    A(4,2,9)              106.1494         calculate D2E/DX2 analytically  !
 ! A4    A(2,4,3)              127.2426         calculate D2E/DX2 analytically  !
 ! A5    A(2,4,6)              104.278          calculate D2E/DX2 analytically  !
 ! A6    A(3,4,6)              128.4793         calculate D2E/DX2 analytically  !
 ! A7    A(4,6,5)              128.4196         calculate D2E/DX2 analytically  !
 ! A8    A(4,6,7)              112.0463         calculate D2E/DX2 analytically  !
 ! A9    A(5,6,7)              119.5341         calculate D2E/DX2 analytically  !
 ! A10   A(6,7,9)              104.0252         calculate D2E/DX2 analytically  !
 ! A11   A(2,9,7)              113.5011         calculate D2E/DX2 analytically  !
 ! A12   A(2,9,8)              127.6491         calculate D2E/DX2 analytically  !
 ! A13   A(7,9,8)              118.8497         calculate D2E/DX2 analytically  !
 ! D1    D(1,2,4,3)              0.0            calculate D2E/DX2 analytically  !
 ! D2    D(1,2,4,6)            180.0            calculate D2E/DX2 analytically  !
 ! D3    D(9,2,4,3)            180.0            calculate D2E/DX2 analytically  !
 ! D4    D(9,2,4,6)              0.0            calculate D2E/DX2 analytically  !
 ! D5    D(1,2,9,7)            180.0            calculate D2E/DX2 analytically  !
 ! D6    D(1,2,9,8)              0.0            calculate D2E/DX2 analytically  !
 ! D7    D(4,2,9,7)              0.0            calculate D2E/DX2 analytically  !
 ! D8    D(4,2,9,8)            180.0            calculate D2E/DX2 analytically  !
 ! D9    D(2,4,6,5)            180.0            calculate D2E/DX2 analytically  !
[...]
   9   7    -0.05   0.03   0.00     0.13   0.07   0.00    -0.07   0.04   0.00
                    16                     17                     18
                    A'                     A'                     A'
 Frequencies --  1506.2914              1586.1553              3262.8069
 Red. masses --     2.9002                 3.2754                 1.0927
 Frc consts  --     3.8770                 4.8551                 6.8538
 IR Inten    --     5.3127                 6.4656                 4.1396
 Atom AN      X      Y      Z        X      Y      Z        X      Y      Z
   1   1     0.00  -0.32   0.00     0.32  -0.28   0.00    -0.12  -0.05   0.00
   2   6    -0.19   0.17   0.00     0.04   0.25   0.00     0.01   0.00   0.00
   3   1    -0.16  -0.24   0.00     0.30  -0.03   0.00     0.18  -0.28   0.00
   4   6     0.12  -0.04   0.00    -0.05  -0.22   0.00    -0.01   0.02   0.00
   5   1     0.05  -0.11   0.00     0.37  -0.24   0.00     0.64   0.68   0.00
   6   6    -0.08   0.04   0.00    -0.12   0.21   0.00    -0.06  -0.06   0.00
   7   7    -0.04   0.01   0.00     0.08  -0.13   0.00     0.00   0.00   0.00
   8   1    -0.78  -0.17   0.00     0.58  -0.01   0.00     0.00   0.01   0.00
   9   7     0.24  -0.10   0.00    -0.08  -0.04   0.00     0.00   0.00   0.00
                    19                     20                     21
                    A'                     A'                     A'
 Frequencies --  3278.5598              3298.9200              3703.0579
 Red. masses --     1.0934                 1.1079                 1.0815
 Frc consts  --     6.9248                 7.1041                 8.7375
 IR Inten    --     1.9550                 0.7172                78.2071
 Atom AN      X      Y      Z        X      Y      Z        X      Y      Z
   1   1     0.76   0.32   0.00    -0.49  -0.22   0.00     0.02   0.00   0.00
   2   6    -0.07  -0.03   0.00     0.05   0.02   0.00     0.00   0.00   0.00
   3   1    -0.27   0.40   0.00    -0.45   0.68   0.00     0.00   0.00   0.00
   4   6     0.03  -0.03   0.00     0.04  -0.07   0.00     0.00   0.00   0.00
   5   1     0.19   0.20   0.00     0.15   0.15   0.00     0.00   0.00   0.00
   6   6    -0.02  -0.02   0.00    -0.02  -0.01   0.00     0.00   0.00   0.00
   7   7     0.00   0.00   0.00     0.00   0.00   0.00     0.00   0.00   0.00
   8   1     0.00  -0.01   0.00     0.00   0.01   0.00    -0.05   1.00   0.00
   9   7     0.00   0.00   0.00     0.00   0.00   0.00     0.01  -0.07   0.00

 -------------------
 - Thermochemistry -
 -------------------
 Temperature   298.150 Kelvin.  Pressure   1.00000 Atm.
 Atom  1 has atomic number  1 and mass   1.00783
 Atom  2 has atomic number  6 and mass  12.00000
 Atom  3 has atomic number  1 and mass   1.00783
 Atom  4 has atomic number  6 and mass  12.00000
 Atom  5 has atomic number  1 and mass   1.00783
 Atom  6 has atomic number  6 and mass  12.00000
 Atom  7 has atomic number  7 and mass  14.00307
 Atom  8 has atomic number  1 and mass   1.00783
 Atom  9 has atomic number  7 and mass  14.00307
 Molecular mass:    68.03745 amu.
 Principal axes and moments of inertia in atomic units:
                           1         2         3
     EIGENVALUES --   184.79042 189.35858 374.14900
           X            0.89382   0.44843   0.00000
           Y           -0.44843   0.89382   0.00000
           Z            0.00000   0.00000   1.00000
 This molecule is an asymmetric top.
 Rotational symmetry number  1.
 Rotational temperatures (Kelvin)      0.46871     0.45741     0.23150
 Rotational constants (GHZ):           9.76642     9.53081     4.82359
 Zero-point vibrational energy     188694.6 (Joules/Mol)
                                   45.09909 (Kcal/Mol)
 Warning -- explicit consideration of   1 degrees of freedom as
           vibrations may cause significant error
 Vibrational temperatures:    799.43   921.59  1009.38  1104.22  1217.82
          (Kelvin)           1301.48  1313.28  1344.97  1528.54  1537.99
                             1672.77  1739.09  1862.91  2018.95  2081.85
                             2167.21  2282.12  4694.45  4717.11  4746.40
                             5327.87
 
 Zero-point correction=                           0.071870 (Hartree/Particle)
 Thermal correction to Energy=                    0.075572
 Thermal correction to Enthalpy=                  0.076516
 Thermal correction to Gibbs Free Energy=         0.045638
 Sum of electronic and zero-point Energies=           -226.056613
 Sum of electronic and thermal Energies=              -226.052912
 Sum of electronic and thermal Enthalpies=            -226.051967
 Sum of electronic and thermal Free Energies=         -226.082846
 
                     E (Thermal)             CV                S
                      KCal/Mol        Cal/Mol-Kelvin    Cal/Mol-Kelvin
 Total                   47.422             13.102             64.989
 Electronic               0.000              0.000              0.000
 Translational            0.889              2.981             38.570
 Rotational               0.889              2.981             24.086
 Vibrational             45.644              7.140              2.333
 Vibration  1             0.911              1.127              0.533
                       Q            Log10(Q)             Ln(Q)
 Total Bot       0.101900D-20        -20.991825        -48.335464
 Total V=0       0.116413D+13         12.066002         27.782996
 Vib (Bot)       0.112784D-32        -32.947754        -75.865006
 Vib (Bot)  1    0.280909D+00         -0.551434         -1.269724
 Vib (V=0)       0.128847D+01          0.110074          0.253454
 Vib (V=0)  1    0.107351D+01          0.030805          0.070931
 Electronic      0.100000D+01          0.000000          0.000000
 Translational   0.220586D+08          7.343577         16.909211
 Rotational      0.409591D+05          4.612351         10.620330
 ***** Axes restored to original set *****
 -------------------------------------------------------------------
 Center     Atomic                   Forces (Hartrees/Bohr)
 Number     Number              X              Y              Z
 -------------------------------------------------------------------
    1          1           0.000035449    0.000000000   -0.000089129
    2          6          -0.000067656    0.000000000    0.000131088
    3          1          -0.000012797    0.000000000    0.000047601
    4          6          -0.000096250    0.000000000   -0.000127963
    5          1          -0.000040091    0.000000000    0.000111614
    6          6           0.000019789    0.000000000    0.000265594
    7          7          -0.000100584    0.000000000   -0.000144252
    8          1           0.000015978    0.000000000   -0.000095974
    9          7           0.000246161    0.000000000   -0.000098580
 -------------------------------------------------------------------
 Cartesian Forces:  Max     0.000265594 RMS     0.000097131

 GradGradGradGradGradGradGradGradGradGradGradGradGradGradGradGradGradGrad
 Berny optimization.
 Internal  Forces:  Max     0.000199002 RMS     0.000069468
 Search for a local minimum.
 Step number   1 out of a maximum of   2
 All quantities printed in internal units (Hartrees-Bohrs-Radians)
 Second derivative matrix not updated -- analytic derivatives used.
     Eigenvalues ---    0.00795   0.01146   0.01649   0.02858   0.05890
     Eigenvalues ---    0.06201   0.09165   0.10190   0.10904   0.11731
     Eigenvalues ---    0.21999   0.26555   0.35729   0.37320   0.37874
     Eigenvalues ---    0.38140   0.41434   0.43936   0.48698   0.50654
     Eigenvalues ---    0.583841000.000001000.000001000.000001000.00000
     Eigenvalues --- 1000.000001000.000001000.000001000.000001000.00000
     Eigenvalues --- 1000.000001000.000001000.000001000.000001000.00000
     Eigenvalues --- 1000.000001000.000001000.00000
 Angle between quadratic step and forces=  36.45 degrees.
 Linear search not attempted -- first point.
 Iteration  1 RMS(Cart)=  0.00034798 RMS(Int)=  0.00000007
 Iteration  2 RMS(Cart)=  0.00000007 RMS(Int)=  0.00000001
 Variable       Old X    -DE/DX   Delta X   Delta X   Delta X     New X
                                 (Linear)    (Quad)   (Total)
    R1        2.03607   0.00001   0.00000   0.00001   0.00001   2.03609
    R2        2.59698  -0.00007   0.00000  -0.00006  -0.00006   2.59692
    R3        2.54792  -0.00013   0.00000  -0.00027  -0.00027   2.54765
    R4        2.03447  -0.00005   0.00000  -0.00012  -0.00012   2.03435
    R5        2.65562   0.00018   0.00000   0.00048   0.00048   2.65611
    R6        2.03920  -0.00003   0.00000  -0.00008  -0.00008   2.03912
    R7        2.50477  -0.00020   0.00000  -0.00032  -0.00032   2.50445
    R8        2.52299  -0.00017   0.00000  -0.00048  -0.00048   2.52250
    R9        1.89727  -0.00008   0.00000  -0.00015  -0.00015   1.89713
    A1        2.30692  -0.00002   0.00000  -0.00046  -0.00046   2.30646
    A2        2.12361   0.00008   0.00000   0.00058   0.00058   2.12419
    A3        1.85266  -0.00006   0.00000  -0.00012  -0.00012   1.85254
    A4        2.22080  -0.00003   0.00000  -0.00038  -0.00038   2.22043
    A5        1.81999  -0.00003   0.00000  -0.00007  -0.00007   1.81992
    A6        2.24239   0.00006   0.00000   0.00045   0.00045   2.24284
    A7        2.24134   0.00008   0.00000   0.00061   0.00061   2.24195
    A8        1.95558  -0.00003   0.00000  -0.00019  -0.00019   1.95539
    A9        2.08626  -0.00005   0.00000  -0.00042  -0.00042   2.08584
   A10        1.81558   0.00000   0.00000   0.00011   0.00011   1.81569
   A11        1.98097   0.00013   0.00000   0.00027   0.00027   1.98124
   A12        2.22790  -0.00008   0.00000  -0.00030  -0.00030   2.22760
   A13        2.07432  -0.00005   0.00000   0.00004   0.00004   2.07435
    D1        0.00000   0.00000   0.00000   0.00000   0.00000   0.00000
    D2        3.14159   0.00000   0.00000   0.00000   0.00000   3.14159
    D3        3.14159   0.00000   0.00000   0.00000   0.00000   3.14159
    D4        0.00000   0.00000   0.00000   0.00000   0.00000   0.00000
    D5        3.14159   0.00000   0.00000   0.00000   0.00000   3.14159
    D6        0.00000   0.00000   0.00000   0.00000   0.00000   0.00000
    D7        0.00000   0.00000   0.00000   0.00000   0.00000   0.00000
    D8        3.14159   0.00000   0.00000   0.00000   0.00000   3.14159
    D9        3.14159   0.00000   0.00000   0.00000   0.00000   3.14159
   D10        0.00000   0.00000   0.00000   0.00000   0.00000   0.00000
   D11        0.00000   0.00000   0.00000   0.00000   0.00000   0.00000
   D12        3.14159   0.00000   0.00000   0.00000   0.00000   3.14159
   D13        0.00000   0.00000   0.00000   0.00000   0.00000   0.00000
   D14        3.14159   0.00000   0.00000   0.00000   0.00000   3.14159
   D15        0.00000   0.00000   0.00000   0.00000   0.00000   0.00000
   D16        3.14159   0.00000   0.00000   0.00000   0.00000   3.14159
         Item               Value     Threshold  Converged?
 Maximum Force            0.000199     0.000450     YES
 RMS     Force            0.000069     0.000300     YES
 Maximum Displacement     0.001291     0.001800     YES
 RMS     Displacement     0.000348     0.001200     YES
 Predicted change in Energy=-2.641588D-07
 Optimization completed.
    -- Stationary point found.
                           ----------------------------
                           !   Optimized Parameters   !
                           ! (Angstroms and Degrees)  !
 --------------------------                            --------------------------
 ! Name  Definition              Value          Derivative Info.                !
 --------------------------------------------------------------------------------
 ! R1    R(1,2)                  1.0774         -DE/DX =    0.0                 !
 ! R2    R(2,4)                  1.3743         -DE/DX =   -0.0001              !
 ! R3    R(2,9)                  1.3483         -DE/DX =   -0.0001              !
 ! R4    R(3,4)                  1.0766         -DE/DX =    0.0                 !
 ! R5    R(4,6)                  1.4053         -DE/DX =    0.0002              !
 ! R6    R(5,6)                  1.0791         -DE/DX =    0.0                 !
 ! R7    R(6,7)                  1.3255         -DE/DX =   -0.0002              !
 ! R8    R(7,9)                  1.3351         -DE/DX =   -0.0002              !
 ! R9    R(8,9)                  1.004          -DE/DX =   -0.0001              !
 ! A1    A(1,2,4)              132.1767         -DE/DX =    0.0                 !
 ! A2    A(1,2,9)              121.6739         -DE/DX =    0.0001              !
 ! A3    A(4,2,9)              106.1494         -DE/DX =   -0.0001              !
 ! A4    A(2,4,3)              127.2426         -DE/DX =    0.0                 !
 ! A5    A(2,4,6)              104.278          -DE/DX =    0.0                 !
 ! A6    A(3,4,6)              128.4793         -DE/DX =    0.0001              !
 ! A7    A(4,6,5)              128.4196         -DE/DX =    0.0001              !
 ! A8    A(4,6,7)              112.0463         -DE/DX =    0.0                 !
 ! A9    A(5,6,7)              119.5341         -DE/DX =   -0.0001              !
 ! A10   A(6,7,9)              104.0252         -DE/DX =    0.0                 !
 ! A11   A(2,9,7)              113.5011         -DE/DX =    0.0001              !
 ! A12   A(2,9,8)              127.6491         -DE/DX =   -0.0001              !
 ! A13   A(7,9,8)              118.8497         -DE/DX =   -0.0001              !
 ! D1    D(1,2,4,3)              0.0            -DE/DX =    0.0                 !
 ! D2    D(1,2,4,6)            180.0            -DE/DX =    0.0                 !
 ! D3    D(9,2,4,3)            180.0            -DE/DX =    0.0                 !
 ! D4    D(9,2,4,6)              0.0            -DE/DX =    0.0                 !
 ! D5    D(1,2,9,7)            180.0            -DE/DX =    0.0                 !
 ! D6    D(1,2,9,8)              0.0            -DE/DX =    0.0                 !
 ! D7    D(4,2,9,7)              0.0            -DE/DX =    0.0                 !
 ! D8    D(4,2,9,8)            180.0            -DE/DX =    0.0                 !
 ! D9    D(2,4,6,5)            180.0            -DE/DX =    0.0                 !
 ! D10   D(2,4,6,7)              0.0            -DE/DX =    0.0                 !
 ! D11   D(3,4,6,5)              0.0            -DE/DX =    0.0                 !
 ! D12   D(3,4,6,7)            180.0            -DE/DX =    0.0                 !
 ! D13   D(4,6,7,9)              0.0            -DE/DX =    0.0                 !
 ! D14   D(5,6,7,9)            180.0            -DE/DX =    0.0                 !
 ! D15   D(6,7,9,2)              0.0            -DE/DX =    0.0                 !
 ! D16   D(6,7,9,8)            180.0            -DE/DX =    0.0                 !
 --------------------------------------------------------------------------------
 GradGradGradGradGradGradGradGradGradGradGradGradGradGradGradGradGradGrad

 1|1|UNPC-UNK|Freq|RB1B95|6-31G(2df,p)|C3H4N2|PCUSER|07-Sep-2006|0||#N 
 GEOM=ALLCHECK GUESS=READ SCRF=CHECK GENCHK RB1B95/6-31G(2DF,P) FREQ||1
 H pyrazole C3H4N2 casno=288131 method=55 basis=1||0,1|H,-1.8869439549,
 0.,-1.1648311063|C,-0.9321992531,0.,-0.6654828155|H,0.672729246,0.,-2.
 1696948539|C,0.3574286081,0.,-1.1403033993|H,2.2297747625,0.,0.0918969
 558|C,1.153212977,0.,0.0179630523|N,0.4223570615,0.,1.1237258737|H,-1.
 5861275146,0.,1.3474823098|N,-0.8366551373,0.,0.6794292219||Version=x8
 6-Win32-G03RevB.05|State=1-A'|HF=-226.1284833|RMSD=5.817e-010|RMSF=9.7
 13e-005|Dipole=-0.7819143,0.,-0.3951232|DipoleDeriv=-0.0108753,0.,-0.0
 464597,0.,0.1618717,0.,-0.0276689,0.,0.0718857,0.1521655,0.,-0.1051184
 ,0.,-0.0758672,0.,-0.2752245,0.,0.2051462,0.0897535,0.,0.0266644,0.,0.
 1482413,0.,0.0331765,0.,-0.0300841,-0.2575096,0.,-0.0040235,0.,-0.1997
 552,0.,-0.0567143,0.,-0.0117187,-0.0503898,0.,-0.0032625,0.,0.1241341,
 0.,-0.0301676,0.,0.0790913,0.2295255,0.,0.1288382,0.,-0.0469267,0.,0.1
 858075,0.,0.1738623,-0.0215481,0.,-0.2102664,0.,-0.241881,0.,-0.081477
 4,0.,-0.5809369,0.2041342,0.,-0.0506332,0.,0.2925243,0.,-0.0361509,0.,
 0.2225469,-0.3352559,0.,0.2642611,0.,-0.1623411,0.,0.2884195,0.,-0.129
 7927|Polar=50.0524616,0.,20.8214189,-0.3580203,0.,46.0946769|PG=CS [SG
 (C3H4N2)]|NImag=0||0.30671096,0.,0.02085092,0.13557466,0.,0.12216565,-
 0.30133775,0.,-0.11673352,0.86683839,0.,-0.02546529,0.,0.,0.11898552,-
 0.12602188,0.,-0.11934981,0.09386386,0.,0.66204712,0.00030809,0.,-0.00
 073082,0.00181374,0.,0.02581221,0.07569093,0.,-0.00245943,0.,0.,-0.002
 69759,0.,0.,0.02194946,0.00037619,0.,-0.00014447,-0.00428109,0.,-0.000
 22626,-0.09426663,0.,0.35050059,-0.00631588,0.,0.00955124,-0.35518764,
 0.,0.07643295,-0.08207838,0.,0.08819819,0.63294305,0.,0.00044305,0.,0.
 ,-0.06138550,0.,0.,-0.02567089,0.,0.,0.11434413,-0.01562934,0.,0.01226
 182,0.10913111,0.,-0.14021084,0.08568643,0.,-0.33766616,-0.11861670,0.
 ,0.83736454,-0.00023254,0.,0.00030140,-0.00083871,0.,-0.00139493,-0.00
 012758,0.,-0.00034866,-0.00496296,0.,0.00480022,0.37338192,0.,0.000929
 10,0.,0.,0.00443721,0.,0.,-0.00178688,0.,0.,0.00087424,0.,0.,0.0252979
 4,-0.00111444,0.,0.00116554,-0.00281805,0.,-0.00595623,0.00083044,0.,0
 .00020283,-0.02190957,0.,0.00648779,0.02103296,0.,0.05550666,-0.004650
 18,0.,0.00455590,-0.05402858,0.,0.00214993,0.01264303,0.,0.01311518,-0
 .18195886,0.,-0.11589636,-0.35243815,0.,-0.03222785,0.88878089,0.,0.00
 505919,0.,0.,0.01008482,0.,0.,-0.00330071,0.,0.,-0.06469073,0.,0.,-0.0
 3166143,0.,0.,0.14124909,0.00114880,0.,-0.00234302,-0.07113416,0.,0.03
 676659,-0.01517949,0.,-0.00863685,-0.07664857,0.,-0.23755756,-0.024737
 48,0.,-0.05948430,-0.01219075,0.,0.61872607,0.00088425,0.,0.00059729,-
 0.05948899,0.,-0.04950076,-0.00194614,0.,-0.00124272,0.02717232,0.,0.0
 4043017,-0.01409872,0.,0.02838655,-0.18221561,0.,0.15001527,0.52618647
 ,0.,0.00670538,0.,0.,0.01807360,0.,0.,0.00671303,0.,0.,0.02017012,0.,0
 .,-0.00774236,0.,0.,-0.07324816,0.,0.,0.10707113,0.00220664,0.,-0.0057
 8542,-0.01792244,0.,-0.06798231,-0.00600501,0.,-0.00425710,-0.03488946
 ,0.,-0.07715870,-0.00196614,0.,0.00589672,0.11828143,0.,-0.31227554,-0
 .04750738,0.,0.57203422,-0.00019009,0.,0.00031976,0.00912765,0.,-0.004
 68208,0.00073421,0.,-0.00005015,0.00216880,0.,-0.00317419,-0.00045748,
 0.,0.00147571,-0.00745971,0.,-0.00587250,-0.02288417,0.,0.02468146,0.2
 9983160,0.,-0.00157758,0.,0.,-0.00758060,0.,0.,0.00230420,0.,0.,0.0030
 4714,0.,0.,0.00223152,0.,0.,0.00456253,0.,0.,-0.01232106,0.,0.,0.01336
 568,-0.00070359,0.,0.00024073,0.02568660,0.,-0.00607513,0.00130160,0.,
 0.00017731,-0.00254476,0.,-0.00695904,-0.00046320,0.,0.00096608,-0.005
 76799,0.,0.00101155,-0.01075260,0.,0.01552822,-0.20967034,0.,0.2533890
 0,0.00482315,0.,-0.03343590,-0.10689811,0.,-0.01665931,-0.00703790,0.,
 -0.00150030,-0.03178046,0.,0.01326866,-0.00022579,0.,0.00634425,-0.118
 67283,0.,0.05459887,-0.27360941,0.,-0.03687910,-0.28087081,0.,0.202914
 28,0.81427215,0.,-0.00448533,0.,0.,-0.05445215,0.,0.,0.00494880,0.,0.,
 0.01286845,0.,0.,0.00742066,0.,0.,0.01194542,0.,0.,-0.06542167,0.,0.,-
 0.00403182,0.,0.,0.09120764,0.00416295,0.,-0.00821100,-0.01579231,0.,-
 0.35901313,0.00255128,0.,0.00005011,0.08042668,0.,-0.05656187,0.002775
 83,0.,-0.00478509,0.02798050,0.,-0.03620694,-0.11042581,0.,-0.12600008
 ,0.19697233,0.,-0.25827872,-0.18865145,0.,0.84900671||-0.00003545,0.,0
 .00008913,0.00006766,0.,-0.00013109,0.00001280,0.,-0.00004760,0.000096
 25,0.,0.00012796,0.00004009,0.,-0.00011161,-0.00001979,0.,-0.00026559,
 0.00010058,0.,0.00014425,-0.00001598,0.,0.00009597,-0.00024616,0.,0.00
 009858|||@


 IT'S WHAT A FELLER THINKS HE KNOWS THAT HURTS HIM...
                    ------
           KIN HUBBARD
 Job cpu time:  0 days  0 hours 29 minutes 55.0 seconds.
 File lengths (MBytes):  RWF=     30 Int=      0 D2E=      0 Chk=      6 Scr=      1
 Normal termination of Gaussian 03 at Thu Sep 07 18:53:22 2006.
