 Entering Link 1 = C:\G03W\l1.exe PID=      2112.
  
 Copyright (c) 1988,1990,1992,1993,1995,1998,2003, Gaussian, Inc.
                  All Rights Reserved.
  
 This is the Gaussian(R) 03 program.  It is based on the
 the Gaussian(R) 98 system (copyright 1998, Gaussian, Inc.),
 the Gaussian(R) 94 system (copyright 1995, Gaussian, Inc.),
 the Gaussian 92(TM) system (copyright 1992, Gaussian, Inc.),
 the Gaussian 90(TM) system (copyright 1990, Gaussian, Inc.),
 the Gaussian 88(TM) system (copyright 1988, Gaussian, Inc.),
 the Gaussian 86(TM) system (copyright 1986, Carnegie Mellon
 University), and the Gaussian 82(TM) system (copyright 1983,
 Carnegie Mellon University). Gaussian is a federally registered
 trademark of Gaussian, Inc.
  
 This software contains proprietary and confidential information,
 including trade secrets, belonging to Gaussian, Inc.
  
 This software is provided under written license and may be
 used, copied, transmitted, or stored only in accord with that
 written license.
  
 The following legend is applicable only to US Government
 contracts under DFARS:
  
                    RESTRICTED RIGHTS LEGEND
  
 Use, duplication or disclosure by the US Government is subject
 to restrictions as set forth in subparagraph (c)(1)(ii) of the
 Rights in Technical Data and Computer Software clause at DFARS
 252.227-7013.
  
 Gaussian, Inc.
 Carnegie Office Park, Building 6, Pittsburgh, PA 15106 USA
  
 The following legend is applicable only to US Government
 contracts under FAR:
  
                    RESTRICTED RIGHTS LEGEND
  
 Use, reproduction and disclosure by the US Government is subject
 to restrictions as set forth in subparagraph (c) of the
 Commercial Computer Software - Restricted Rights clause at FAR
 52.227-19.
  
 Gaussian, Inc.
 Carnegie Office Park, Building 6, Pittsburgh, PA 15106 USA
  
  
 ---------------------------------------------------------------
 Warning -- This program may not be used in any manner that
 competes with the business of Gaussian, Inc. or will provide
 assistance to any competitor of Gaussian, Inc.  The licensee
 of this program is prohibited from giving any competitor of
 Gaussian, Inc. access to this program.  By using this program,
 the user acknowledges that Gaussian, Inc. is engaged in the
 business of creating and licensing software in the field of
 computational chemistry and represents and warrants to the
 licensee that it is not a competitor of Gaussian, Inc. and that
 it will not use this program in any manner prohibited above.
 ---------------------------------------------------------------
  

 Cite this work as:
 Gaussian 03, Revision B.05,
 M. J. Frisch, G. W. Trucks, H. B. Schlegel, G. E. Scuseria, 
 M. A. Robb, J. R. Cheeseman, J. A. Montgomery, Jr., T. Vreven, 
 K. N. Kudin, J. C. Burant, J. M. Millam, S. S. Iyengar, J. Tomasi, 
 V. Barone, B. Mennucci, M. Cossi, G. Scalmani, N. Rega, 
 G. A. Petersson, H. Nakatsuji, M. Hada, M. Ehara, K. Toyota, 
 R. Fukuda, J. Hasegawa, M. Ishida, T. Nakajima, Y. Honda, O. Kitao, 
 H. Nakai, M. Klene, X. Li, J. E. Knox, H. P. Hratchian, J. B. Cross, 
 C. Adamo, J. Jaramillo, R. Gomperts, R. E. Stratmann, O. Yazyev, 
 A. J. Austin, R. Cammi, C. Pomelli, J. W. Ochterski, P. Y. Ayala, 
 K. Morokuma, G. A. Voth, P. Salvador, J. J. Dannenberg, 
 V. G. Zakrzewski, S. Dapprich, A. D. Daniels, M. C. Strain, 
 O. Farkas, D. K. Malick, A. D. Rabuck, K. Raghavachari, 
 J. B. Foresman, J. V. Ortiz, Q. Cui, A. G. Baboul, S. Clifford, 
 J. Cioslowski, B. B. Stefanov, G. Liu, A. Liashenko, P. Piskorz, 
 I. Komaromi, R. L. Martin, D. J. Fox, T. Keith, M. A. Al-Laham, 
 C. Y. Peng, A. Nanayakkara, M. Challacombe, P. M. W. Gill, 
 B. Johnson, W. Chen, M. W. Wong, C. Gonzalez, and J. A. Pople, 
 Gaussian, Inc., Pittsburgh PA, 2003.
 
 **********************************************
 Gaussian 03:  x86-Win32-G03RevB.05  8-Nov-2003
                  13-Sep-2006 
 **********************************************
 %mem=24000000
 ---------------------
 #B1B95/6-31G OPT FREQ
 ---------------------
 1/14=-1,18=20,26=3,38=1/1,3;
 2/9=110,17=6,18=5,40=1/2;
 3/5=1,6=6,11=2,16=1,25=1,30=1,74=-17/1,2,3;
 4//1;
 5/5=2,38=5/2;
 6/7=2,8=2,9=2,10=2,28=1/1;
 7//1,2,3,16;
 1/14=-1,18=20/3(1);
 99//99;
 2/9=110/2;
 3/5=1,6=6,11=2,16=1,25=1,30=1,74=-17/1,2,3;
 4/5=5,16=3/1;
 5/5=2,38=5/2;
 7//1,2,3,16;
 1/14=-1,18=20/3(-5);
 2/9=110/2;
 6/7=2,8=2,9=2,10=2,19=2,28=1/1;
 99/9=1/99;
 -------------------------------------------------
 1H pyrazole C3H4N2 casno=288131 method=55 basis=9
 -------------------------------------------------
 Symbolic Z-matrix:
 Charge =  0 Multiplicity = 1
 H                    -1.8728    0.       -1.15878 
 C                    -0.92619   0.       -0.66007 
 H                     0.66681   0.       -2.15994 
 C                     0.34995   0.       -1.13858 
 H                     2.21745   0.        0.09827 
 C                     1.14883   0.        0.02698 
 N                     0.42381   0.        1.10895 
 H                    -1.57341   0.        1.34082 
 N                    -0.83433   0.        0.67814 
 

 GradGradGradGradGradGradGradGradGradGradGradGradGradGradGradGradGradGrad
 Berny optimization.
 Initialization pass.
                           ----------------------------
                           !    Initial Parameters    !
                           ! (Angstroms and Degrees)  !
 --------------------------                            --------------------------
 ! Name  Definition              Value          Derivative Info.                !
 --------------------------------------------------------------------------------
 ! R1    R(1,2)                  1.0699         estimate D2E/DX2                !
 ! R2    R(2,4)                  1.3629         estimate D2E/DX2                !
 ! R3    R(2,9)                  1.3414         estimate D2E/DX2                !
 ! R4    R(3,4)                  1.0694         estimate D2E/DX2                !
 ! R5    R(4,6)                  1.4131         estimate D2E/DX2                !
 ! R6    R(5,6)                  1.071          estimate D2E/DX2                !
 ! R7    R(6,7)                  1.3024         estimate D2E/DX2                !
 ! R8    R(7,9)                  1.3299         estimate D2E/DX2                !
 ! R9    R(8,9)                  0.9927         estimate D2E/DX2                !
 ! A1    A(1,2,4)              131.6638         estimate D2E/DX2                !
 ! A2    A(1,2,9)              121.709          estimate D2E/DX2                !
 ! A3    A(4,2,9)              106.6272         estimate D2E/DX2                !
 ! A4    A(2,4,3)              127.7895         estimate D2E/DX2                !
 ! A5    A(2,4,6)              103.8727         estimate D2E/DX2                !
 ! A6    A(3,4,6)              128.3378         estimate D2E/DX2                !
 ! A7    A(4,6,5)              128.2433         estimate D2E/DX2                !
 ! A8    A(4,6,7)              111.7472         estimate D2E/DX2                !
 ! A9    A(5,6,7)              120.0095         estimate D2E/DX2                !
 ! A10   A(6,7,9)              104.9237         estimate D2E/DX2                !
 ! A11   A(2,9,7)              112.8292         estimate D2E/DX2                !
 ! A12   A(2,9,8)              127.9532         estimate D2E/DX2                !
 ! A13   A(7,9,8)              119.2176         estimate D2E/DX2                !
 ! D1    D(1,2,4,3)              0.0            estimate D2E/DX2                !
 ! D2    D(1,2,4,6)            180.0            estimate D2E/DX2                !
 ! D3    D(9,2,4,3)            180.0            estimate D2E/DX2                !
 ! D4    D(9,2,4,6)              0.0            estimate D2E/DX2                !
 ! D5    D(1,2,9,7)            180.0            estimate D2E/DX2                !
 ! D6    D(1,2,9,8)              0.0            estimate D2E/DX2                !
 ! D7    D(4,2,9,7)              0.0            estimate D2E/DX2                !
 ! D8    D(4,2,9,8)            180.0            estimate D2E/DX2                !
 ! D9    D(2,4,6,5)            180.0            estimate D2E/DX2                !
 ! D10   D(2,4,6,7)              0.0            estimate D2E/DX2                !
 ! D11   D(3,4,6,5)              0.0            estimate D2E/DX2                !
 ! D12   D(3,4,6,7)            180.0            estimate D2E/DX2                !
 ! D13   D(4,6,7,9)              0.0            estimate D2E/DX2                !
 ! D14   D(5,6,7,9)            180.0            estimate D2E/DX2                !
 ! D15   D(6,7,9,2)              0.0            estimate D2E/DX2                !
 ! D16   D(6,7,9,8)            180.0            estimate D2E/DX2                !
 --------------------------------------------------------------------------------
 Trust Radius=3.00D-01 FncErr=1.00D-07 GrdErr=1.00D-06
 Number of steps in this run=  48 maximum allowed number of steps= 100.
 GradGradGradGradGradGradGradGradGradGradGradGradGradGradGradGradGradGrad

                          Input orientation:                          
 ---------------------------------------------------------------------
 Center     Atomic     Atomic              Coordinates (Angstroms)
 Number     Number      Type              X           Y           Z
 ---------------------------------------------------------------------
    1          1             0       -1.872799    0.000000   -1.158779
    2          6             0       -0.926193    0.000000   -0.660070
    3          1             0        0.666806    0.000000   -2.159940
    4          6             0        0.349953    0.000000   -1.138578
    5          1             0        2.217455    0.000000    0.098267
    6          6             0        1.148834    0.000000    0.026983
    7          7             0        0.423812    0.000000    1.108951
    8          1             0       -1.573407    0.000000    1.340816
    9          7             0       -0.834329    0.000000    0.678139
 ---------------------------------------------------------------------
                    Distance matrix (angstroms):
                    1          2          3          4          5
     1  H    0.000000
     2  C    1.069941   0.000000
     3  H    2.729821   2.187980   0.000000
     4  C    2.222844   1.362908   1.069381   0.000000
     5  H    4.279058   3.233821   2.739345   2.239944   0.000000
     6  C    3.245967   2.185814   2.239416   1.413062   1.070995
     7  N    3.227541   2.225298   3.277910   2.248742   2.058794
     8  H    2.517461   2.102957   4.156182   3.137946   3.989305
     9  N    2.110140   1.341359   3.210624   2.168637   3.106386
                    6          7          8          9
     6  C    0.000000
     7  N    1.302425   0.000000
     8  H    3.022706   2.010633   0.000000
     9  N    2.087329   1.329856   0.992661   0.000000
 Stoichiometry    C3H4N2
 Framework group  CS[SG(C3H4N2)]
 Deg. of freedom    15
 Full point group                 CS      NOp   2
 Largest Abelian subgroup         CS      NOp   2
 Largest concise Abelian subgroup C1      NOp   1
                         Standard orientation:                         
 ---------------------------------------------------------------------
 Center     Atomic     Atomic              Coordinates (Angstroms)
 Number     Number      Type              X           Y           Z
 ---------------------------------------------------------------------
    1          1             0        2.080447    0.722417    0.000000
    2          6             0        1.096394    0.302400    0.000000
    3          1             0        1.255542   -1.879784    0.000000
    4          6             0        0.662812   -0.989701    0.000000
    5          1             0       -1.474873   -1.658768    0.000000
    6          6             0       -0.745544   -0.874478    0.000000
    7          7             0       -1.127859    0.370571    0.000000
    8          1             0       -0.048078    2.066660    0.000000
    9          7             0        0.000000    1.075164    0.000000
 ---------------------------------------------------------------------
 Rotational constants (GHZ):      9.8799658      9.6409234      4.8794905
 Standard basis: 6-31G (6D, 7F)
 There are    43 symmetry adapted basis functions of A'  symmetry.
 There are    10 symmetry adapted basis functions of A"  symmetry.
 Integral buffers will be    262144 words long.
 Raffenetti 2 integral format.
 Two-electron integral symmetry is turned on.
    53 basis functions,   126 primitive gaussians,    53 cartesian basis functions
    18 alpha electrons       18 beta electrons
       nuclear repulsion energy       164.9559038372 Hartrees.
 NAtoms=    9 NActive=    9 NUniq=    9 SFac= 1.00D+00 NAtFMM=   60 Big=F
 One-electron integrals computed using PRISM.
 NBasis=    53 RedAO= T  NBF=    43    10
 NBsUse=    53 1.00D-06 NBFU=    43    10
 Harris functional with IExCor=  411 diagonalized for initial guess.
 ExpMin= 1.61D-01 ExpMax= 4.17D+03 ExpMxC= 6.27D+02 IAcc=1 IRadAn=         1 AccDes= 1.00D-06
 HarFok:  IExCor= 411 AccDes= 1.00D-06 IRadAn=         1 IDoV=1
 ScaDFX=  1.000000  1.000000  1.000000  1.000000
 Initial guess orbital symmetries:
       Occupied  (A') (A') (A') (A') (A') (A') (A') (A') (A') (A')
                 (A') (A') (A') (A') (A") (A') (A") (A")
       Virtual   (A") (A") (A') (A') (A') (A') (A') (A') (A') (A')
                 (A') (A") (A') (A') (A") (A') (A') (A") (A') (A')
                 (A") (A') (A') (A") (A') (A') (A') (A') (A') (A')
                 (A') (A') (A') (A') (A')
 The electronic state of the initial guess is 1-A'.
 Requested convergence on RMS density matrix=1.00D-08 within 128 cycles.
 Requested convergence on MAX density matrix=1.00D-06.
 Requested convergence on             energy=1.00D-06.
 No special actions if energy rises.
 Keep R1 integrals in memory in canonical form, NReq=     1601066.
 Integral accuracy reduced to 1.0D-05 until final iterations.
 Initial convergence to 1.0D-05 achieved.  Increase integral accuracy.
 SCF Done:  E(RB+HF-B95) =  -226.033737870     A.U. after   15 cycles
             Convg  =    0.9585D-08             -V/T =  2.0030
             S**2   =   0.0000

 **********************************************************************

            Population analysis using the SCF density.

 **********************************************************************

 Orbital symmetries:
       Occupied  (A') (A') (A') (A') (A') (A') (A') (A') (A') (A')
                 (A') (A') (A") (A') (A') (A') (A") (A")
       Virtual   (A") (A") (A') (A') (A') (A') (A') (A') (A') (A')
                 (A') (A") (A') (A') (A") (A') (A") (A') (A') (A")
                 (A') (A") (A') (A') (A') (A') (A') (A') (A') (A')
                 (A') (A') (A') (A') (A')
 The electronic state is 1-A'.
 Alpha  occ. eigenvalues --  -14.47469 -14.41835 -10.27563 -10.25092 -10.23207
 Alpha  occ. eigenvalues --   -1.09142  -0.84672  -0.79995  -0.62633  -0.61495
 Alpha  occ. eigenvalues --   -0.55720  -0.45907  -0.45753  -0.43628  -0.40777
 Alpha  occ. eigenvalues --   -0.28115  -0.26905  -0.25668
 Alpha virt. eigenvalues --    0.03733   0.08891   0.10086   0.15470   0.17677
 Alpha virt. eigenvalues --    0.19068   0.23813   0.25651   0.31028   0.41681
 Alpha virt. eigenvalues --    0.45700   0.56227   0.58261   0.60909   0.62006
 Alpha virt. eigenvalues --    0.64339   0.66951   0.68701   0.72635   0.75531
 Alpha virt. eigenvalues --    0.75994   0.84261   0.85745   0.88639   0.89646
 Alpha virt. eigenvalues --    0.92796   0.97149   0.98238   1.00305   1.11283
 Alpha virt. eigenvalues --    1.22364   1.29265   1.39617   1.60452   1.66618
          Condensed to atoms (all electrons):
              1          2          3          4          5          6
     1  H    0.501545   0.356339  -0.000141  -0.016043  -0.000113   0.004276
     2  C    0.356339   5.049998  -0.036579   0.574605   0.002884  -0.058375
     3  H   -0.000141  -0.036579   0.522429   0.357433  -0.000380  -0.020477
     4  C   -0.016043   0.574605   0.357433   4.987207  -0.040237   0.497613
     5  H   -0.000113   0.002884  -0.000380  -0.040237   0.522210   0.379682
     6  C    0.004276  -0.058375  -0.020477   0.497613   0.379682   4.940757
     7  N    0.004302  -0.154964   0.006126  -0.049949  -0.047394   0.463124
     8  H    0.000056  -0.037505  -0.000082   0.004521  -0.000114   0.007972
     9  N   -0.039562   0.156192   0.007029  -0.043813   0.009432  -0.204897
              7          8          9
     1  H    0.004302   0.000056  -0.039562
     2  C   -0.154964  -0.037505   0.156192
     3  H    0.006126  -0.000082   0.007029
     4  C   -0.049949   0.004521  -0.043813
     5  H   -0.047394  -0.000114   0.009432
     6  C    0.463124   0.007972  -0.204897
     7  N    6.777991  -0.035774   0.234580
     8  H   -0.035774   0.365214   0.334527
     9  N    0.234580   0.334527   7.104057
 Mulliken atomic charges:
              1
     1  H    0.189341
     2  C    0.147405
     3  H    0.164641
     4  C   -0.271337
     5  H    0.174030
     6  C   -0.009674
     7  N   -0.198044
     8  H    0.361183
     9  N   -0.557545
 Sum of Mulliken charges=   0.00000
 Atomic charges with hydrogens summed into heavy atoms:
              1
     1  H    0.000000
     2  C    0.336746
     3  H    0.000000
     4  C   -0.106695
     5  H    0.000000
     6  C    0.164356
     7  N   -0.198044
     8  H    0.000000
     9  N   -0.196363
 Sum of Mulliken charges=   0.00000
 Electronic spatial extent (au):  <R**2>=   280.6668
 Charge=     0.0000 electrons
 Dipole moment (field-independent basis, Debye):
    X=     2.2868    Y=     0.8823    Z=     0.0000  Tot=     2.4511
 Quadrupole moment (field-independent basis, Debye-Ang):
   XX=   -29.7967   YY=   -21.8641   ZZ=   -31.3358
   XY=     2.6063   XZ=     0.0000   YZ=     0.0000
 Traceless Quadrupole moment (field-independent basis, Debye-Ang):
   XX=    -2.1312   YY=     5.8014   ZZ=    -3.6703
   XY=     2.6063   XZ=     0.0000   YZ=     0.0000
 Octapole moment (field-independent basis, Debye-Ang**2):
  XXX=     9.7729  YYY=    11.8783  ZZZ=     0.0000  XYY=     0.5971
  XXY=    -2.6520  XXZ=     0.0000  XZZ=    -0.9277  YZZ=     1.9901
  YYZ=     0.0000  XYZ=     0.0000
 Hexadecapole moment (field-independent basis, Debye-Ang**3):
 XXXX=  -168.6064 YYYY=  -126.0426 ZZZZ=   -30.3617 XXXY=    10.3027
 XXXZ=     0.0000 YYYX=    -1.6887 YYYZ=     0.0000 ZZZX=     0.0000
 ZZZY=     0.0000 XXYY=   -49.4175 XXZZ=   -36.2265 YYZZ=   -34.9999
 XXYZ=     0.0000 YYXZ=     0.0000 ZZXY=    -0.1367
 N-N= 1.649559038372D+02 E-N=-8.564039978587D+02  KE= 2.253659986746D+02
 Symmetry A'   KE= 2.171226040595D+02
 Symmetry A"   KE= 8.243394615165D+00
 ***** Axes restored to original set *****
 -------------------------------------------------------------------
 Center     Atomic                   Forces (Hartrees/Bohr)
 Number     Number              X              Y              Z
 -------------------------------------------------------------------
    1          1          -0.003718074    0.000000000   -0.003154904
    2          6          -0.019727175    0.000000000   -0.017834028
    3          1           0.001663851    0.000000000   -0.003997332
    4          6           0.011791964    0.000000000   -0.004252494
    5          1           0.004113072    0.000000000   -0.000208422
    6          6           0.028615292    0.000000000   -0.030096452
    7          7           0.006088650    0.000000000    0.044292686
    8          1          -0.007461283    0.000000000    0.006429845
    9          7          -0.021366297    0.000000000    0.008821102
 -------------------------------------------------------------------
 Cartesian Forces:  Max     0.044292686 RMS     0.013982426

 GradGradGradGradGradGradGradGradGradGradGradGradGradGradGradGradGradGrad
 Berny optimization.
 Internal  Forces:  Max     0.041518203 RMS     0.010511047
 Search for a local minimum.
 Step number   1 out of a maximum of  48
 All quantities printed in internal units (Hartrees-Bohrs-Radians)
 Second derivative matrix not updated -- first step.
     Eigenvalues ---    0.02140   0.02277   0.02344   0.02397   0.02534
     Eigenvalues ---    0.02554   0.16000   0.16000   0.16000   0.16000
     Eigenvalues ---    0.22000   0.22929   0.37105   0.37238   0.37308
     Eigenvalues ---    0.40394   0.48796   0.49002   0.53148   0.57511
     Eigenvalues ---    0.639231000.000001000.000001000.000001000.00000
     Eigenvalues --- 1000.000001000.000001000.000001000.000001000.00000
     Eigenvalues --- 1000.000001000.000001000.000001000.000001000.00000
     Eigenvalues --- 1000.000001000.000001000.00000
 RFO step:  Lambda=-7.15363993D-03.
 Linear search not attempted -- first point.
 Iteration  1 RMS(Cart)=  0.02349895 RMS(Int)=  0.00006995
 Iteration  2 RMS(Cart)=  0.00007032 RMS(Int)=  0.00001642
 Iteration  3 RMS(Cart)=  0.00000000 RMS(Int)=  0.00001642
 Variable       Old X    -DE/DX   Delta X   Delta X   Delta X     New X
                                 (Linear)    (Quad)   (Total)
    R1        2.02190   0.00476   0.00000   0.01254   0.01254   2.03444
    R2        2.57552   0.02293   0.00000   0.03990   0.03989   2.61541
    R3        2.53480   0.02517   0.00000   0.04414   0.04417   2.57897
    R4        2.02084   0.00431   0.00000   0.01135   0.01135   2.03218
    R5        2.67030   0.00868   0.00000   0.01692   0.01689   2.68719
    R6        2.02389   0.00409   0.00000   0.01083   0.01083   2.03472
    R7        2.46123   0.04152   0.00000   0.06317   0.06317   2.52439
    R8        2.51306   0.03097   0.00000   0.05449   0.05451   2.56758
    R9        1.87586   0.00984   0.00000   0.01980   0.01980   1.89566
    A1        2.29797  -0.00107   0.00000  -0.00262  -0.00262   2.29534
    A2        2.12422   0.00094   0.00000   0.00941   0.00940   2.13363
    A3        1.86100   0.00014   0.00000  -0.00679  -0.00678   1.85422
    A4        2.23035  -0.00363   0.00000  -0.00872  -0.00870   2.22165
    A5        1.81292   0.00794   0.00000   0.02155   0.02151   1.83443
    A6        2.23992  -0.00432   0.00000  -0.01283  -0.01281   2.22710
    A7        2.23827   0.00051   0.00000   0.00218   0.00219   2.24046
    A8        1.95036  -0.00215   0.00000  -0.01104  -0.01108   1.93928
    A9        2.09456   0.00163   0.00000   0.00886   0.00888   2.10344
   A10        1.83126  -0.00343   0.00000   0.00052   0.00054   1.83180
   A11        1.96924  -0.00250   0.00000  -0.00424  -0.00419   1.96505
   A12        2.23320   0.00113   0.00000   0.00141   0.00139   2.23459
   A13        2.08074   0.00137   0.00000   0.00283   0.00281   2.08355
    D1        0.00000   0.00000   0.00000   0.00000   0.00000   0.00000
    D2        3.14159   0.00000   0.00000   0.00000   0.00000   3.14159
    D3        3.14159   0.00000   0.00000   0.00000   0.00000   3.14159
    D4        0.00000   0.00000   0.00000   0.00000   0.00000   0.00000
    D5        3.14159   0.00000   0.00000   0.00000   0.00000   3.14159
    D6        0.00000   0.00000   0.00000   0.00000   0.00000   0.00000
    D7        0.00000   0.00000   0.00000   0.00000   0.00000   0.00000
    D8        3.14159   0.00000   0.00000   0.00000   0.00000   3.14159
    D9        3.14159   0.00000   0.00000   0.00000   0.00000   3.14159
   D10        0.00000   0.00000   0.00000   0.00000   0.00000   0.00000
   D11        0.00000   0.00000   0.00000   0.00000   0.00000   0.00000
   D12        3.14159   0.00000   0.00000   0.00000   0.00000   3.14159
   D13        0.00000   0.00000   0.00000   0.00000   0.00000   0.00000
   D14        3.14159   0.00000   0.00000   0.00000   0.00000   3.14159
   D15        0.00000   0.00000   0.00000   0.00000   0.00000   0.00000
   D16        3.14159   0.00000   0.00000   0.00000   0.00000   3.14159
         Item               Value     Threshold  Converged?
 Maximum Force            0.041518     0.000450     NO 
 RMS     Force            0.010511     0.000300     NO 
 Maximum Displacement     0.060946     0.001800     NO 
 RMS     Displacement     0.023491     0.001200     NO 
 Predicted change in Energy=-3.621643D-03
 GradGradGradGradGradGradGradGradGradGradGradGradGradGradGradGradGradGrad

                          Input orientation:                          
 ---------------------------------------------------------------------
 Center     Atomic     Atomic              Coordinates (Angstroms)
 Number     Number      Type              X           Y           Z
 ---------------------------------------------------------------------
    1          1             0       -1.890013    0.000000   -1.181070
    2          6             0       -0.943700    0.000000   -0.667738
    3          1             0        0.676254    0.000000   -2.168132
    4          6             0        0.356777    0.000000   -1.141299
    5          1             0        2.249706    0.000000    0.083048
    6          6             0        1.174718    0.000000    0.021911
    7          7             0        0.432105    0.000000    1.132327
    8          1             0       -1.601750    0.000000    1.362700
    9          7             0       -0.853966    0.000000    0.694040
 ---------------------------------------------------------------------
                    Distance matrix (angstroms):
                    1          2          3          4          5
     1  H    0.000000
     2  C    1.076577   0.000000
     3  H    2.749549   2.208038   0.000000
     4  C    2.247143   1.384016   1.075385   0.000000
     5  H    4.328426   3.280475   2.746555   2.254374   0.000000
     6  C    3.292376   2.227849   2.246054   1.422000   1.076725
     7  N    3.277810   2.265629   3.309477   2.274873   2.098728
     8  H    2.560051   2.134411   4.201914   3.178968   4.058475
     9  N    2.142296   1.364732   3.245552   2.198720   3.163241
                    6          7          8          9
     6  C    0.000000
     7  N    1.335851   0.000000
     8  H    3.083259   2.046860   0.000000
     9  N    2.137128   1.358703   1.003138   0.000000
 Stoichiometry    C3H4N2
 Framework group  CS[SG(C3H4N2)]
 Deg. of freedom    15
 Full point group                 CS      NOp   2
 Largest Abelian subgroup         CS      NOp   2
 Largest concise Abelian subgroup C1      NOp   1
                         Standard orientation:                         
 ---------------------------------------------------------------------
 Center     Atomic     Atomic              Coordinates (Angstroms)
 Number     Number      Type              X           Y           Z
 ---------------------------------------------------------------------
    1          1             0        2.109786    0.726034    0.000000
    2          6             0        1.115922    0.312206    0.000000
    3          1             0        1.265698   -1.890746    0.000000
    4          6             0        0.667445   -0.997133    0.000000
    5          1             0       -1.474283   -1.700840    0.000000
    6          6             0       -0.751425   -0.902835    0.000000
    7          7             0       -1.148904    0.372511    0.000000
    8          1             0       -0.050516    2.099700    0.000000
    9          7             0        0.000000    1.097835    0.000000
 ---------------------------------------------------------------------
 Rotational constants (GHZ):      9.5040504      9.3929288      4.7240814
 Standard basis: 6-31G (6D, 7F)
 There are    43 symmetry adapted basis functions of A'  symmetry.
 There are    10 symmetry adapted basis functions of A"  symmetry.
 Integral buffers will be    262144 words long.
 Raffenetti 2 integral format.
 Two-electron integral symmetry is turned on.
    53 basis functions,   126 primitive gaussians,    53 cartesian basis functions
    18 alpha electrons       18 beta electrons
       nuclear repulsion energy       162.3080847581 Hartrees.
 NAtoms=    9 NActive=    9 NUniq=    9 SFac= 1.00D+00 NAtFMM=   60 Big=F
 One-electron integrals computed using PRISM.
 NBasis=    53 RedAO= T  NBF=    43    10
 NBsUse=    53 1.00D-06 NBFU=    43    10
 Initial guess read from the read-write file:
 Initial guess orbital symmetries:
       Occupied  (A') (A') (A') (A') (A') (A') (A') (A') (A') (A')
                 (A') (A') (A") (A') (A') (A') (A") (A")
       Virtual   (A") (A") (A') (A') (A') (A') (A') (A') (A') (A')
                 (A') (A") (A') (A') (A") (A') (A") (A') (A') (A")
                 (A') (A") (A') (A') (A') (A') (A') (A') (A') (A')
                 (A') (A') (A') (A') (A')
 Harris functional with IExCor=  411 diagonalized for initial guess.
 ExpMin= 1.61D-01 ExpMax= 4.17D+03 ExpMxC= 6.27D+02 IAcc=1 IRadAn=         1 AccDes= 1.00D-06
 HarFok:  IExCor= 411 AccDes= 1.00D-06 IRadAn=         1 IDoV=1
 ScaDFX=  1.000000  1.000000  1.000000  1.000000
 Requested convergence on RMS density matrix=1.00D-08 within 128 cycles.
 Requested convergence on MAX density matrix=1.00D-06.
 Requested convergence on             energy=1.00D-06.
 No special actions if energy rises.
 Keep R1 integrals in memory in canonical form, NReq=     1601066.
 Integral accuracy reduced to 1.0D-05 until final iterations.
 Initial convergence to 1.0D-05 achieved.  Increase integral accuracy.
 SCF Done:  E(RB+HF-B95) =  -226.037279884     A.U. after   13 cycles
             Convg  =    0.8532D-08             -V/T =  2.0046
             S**2   =   0.0000
 ***** Axes restored to original set *****
 -------------------------------------------------------------------
 Center     Atomic                   Forces (Hartrees/Bohr)
 Number     Number              X              Y              Z
 -------------------------------------------------------------------
    1          1           0.000374423    0.000000000   -0.000093161
    2          6           0.001720974    0.000000000   -0.001904652
    3          1          -0.000096324    0.000000000   -0.000433391
    4          6           0.000213786    0.000000000    0.004893078
    5          1          -0.000727917    0.000000000    0.001119715
    6          6          -0.004878631    0.000000000   -0.009713284
    7          7           0.003782764    0.000000000    0.011220557
    8          1           0.000879547    0.000000000    0.000523619
    9          7          -0.001268622    0.000000000   -0.005612481
 -------------------------------------------------------------------
 Cartesian Forces:  Max     0.011220557 RMS     0.003470635

 GradGradGradGradGradGradGradGradGradGradGradGradGradGradGradGradGradGrad
 Berny optimization.
 Internal  Forces:  Max     0.006387126 RMS     0.001873923
 Search for a local minimum.
 Step number   2 out of a maximum of  48
 All quantities printed in internal units (Hartrees-Bohrs-Radians)
 Update second derivatives using D2CorX and points  1  2
 Trust test= 9.78D-01 RLast= 1.13D-01 DXMaxT set to 3.38D-01
     Eigenvalues ---    0.02141   0.02278   0.02344   0.02397   0.02533
     Eigenvalues ---    0.02554   0.15954   0.16000   0.16000   0.16049
     Eigenvalues ---    0.21759   0.23369   0.37141   0.37230   0.37286
     Eigenvalues ---    0.39997   0.47850   0.49381   0.54330   0.58047
     Eigenvalues ---    0.629231000.000001000.000001000.000001000.00000
     Eigenvalues --- 1000.000001000.000001000.000001000.000001000.00000
     Eigenvalues --- 1000.000001000.000001000.000001000.000001000.00000
     Eigenvalues --- 1000.000001000.000001000.00000
 RFO step:  Lambda=-4.38856210D-04.
 Quartic linear search produced a step of  0.02054.
 Iteration  1 RMS(Cart)=  0.00589864 RMS(Int)=  0.00004537
 Iteration  2 RMS(Cart)=  0.00005297 RMS(Int)=  0.00001899
 Iteration  3 RMS(Cart)=  0.00000000 RMS(Int)=  0.00001899
 Variable       Old X    -DE/DX   Delta X   Delta X   Delta X     New X
                                 (Linear)    (Quad)   (Total)
    R1        2.03444  -0.00029   0.00026  -0.00023   0.00002   2.03446
    R2        2.61541  -0.00385   0.00082  -0.00669  -0.00590   2.60951
    R3        2.57897   0.00016   0.00091   0.00231   0.00320   2.58217
    R4        2.03218   0.00039   0.00023   0.00155   0.00179   2.03397
    R5        2.68719  -0.00410   0.00035  -0.00962  -0.00928   2.67791
    R6        2.03472  -0.00066   0.00022  -0.00134  -0.00112   2.03360
    R7        2.52439   0.00389   0.00130   0.00903   0.01036   2.53475
    R8        2.56758   0.00325   0.00112   0.00873   0.00988   2.57745
    R9        1.89566  -0.00031   0.00041   0.00021   0.00061   1.89627
    A1        2.29534  -0.00004  -0.00005   0.00061   0.00058   2.29592
    A2        2.13363   0.00040   0.00019   0.00399   0.00420   2.13783
    A3        1.85422  -0.00036  -0.00014  -0.00459  -0.00478   1.84943
    A4        2.22165  -0.00059  -0.00018  -0.00140  -0.00156   2.22009
    A5        1.83443   0.00064   0.00044  -0.00040   0.00000   1.83443
    A6        2.22710  -0.00005  -0.00026   0.00181   0.00156   2.22867
    A7        2.24046  -0.00070   0.00005  -0.00064  -0.00061   2.23985
    A8        1.93928   0.00366  -0.00023   0.01537   0.01516   1.95444
    A9        2.10344  -0.00296   0.00018  -0.01473  -0.01455   2.08889
   A10        1.83180  -0.00639   0.00001  -0.02288  -0.02280   1.80900
   A11        1.96505   0.00245  -0.00009   0.01250   0.01242   1.97747
   A12        2.23459  -0.00026   0.00003  -0.00013  -0.00010   2.23449
   A13        2.08355  -0.00219   0.00006  -0.01238  -0.01232   2.07122
    D1        0.00000   0.00000   0.00000   0.00000   0.00000   0.00000
    D2        3.14159   0.00000   0.00000   0.00000   0.00000   3.14159
    D3        3.14159   0.00000   0.00000   0.00000   0.00000   3.14159
    D4        0.00000   0.00000   0.00000   0.00000   0.00000   0.00000
    D5        3.14159   0.00000   0.00000   0.00000   0.00000   3.14159
    D6        0.00000   0.00000   0.00000   0.00000   0.00000   0.00000
    D7        0.00000   0.00000   0.00000   0.00000   0.00000   0.00000
    D8        3.14159   0.00000   0.00000   0.00000   0.00000   3.14159
    D9        3.14159   0.00000   0.00000   0.00000   0.00000   3.14159
   D10        0.00000   0.00000   0.00000   0.00000   0.00000   0.00000
   D11        0.00000   0.00000   0.00000   0.00000   0.00000   0.00000
   D12        3.14159   0.00000   0.00000   0.00000   0.00000   3.14159
   D13        0.00000   0.00000   0.00000   0.00000   0.00000   0.00000
   D14        3.14159   0.00000   0.00000   0.00000   0.00000   3.14159
   D15        0.00000   0.00000   0.00000   0.00000   0.00000   0.00000
   D16        3.14159   0.00000   0.00000   0.00000   0.00000   3.14159
         Item               Value     Threshold  Converged?
 Maximum Force            0.006387     0.000450     NO 
 RMS     Force            0.001874     0.000300     NO 
 Maximum Displacement     0.023230     0.001800     NO 
 RMS     Displacement     0.005919     0.001200     NO 
 Predicted change in Energy=-2.204730D-04
 GradGradGradGradGradGradGradGradGradGradGradGradGradGradGradGradGradGrad

                          Input orientation:                          
 ---------------------------------------------------------------------
 Center     Atomic     Atomic              Coordinates (Angstroms)
 Number     Number      Type              X           Y           Z
 ---------------------------------------------------------------------
    1          1             0       -1.888766    0.000000   -1.185985
    2          6             0       -0.943241    0.000000   -0.671176
    3          1             0        0.675652    0.000000   -2.168454
    4          6             0        0.355308    0.000000   -1.140901
    5          1             0        2.242248    0.000000    0.082774
    6          6             0        1.167946    0.000000    0.020028
    7          7             0        0.436872    0.000000    1.144620
    8          1             0       -1.596103    0.000000    1.362831
    9          7             0       -0.849785    0.000000    0.692050
 ---------------------------------------------------------------------
                    Distance matrix (angstroms):
                    1          2          3          4          5
     1  H    0.000000
     2  C    1.076590   0.000000
     3  H    2.746176   2.205143   0.000000
     4  C    2.244527   1.380895   1.076330   0.000000
     5  H    4.321460   3.273496   2.742671   2.248982   0.000000
     6  C    3.286023   2.221457   2.243169   1.417087   1.076133
     7  N    3.292463   2.280752   3.321668   2.286976   2.094492
     8  H    2.565563   2.136215   4.198910   3.174379   4.046169
     9  N    2.146275   1.366426   3.241827   2.193618   3.151489
                    6          7          8          9
     6  C    0.000000
     7  N    1.341333   0.000000
     8  H    3.072960   2.044653   0.000000
     9  N    2.126699   1.363930   1.003463   0.000000
 Stoichiometry    C3H4N2
 Framework group  CS[SG(C3H4N2)]
 Deg. of freedom    15
 Full point group                 CS      NOp   2
 Largest Abelian subgroup         CS      NOp   2
 Largest concise Abelian subgroup C1      NOp   1
                         Standard orientation:                         
 ---------------------------------------------------------------------
 Center     Atomic     Atomic              Coordinates (Angstroms)
 Number     Number      Type              X           Y           Z
 ---------------------------------------------------------------------
    1          1             0        2.113899    0.721614    0.000000
    2          6             0        1.119375    0.309343    0.000000
    3          1             0        1.267360   -1.890829    0.000000
    4          6             0        0.669105   -0.996079    0.000000
    5          1             0       -1.468348   -1.695517    0.000000
    6          6             0       -0.744658   -0.899067    0.000000
    7          7             0       -1.160396    0.376212    0.000000
    8          1             0       -0.053071    2.095060    0.000000
    9          7             0        0.000000    1.093001    0.000000
 ---------------------------------------------------------------------
 Rotational constants (GHZ):      9.5718023      9.3119117      4.7200343
 Standard basis: 6-31G (6D, 7F)
 There are    43 symmetry adapted basis functions of A'  symmetry.
 There are    10 symmetry adapted basis functions of A"  symmetry.
 Integral buffers will be    262144 words long.
 Raffenetti 2 integral format.
 Two-electron integral symmetry is turned on.
    53 basis functions,   126 primitive gaussians,    53 cartesian basis functions
    18 alpha electrons       18 beta electrons
       nuclear repulsion energy       162.2203848208 Hartrees.
 NAtoms=    9 NActive=    9 NUniq=    9 SFac= 1.00D+00 NAtFMM=   60 Big=F
 One-electron integrals computed using PRISM.
 NBasis=    53 RedAO= T  NBF=    43    10
 NBsUse=    53 1.00D-06 NBFU=    43    10
 Initial guess read from the read-write file:
 Initial guess orbital symmetries:
       Occupied  (A') (A') (A') (A') (A') (A') (A') (A') (A') (A')
                 (A') (A') (A") (A') (A') (A') (A") (A")
       Virtual   (A") (A") (A') (A') (A') (A') (A') (A') (A') (A')
                 (A') (A") (A') (A') (A") (A') (A") (A') (A') (A')
                 (A") (A") (A') (A') (A') (A') (A') (A') (A') (A')
                 (A') (A') (A') (A') (A')
 Harris functional with IExCor=  411 diagonalized for initial guess.
 ExpMin= 1.61D-01 ExpMax= 4.17D+03 ExpMxC= 6.27D+02 IAcc=1 IRadAn=         1 AccDes= 1.00D-06
 HarFok:  IExCor= 411 AccDes= 1.00D-06 IRadAn=         1 IDoV=1
 ScaDFX=  1.000000  1.000000  1.000000  1.000000
 Requested convergence on RMS density matrix=1.00D-08 within 128 cycles.
 Requested convergence on MAX density matrix=1.00D-06.
 Requested convergence on             energy=1.00D-06.
 No special actions if energy rises.
 Keep R1 integrals in memory in canonical form, NReq=     1601066.
 Integral accuracy reduced to 1.0D-05 until final iterations.
 Initial convergence to 1.0D-05 achieved.  Increase integral accuracy.
 SCF Done:  E(RB+HF-B95) =  -226.037446897     A.U. after   12 cycles
             Convg  =    0.4475D-08             -V/T =  2.0046
             S**2   =   0.0000
 ***** Axes restored to original set *****
 -------------------------------------------------------------------
 Center     Atomic                   Forces (Hartrees/Bohr)
 Number     Number              X              Y              Z
 -------------------------------------------------------------------
    1          1           0.000194826    0.000000000    0.000463182
    2          6           0.000980078    0.000000000    0.002917909
    3          1           0.000116504    0.000000000    0.000412295
    4          6           0.001408341    0.000000000    0.002194012
    5          1           0.000108257    0.000000000    0.000253245
    6          6           0.001413695    0.000000000   -0.002933574
    7          7           0.000475849    0.000000000   -0.001920510
    8          1           0.000128036    0.000000000   -0.000298736
    9          7          -0.004825586    0.000000000   -0.001087823
 -------------------------------------------------------------------
 Cartesian Forces:  Max     0.004825586 RMS     0.001438598

 GradGradGradGradGradGradGradGradGradGradGradGradGradGradGradGradGradGrad
 Berny optimization.
 Internal  Forces:  Max     0.002972475 RMS     0.001055588
 Search for a local minimum.
 Step number   3 out of a maximum of  48
 All quantities printed in internal units (Hartrees-Bohrs-Radians)
 Update second derivatives using D2CorX and points  1  2  3
 Trust test= 7.58D-01 RLast= 4.07D-02 DXMaxT set to 3.38D-01
     Eigenvalues ---    0.02140   0.02276   0.02342   0.02397   0.02533
     Eigenvalues ---    0.02552   0.15389   0.16000   0.16005   0.16068
     Eigenvalues ---    0.22096   0.29552   0.35116   0.37239   0.37304
     Eigenvalues ---    0.37691   0.46866   0.49164   0.56632   0.60308
     Eigenvalues ---    0.647771000.000001000.000001000.000001000.00000
     Eigenvalues --- 1000.000001000.000001000.000001000.000001000.00000
     Eigenvalues --- 1000.000001000.000001000.000001000.000001000.00000
     Eigenvalues --- 1000.000001000.000001000.00000
 RFO step:  Lambda=-6.92358478D-05.
 Quartic linear search produced a step of -0.19576.
 Iteration  1 RMS(Cart)=  0.00253278 RMS(Int)=  0.00000636
 Iteration  2 RMS(Cart)=  0.00000357 RMS(Int)=  0.00000526
 Iteration  3 RMS(Cart)=  0.00000000 RMS(Int)=  0.00000526
 Variable       Old X    -DE/DX   Delta X   Delta X   Delta X     New X
                                 (Linear)    (Quad)   (Total)
    R1        2.03446  -0.00039   0.00000  -0.00088  -0.00088   2.03358
    R2        2.60951   0.00134   0.00115  -0.00038   0.00079   2.61030
    R3        2.58217  -0.00297  -0.00063  -0.00325  -0.00388   2.57830
    R4        2.03397  -0.00036  -0.00035  -0.00017  -0.00051   2.03345
    R5        2.67791  -0.00278   0.00182  -0.00862  -0.00680   2.67111
    R6        2.03360   0.00013   0.00022  -0.00015   0.00007   2.03367
    R7        2.53475   0.00060  -0.00203   0.00447   0.00243   2.53718
    R8        2.57745   0.00169  -0.00193   0.00589   0.00395   2.58141
    R9        1.89627  -0.00030  -0.00012  -0.00032  -0.00044   1.89583
    A1        2.29592  -0.00026  -0.00011   0.00009  -0.00003   2.29589
    A2        2.13783  -0.00097  -0.00082  -0.00227  -0.00310   2.13473
    A3        1.84943   0.00123   0.00094   0.00218   0.00313   1.85256
    A4        2.22009  -0.00021   0.00031  -0.00072  -0.00042   2.21966
    A5        1.83443   0.00083   0.00000   0.00234   0.00236   1.83678
    A6        2.22867  -0.00061  -0.00031  -0.00162  -0.00193   2.22674
    A7        2.23985   0.00109   0.00012   0.00390   0.00402   2.24388
    A8        1.95444  -0.00177  -0.00297  -0.00067  -0.00364   1.95080
    A9        2.08889   0.00068   0.00285  -0.00323  -0.00038   2.08851
   A10        1.80900   0.00202   0.00446  -0.00021   0.00424   1.81324
   A11        1.97747  -0.00230  -0.00243  -0.00365  -0.00608   1.97139
   A12        2.23449   0.00106   0.00002   0.00355   0.00357   2.23806
   A13        2.07122   0.00124   0.00241   0.00010   0.00251   2.07374
    D1        0.00000   0.00000   0.00000   0.00000   0.00000   0.00000
    D2        3.14159   0.00000   0.00000   0.00000   0.00000   3.14159
    D3        3.14159   0.00000   0.00000   0.00000   0.00000   3.14159
    D4        0.00000   0.00000   0.00000   0.00000   0.00000   0.00000
    D5        3.14159   0.00000   0.00000   0.00000   0.00000   3.14159
    D6        0.00000   0.00000   0.00000   0.00000   0.00000   0.00000
    D7        0.00000   0.00000   0.00000   0.00000   0.00000   0.00000
    D8        3.14159   0.00000   0.00000   0.00000   0.00000   3.14159
    D9        3.14159   0.00000   0.00000   0.00000   0.00000   3.14159
   D10        0.00000   0.00000   0.00000   0.00000   0.00000   0.00000
   D11        0.00000   0.00000   0.00000   0.00000   0.00000   0.00000
   D12        3.14159   0.00000   0.00000   0.00000   0.00000   3.14159
   D13        0.00000   0.00000   0.00000   0.00000   0.00000   0.00000
   D14        3.14159   0.00000   0.00000   0.00000   0.00000   3.14159
   D15        0.00000   0.00000   0.00000   0.00000   0.00000   0.00000
   D16        3.14159   0.00000   0.00000   0.00000   0.00000   3.14159
         Item               Value     Threshold  Converged?
 Maximum Force            0.002972     0.000450     NO 
 RMS     Force            0.001056     0.000300     NO 
 Maximum Displacement     0.006949     0.001800     NO 
 RMS     Displacement     0.002533     0.001200     NO 
 Predicted change in Energy=-4.519343D-05
 GradGradGradGradGradGradGradGradGradGradGradGradGradGradGradGradGradGrad

                          Input orientation:                          
 ---------------------------------------------------------------------
 Center     Atomic     Atomic              Coordinates (Angstroms)
 Number     Number      Type              X           Y           Z
 ---------------------------------------------------------------------
    1          1             0       -1.887571    0.000000   -1.184014
    2          6             0       -0.942484    0.000000   -0.669378
    3          1             0        0.676322    0.000000   -2.166632
    4          6             0        0.356468    0.000000   -1.139211
    5          1             0        2.243968    0.000000    0.081445
    6          6             0        1.169738    0.000000    0.016879
    7          7             0        0.436486    0.000000    1.141586
    8          1             0       -1.599334    0.000000    1.363023
    9          7             0       -0.853462    0.000000    0.692090
 ---------------------------------------------------------------------
                    Distance matrix (angstroms):
                    1          2          3          4          5
     1  H    0.000000
     2  C    1.076123   0.000000
     3  H    2.745739   2.205062   0.000000
     4  C    2.244486   1.381310   1.076057   0.000000
     5  H    4.320996   3.273715   2.740687   2.247812   0.000000
     6  C    3.284704   2.220907   2.238566   1.413489   1.076169
     7  N    3.287804   2.276214   3.316900   2.282200   2.095446
     8  H    2.563295   2.135909   4.199652   3.175899   4.051347
     9  N    2.142230   1.364376   3.242303   2.194902   3.157050
                    6          7          8          9
     6  C    0.000000
     7  N    1.342619   0.000000
     8  H    3.078938   2.047827   0.000000
     9  N    2.132897   1.366021   1.003233   0.000000
 Stoichiometry    C3H4N2
 Framework group  CS[SG(C3H4N2)]
 Deg. of freedom    15
 Full point group                 CS      NOp   2
 Largest Abelian subgroup         CS      NOp   2
 Largest concise Abelian subgroup C1      NOp   1
                         Standard orientation:                         
 ---------------------------------------------------------------------
 Center     Atomic     Atomic              Coordinates (Angstroms)
 Number     Number      Type              X           Y           Z
 ---------------------------------------------------------------------
    1          1             0        2.109956    0.725595    0.000000
    2          6             0        1.116529    0.311901    0.000000
    3          1             0        1.268214   -1.887938    0.000000
    4          6             0        0.668265   -0.994651    0.000000
    5          1             0       -1.466020   -1.699977    0.000000
    6          6             0       -0.742282   -0.903519    0.000000
    7          7             0       -1.158869    0.372835    0.000000
    8          1             0       -0.055139    2.097763    0.000000
    9          7             0        0.000000    1.096047    0.000000
 ---------------------------------------------------------------------
 Rotational constants (GHZ):      9.5356073      9.3537129      4.7218921
 Standard basis: 6-31G (6D, 7F)
 There are    43 symmetry adapted basis functions of A'  symmetry.
 There are    10 symmetry adapted basis functions of A"  symmetry.
 Integral buffers will be    262144 words long.
 Raffenetti 2 integral format.
 Two-electron integral symmetry is turned on.
    53 basis functions,   126 primitive gaussians,    53 cartesian basis functions
    18 alpha electrons       18 beta electrons
       nuclear repulsion energy       162.2408660359 Hartrees.
 NAtoms=    9 NActive=    9 NUniq=    9 SFac= 1.00D+00 NAtFMM=   60 Big=F
 One-electron integrals computed using PRISM.
 NBasis=    53 RedAO= T  NBF=    43    10
 NBsUse=    53 1.00D-06 NBFU=    43    10
 Initial guess read from the read-write file:
 Initial guess orbital symmetries:
       Occupied  (A') (A') (A') (A') (A') (A') (A') (A') (A') (A')
                 (A') (A') (A") (A') (A') (A') (A") (A")
       Virtual   (A") (A") (A') (A') (A') (A') (A') (A') (A') (A')
                 (A') (A") (A') (A') (A") (A') (A") (A') (A') (A')
                 (A") (A") (A') (A') (A') (A') (A') (A') (A') (A')
                 (A') (A') (A') (A') (A')
 Requested convergence on RMS density matrix=1.00D-08 within 128 cycles.
 Requested convergence on MAX density matrix=1.00D-06.
 Requested convergence on             energy=1.00D-06.
 No special actions if energy rises.
 Keep R1 integrals in memory in canonical form, NReq=     1601066.
 SCF Done:  E(RB+HF-B95) =  -226.037492057     A.U. after    9 cycles
             Convg  =    0.7003D-08             -V/T =  2.0046
             S**2   =   0.0000
 ***** Axes restored to original set *****
 -------------------------------------------------------------------
 Center     Atomic                   Forces (Hartrees/Bohr)
 Number     Number              X              Y              Z
 -------------------------------------------------------------------
    1          1           0.000005283    0.000000000   -0.000072627
    2          6          -0.000132659    0.000000000    0.001197546
    3          1          -0.000065121    0.000000000    0.000092106
    4          6           0.000172093    0.000000000   -0.000174907
    5          1          -0.000009575    0.000000000    0.000234995
    6          6          -0.000262086    0.000000000    0.000209081
    7          7           0.000477002    0.000000000   -0.000133288
    8          1           0.000185910    0.000000000   -0.000101220
    9          7          -0.000370847    0.000000000   -0.001251686
 -------------------------------------------------------------------
 Cartesian Forces:  Max     0.001251686 RMS     0.000369786

 GradGradGradGradGradGradGradGradGradGradGradGradGradGradGradGradGradGrad
 Berny optimization.
 Internal  Forces:  Max     0.001076970 RMS     0.000213001
 Search for a local minimum.
 Step number   4 out of a maximum of  48
 All quantities printed in internal units (Hartrees-Bohrs-Radians)
 Update second derivatives using D2CorX and points  1  2  3  4
 Trust test= 9.99D-01 RLast= 1.47D-02 DXMaxT set to 3.38D-01
     Eigenvalues ---    0.02139   0.02276   0.02343   0.02397   0.02533
     Eigenvalues ---    0.02553   0.14558   0.16001   0.16008   0.16104
     Eigenvalues ---    0.22105   0.29622   0.37045   0.37279   0.37300
     Eigenvalues ---    0.40316   0.46418   0.49011   0.53825   0.58158
     Eigenvalues ---    0.635851000.000001000.000001000.000001000.00000
     Eigenvalues --- 1000.000001000.000001000.000001000.000001000.00000
     Eigenvalues --- 1000.000001000.000001000.000001000.000001000.00000
     Eigenvalues --- 1000.000001000.000001000.00000
 RFO step:  Lambda=-3.65068221D-06.
 Quartic linear search produced a step of  0.03342.
 Iteration  1 RMS(Cart)=  0.00060930 RMS(Int)=  0.00000032
 Iteration  2 RMS(Cart)=  0.00000031 RMS(Int)=  0.00000004
 Variable       Old X    -DE/DX   Delta X   Delta X   Delta X     New X
                                 (Linear)    (Quad)   (Total)
    R1        2.03358   0.00003  -0.00003   0.00009   0.00006   2.03364
    R2        2.61030   0.00015   0.00003   0.00034   0.00037   2.61066
    R3        2.57830  -0.00108  -0.00013  -0.00197  -0.00210   2.57620
    R4        2.03345  -0.00011  -0.00002  -0.00027  -0.00029   2.03317
    R5        2.67111   0.00005  -0.00023   0.00013  -0.00009   2.67101
    R6        2.03367   0.00001   0.00000   0.00003   0.00003   2.03370
    R7        2.53718  -0.00049   0.00008  -0.00057  -0.00049   2.53669
    R8        2.58141   0.00024   0.00013   0.00052   0.00065   2.58206
    R9        1.89583  -0.00021  -0.00001  -0.00041  -0.00042   1.89541
    A1        2.29589  -0.00004   0.00000  -0.00018  -0.00018   2.29571
    A2        2.13473   0.00003  -0.00010   0.00028   0.00018   2.13491
    A3        1.85256   0.00001   0.00010  -0.00010   0.00000   1.85257
    A4        2.21966  -0.00003  -0.00001  -0.00037  -0.00039   2.21928
    A5        1.83678  -0.00008   0.00008  -0.00010  -0.00002   1.83676
    A6        2.22674   0.00011  -0.00006   0.00048   0.00041   2.22715
    A7        2.24388   0.00024   0.00013   0.00139   0.00153   2.24541
    A8        1.95080  -0.00006  -0.00012  -0.00004  -0.00016   1.95064
    A9        2.08851  -0.00017  -0.00001  -0.00135  -0.00137   2.08714
   A10        1.81324  -0.00006   0.00014  -0.00038  -0.00024   1.81300
   A11        1.97139   0.00020  -0.00020   0.00063   0.00043   1.97182
   A12        2.23806  -0.00002   0.00012   0.00022   0.00034   2.23840
   A13        2.07374  -0.00018   0.00008  -0.00085  -0.00077   2.07297
    D1        0.00000   0.00000   0.00000   0.00000   0.00000   0.00000
    D2        3.14159   0.00000   0.00000   0.00000   0.00000   3.14159
    D3        3.14159   0.00000   0.00000   0.00000   0.00000   3.14159
    D4        0.00000   0.00000   0.00000   0.00000   0.00000   0.00000
    D5        3.14159   0.00000   0.00000   0.00000   0.00000   3.14159
    D6        0.00000   0.00000   0.00000   0.00000   0.00000   0.00000
    D7        0.00000   0.00000   0.00000   0.00000   0.00000   0.00000
    D8        3.14159   0.00000   0.00000   0.00000   0.00000   3.14159
    D9        3.14159   0.00000   0.00000   0.00000   0.00000   3.14159
   D10        0.00000   0.00000   0.00000   0.00000   0.00000   0.00000
   D11        0.00000   0.00000   0.00000   0.00000   0.00000   0.00000
   D12        3.14159   0.00000   0.00000   0.00000   0.00000   3.14159
   D13        0.00000   0.00000   0.00000   0.00000   0.00000   0.00000
   D14        3.14159   0.00000   0.00000   0.00000   0.00000   3.14159
   D15        0.00000   0.00000   0.00000   0.00000   0.00000   0.00000
   D16        3.14159   0.00000   0.00000   0.00000   0.00000   3.14159
         Item               Value     Threshold  Converged?
 Maximum Force            0.001077     0.000450     NO 
 RMS     Force            0.000213     0.000300     YES
 Maximum Displacement     0.002409     0.001800     NO 
 RMS     Displacement     0.000609     0.001200     YES
 Predicted change in Energy=-1.858802D-06
 GradGradGradGradGradGradGradGradGradGradGradGradGradGradGradGradGradGrad

                          Input orientation:                          
 ---------------------------------------------------------------------
 Center     Atomic     Atomic              Coordinates (Angstroms)
 Number     Number      Type              X           Y           Z
 ---------------------------------------------------------------------
    1          1             0       -1.887754    0.000000   -1.183680
    2          6             0       -0.942626    0.000000   -0.669047
    3          1             0        0.675616    0.000000   -2.166670
    4          6             0        0.356413    0.000000   -1.139207
    5          1             0        2.244018    0.000000    0.082720
    6          6             0        1.169858    0.000000    0.016699
    7          7             0        0.436764    0.000000    1.141198
    8          1             0       -1.598750    0.000000    1.362481
    9          7             0       -0.853407    0.000000    0.691295
 ---------------------------------------------------------------------
                    Distance matrix (angstroms):
                    1          2          3          4          5
     1  H    0.000000
     2  C    1.076157   0.000000
     3  H    2.745385   2.204900   0.000000
     4  C    2.244608   1.381504   1.075905   0.000000
     5  H    4.321494   3.274119   2.742196   2.248590   0.000000
     6  C    3.284799   2.220999   2.238611   1.413439   1.076187
     7  N    3.287620   2.275897   3.316480   2.281820   2.094407
     8  H    2.562511   2.134855   4.198530   3.175076   4.050266
     9  N    2.141356   1.363265   3.241277   2.194175   3.156645
                    6          7          8          9
     6  C    0.000000
     7  N    1.342357   0.000000
     8  H    3.078363   2.047507   0.000000
     9  N    2.132764   1.366366   1.003009   0.000000
 Stoichiometry    C3H4N2
 Framework group  CS[SG(C3H4N2)]
 Deg. of freedom    15
 Full point group                 CS      NOp   2
 Largest Abelian subgroup         CS      NOp   2
 Largest concise Abelian subgroup C1      NOp   1
                         Standard orientation:                         
 ---------------------------------------------------------------------
 Center     Atomic     Atomic              Coordinates (Angstroms)
 Number     Number      Type              X           Y           Z
 ---------------------------------------------------------------------
    1          1             0        2.109386    0.727010    0.000000
    2          6             0        1.116116    0.312850    0.000000
    3          1             0        1.269399   -1.886715    0.000000
    4          6             0        0.668620   -0.994170    0.000000
    5          1             0       -1.466413   -1.699710    0.000000
    6          6             0       -0.741934   -0.903903    0.000000
    7          7             0       -1.159012    0.372016    0.000000
    8          1             0       -0.056104    2.097089    0.000000
    9          7             0        0.000000    1.095651    0.000000
 ---------------------------------------------------------------------
 Rotational constants (GHZ):      9.5376018      9.3566566      4.7231314
 Standard basis: 6-31G (6D, 7F)
 There are    43 symmetry adapted basis functions of A'  symmetry.
 There are    10 symmetry adapted basis functions of A"  symmetry.
 Integral buffers will be    262144 words long.
 Raffenetti 2 integral format.
 Two-electron integral symmetry is turned on.
    53 basis functions,   126 primitive gaussians,    53 cartesian basis functions
    18 alpha electrons       18 beta electrons
       nuclear repulsion energy       162.2620103051 Hartrees.
 NAtoms=    9 NActive=    9 NUniq=    9 SFac= 1.00D+00 NAtFMM=   60 Big=F
 One-electron integrals computed using PRISM.
 NBasis=    53 RedAO= T  NBF=    43    10
 NBsUse=    53 1.00D-06 NBFU=    43    10
 Initial guess read from the read-write file:
 Initial guess orbital symmetries:
       Occupied  (A') (A') (A') (A') (A') (A') (A') (A') (A') (A')
                 (A') (A') (A") (A') (A') (A') (A") (A")
       Virtual   (A") (A") (A') (A') (A') (A') (A') (A') (A') (A')
                 (A') (A") (A') (A') (A") (A') (A") (A') (A') (A')
                 (A") (A") (A') (A') (A') (A') (A') (A') (A') (A')
                 (A') (A') (A') (A') (A')
 Requested convergence on RMS density matrix=1.00D-08 within 128 cycles.
 Requested convergence on MAX density matrix=1.00D-06.
 Requested convergence on             energy=1.00D-06.
 No special actions if energy rises.
 Keep R1 integrals in memory in canonical form, NReq=     1601066.
 SCF Done:  E(RB+HF-B95) =  -226.037493958     A.U. after    9 cycles
             Convg  =    0.2442D-08             -V/T =  2.0046
             S**2   =   0.0000
 ***** Axes restored to original set *****
 -------------------------------------------------------------------
 Center     Atomic                   Forces (Hartrees/Bohr)
 Number     Number              X              Y              Z
 -------------------------------------------------------------------
    1          1           0.000038764    0.000000000   -0.000080413
    2          6          -0.000001322    0.000000000    0.000395956
    3          1           0.000000651    0.000000000   -0.000006993
    4          6           0.000133599    0.000000000   -0.000240804
    5          1          -0.000008287    0.000000000    0.000060919
    6          6          -0.000158298    0.000000000    0.000144106
    7          7           0.000121749    0.000000000    0.000013565
    8          1          -0.000001492    0.000000000    0.000010982
    9          7          -0.000125364    0.000000000   -0.000297317
 -------------------------------------------------------------------
 Cartesian Forces:  Max     0.000395956 RMS     0.000123151

 GradGradGradGradGradGradGradGradGradGradGradGradGradGradGradGradGradGrad
 Berny optimization.
 Internal  Forces:  Max     0.000206017 RMS     0.000056360
 Search for a local minimum.
 Step number   5 out of a maximum of  48
 All quantities printed in internal units (Hartrees-Bohrs-Radians)
 Update second derivatives using D2CorX and points  1  2  3  4  5

 Trust test= 1.02D+00 RLast= 3.32D-03 DXMaxT set to 3.38D-01
     Eigenvalues ---    0.02139   0.02275   0.02343   0.02398   0.02533
     Eigenvalues ---    0.02553   0.12860   0.15965   0.16006   0.16291
     Eigenvalues ---    0.22849   0.29518   0.37021   0.37265   0.37409
     Eigenvalues ---    0.39869   0.44733   0.49373   0.52258   0.58038
     Eigenvalues ---    0.628121000.000001000.000001000.000001000.00000
     Eigenvalues --- 1000.000001000.000001000.000001000.000001000.00000
     Eigenvalues --- 1000.000001000.000001000.000001000.000001000.00000
     Eigenvalues --- 1000.000001000.000001000.00000
 RFO step:  Lambda=-5.19455630D-06.
 Quartic linear search produced a step of  1.87433.
 Iteration  1 RMS(Cart)=  0.00181769 RMS(Int)=  0.00000453
 Iteration  2 RMS(Cart)=  0.00000446 RMS(Int)=  0.00000009
 Iteration  3 RMS(Cart)=  0.00000000 RMS(Int)=  0.00000009
 Variable       Old X    -DE/DX   Delta X   Delta X   Delta X     New X
                                 (Linear)    (Quad)   (Total)
    R1        2.03364   0.00000   0.00012  -0.00004   0.00008   2.03372
    R2        2.61066   0.00008   0.00069   0.00040   0.00108   2.61175
    R3        2.57620  -0.00021  -0.00394   0.00023  -0.00370   2.57250
    R4        2.03317   0.00001  -0.00054   0.00019  -0.00035   2.03282
    R5        2.67101   0.00006  -0.00018  -0.00035  -0.00053   2.67049
    R6        2.03370   0.00000   0.00006   0.00001   0.00007   2.03377
    R7        2.53669  -0.00009  -0.00093   0.00088  -0.00005   2.53664
    R8        2.58206   0.00005   0.00122   0.00059   0.00181   2.58387
    R9        1.89541   0.00001  -0.00079   0.00036  -0.00043   1.89498
    A1        2.29571  -0.00010  -0.00034  -0.00174  -0.00208   2.29364
    A2        2.13491   0.00002   0.00033   0.00058   0.00091   2.13582
    A3        1.85257   0.00008   0.00000   0.00116   0.00116   1.85373
    A4        2.21928   0.00003  -0.00073  -0.00051  -0.00123   2.21804
    A5        1.83676  -0.00013  -0.00005  -0.00103  -0.00107   1.83569
    A6        2.22715   0.00010   0.00078   0.00153   0.00231   2.22946
    A7        2.24541  -0.00001   0.00287   0.00226   0.00512   2.25053
    A8        1.95064   0.00007  -0.00030   0.00091   0.00061   1.95125
    A9        2.08714  -0.00006  -0.00256  -0.00317  -0.00573   2.08141
   A10        1.81300  -0.00003  -0.00045  -0.00034  -0.00079   1.81221
   A11        1.97182   0.00001   0.00080  -0.00071   0.00009   1.97191
   A12        2.23840   0.00003   0.00064   0.00191   0.00256   2.24096
   A13        2.07297  -0.00004  -0.00144  -0.00121  -0.00265   2.07032
    D1        0.00000   0.00000   0.00000   0.00000   0.00000   0.00000
    D2        3.14159   0.00000   0.00000   0.00000   0.00000   3.14159
    D3        3.14159   0.00000   0.00000   0.00000   0.00000   3.14159
    D4        0.00000   0.00000   0.00000   0.00000   0.00000   0.00000
    D5        3.14159   0.00000   0.00000   0.00000   0.00000   3.14159
    D6        0.00000   0.00000   0.00000   0.00000   0.00000   0.00000
    D7        0.00000   0.00000   0.00000   0.00000   0.00000   0.00000
    D8        3.14159   0.00000   0.00000   0.00000   0.00000   3.14159
    D9        3.14159   0.00000   0.00000   0.00000   0.00000   3.14159
   D10        0.00000   0.00000   0.00000   0.00000   0.00000   0.00000
   D11        0.00000   0.00000   0.00000   0.00000   0.00000   0.00000
   D12        3.14159   0.00000   0.00000   0.00000   0.00000   3.14159
   D13        0.00000   0.00000   0.00000   0.00000   0.00000   0.00000
   D14        3.14159   0.00000   0.00000   0.00000   0.00000   3.14159
   D15        0.00000   0.00000   0.00000   0.00000   0.00000   0.00000
   D16        3.14159   0.00000   0.00000   0.00000   0.00000   3.14159
         Item               Value     Threshold  Converged?
 Maximum Force            0.000206     0.000450     YES
 RMS     Force            0.000056     0.000300     YES
 Maximum Displacement     0.008303     0.001800     NO 
 RMS     Displacement     0.001818     0.001200     NO 
 Predicted change in Energy=-5.768479D-06
 GradGradGradGradGradGradGradGradGradGradGradGradGradGradGradGradGradGrad

                          Input orientation:                          
 ---------------------------------------------------------------------
 Center     Atomic     Atomic              Coordinates (Angstroms)
 Number     Number      Type              X           Y           Z
 ---------------------------------------------------------------------
    1          1             0       -1.887217    0.000000   -1.183924
    2          6             0       -0.942566    0.000000   -0.668328
    3          1             0        0.673278    0.000000   -2.168105
    4          6             0        0.356505    0.000000   -1.140083
    5          1             0        2.243640    0.000000    0.087114
    6          6             0        1.169793    0.000000    0.015592
    7          7             0        0.437400    0.000000    1.140517
    8          1             0       -1.597109    0.000000    1.362938
    9          7             0       -0.853594    0.000000    0.690067
 ---------------------------------------------------------------------
                    Distance matrix (angstroms):
                    1          2          3          4          5
     1  H    0.000000
     2  C    1.076199   0.000000
     3  H    2.743127   2.204604   0.000000
     4  C    2.244150   1.382077   1.075720   0.000000
     5  H    4.321981   3.274538   2.748099   2.251064   0.000000
     6  C    3.283923   2.220317   2.239433   1.413160   1.076226
     7  N    3.287381   2.275133   3.317020   2.282034   2.090972
     8  H    2.563332   2.134121   4.197966   3.175173   4.047108
     9  N    2.140145   1.361306   3.240445   2.194035   3.155378
                    6          7          8          9
     6  C    0.000000
     7  N    1.342333   0.000000
     8  H    3.077514   2.046631   0.000000
     9  N    2.132842   1.367323   1.002781   0.000000
 Stoichiometry    C3H4N2
 Framework group  CS[SG(C3H4N2)]
 Deg. of freedom    15
 Full point group                 CS      NOp   2
 Largest Abelian subgroup         CS      NOp   2
 Largest concise Abelian subgroup C1      NOp   1
                         Standard orientation:                         
 ---------------------------------------------------------------------
 Center     Atomic     Atomic              Coordinates (Angstroms)
 Number     Number      Type              X           Y           Z
 ---------------------------------------------------------------------
    1          1             0        2.108415    0.728247    0.000000
    2          6             0        1.114974    0.314388    0.000000
    3          1             0        1.272931   -1.884551    0.000000
    4          6             0        0.669590   -0.993959    0.000000
    5          1             0       -1.468780   -1.697282    0.000000
    6          6             0       -0.740747   -0.904673    0.000000
    7          7             0       -1.159462    0.370684    0.000000
    8          1             0       -0.059241    2.096434    0.000000
    9          7             0        0.000000    1.095404    0.000000
 ---------------------------------------------------------------------
 Rotational constants (GHZ):      9.5394416      9.3591459      4.7242169
 Standard basis: 6-31G (6D, 7F)
 There are    43 symmetry adapted basis functions of A'  symmetry.
 There are    10 symmetry adapted basis functions of A"  symmetry.
 Integral buffers will be    262144 words long.
 Raffenetti 2 integral format.
 Two-electron integral symmetry is turned on.
    53 basis functions,   126 primitive gaussians,    53 cartesian basis functions
    18 alpha electrons       18 beta electrons
       nuclear repulsion energy       162.2802299599 Hartrees.
 NAtoms=    9 NActive=    9 NUniq=    9 SFac= 1.00D+00 NAtFMM=   60 Big=F
 One-electron integrals computed using PRISM.
 NBasis=    53 RedAO= T  NBF=    43    10
 NBsUse=    53 1.00D-06 NBFU=    43    10
 Initial guess read from the read-write file:
 Initial guess orbital symmetries:
       Occupied  (A') (A') (A') (A') (A') (A') (A') (A') (A') (A')
                 (A') (A') (A") (A') (A') (A') (A") (A")
       Virtual   (A") (A") (A') (A') (A') (A') (A') (A') (A') (A')
                 (A') (A") (A') (A') (A") (A') (A") (A') (A') (A')
                 (A") (A") (A') (A') (A') (A') (A') (A') (A') (A')
                 (A') (A') (A') (A') (A')
 Requested convergence on RMS density matrix=1.00D-08 within 128 cycles.
 Requested convergence on MAX density matrix=1.00D-06.
 Requested convergence on             energy=1.00D-06.
 No special actions if energy rises.
 Keep R1 integrals in memory in canonical form, NReq=     1601066.
 SCF Done:  E(RB+HF-B95) =  -226.037487762     A.U. after    9 cycles
             Convg  =    0.4090D-08             -V/T =  2.0046
             S**2   =   0.0000
 ***** Axes restored to original set *****
 -------------------------------------------------------------------
 Center     Atomic                   Forces (Hartrees/Bohr)
 Number     Number              X              Y              Z
 -------------------------------------------------------------------
    1          1           0.000015278    0.000000000   -0.000017107
    2          6           0.000021122    0.000000000   -0.001239570
    3          1           0.000170386    0.000000000   -0.000075756
    4          6          -0.000257446    0.000000000    0.000038807
    5          1           0.000036370    0.000000000   -0.000548857
    6          6           0.000299880    0.000000000    0.000753819
    7          7          -0.000572788    0.000000000   -0.000277986
    8          1          -0.000358876    0.000000000   -0.000069686
    9          7           0.000646073    0.000000000    0.001436337
 -------------------------------------------------------------------
 Cartesian Forces:  Max     0.001436337 RMS     0.000456244

 GradGradGradGradGradGradGradGradGradGradGradGradGradGradGradGradGradGrad
 Berny optimization.
 Internal  Forces:  Max     0.001087742 RMS     0.000249761
 Search for a local minimum.
 Step number   6 out of a maximum of  48
 All quantities printed in internal units (Hartrees-Bohrs-Radians)
 Update second derivatives using D2CorX and points  1  2  3  4  6
                                                        5
 Trust test=-1.07D+00 RLast= 1.03D-02 DXMaxT set to 1.69D-01
 Energy Rises -- skip Quadratic search.
 Quartic linear search produced a step of -0.88281.
 Iteration  1 RMS(Cart)=  0.00160488 RMS(Int)=  0.00000353
 Iteration  2 RMS(Cart)=  0.00000348 RMS(Int)=  0.00000001
 Iteration  3 RMS(Cart)=  0.00000000 RMS(Int)=  0.00000001
 Variable       Old X    -DE/DX   Delta X   Delta X   Delta X     New X
                                 (Linear)    (Quad)   (Total)
    R1        2.03372  -0.00001  -0.00007   0.00000  -0.00007   2.03365
    R2        2.61175  -0.00018  -0.00096   0.00000  -0.00096   2.61079
    R3        2.57250   0.00109   0.00327   0.00000   0.00327   2.57576
    R4        2.03282   0.00012   0.00031   0.00000   0.00031   2.03313
    R5        2.67049   0.00014   0.00047   0.00000   0.00047   2.67095
    R6        2.03377   0.00000  -0.00006   0.00000  -0.00006   2.03371
    R7        2.53664   0.00023   0.00004   0.00000   0.00004   2.53668
    R8        2.58387  -0.00029  -0.00160   0.00000  -0.00160   2.58227
    R9        1.89498   0.00022   0.00038   0.00000   0.00038   1.89536
    A1        2.29364   0.00006   0.00183   0.00000   0.00183   2.29547
    A2        2.13582   0.00004  -0.00080   0.00000  -0.00080   2.13501
    A3        1.85373  -0.00010  -0.00103   0.00000  -0.00103   1.85270
    A4        2.21804   0.00006   0.00109   0.00000   0.00109   2.21913
    A5        1.83569   0.00011   0.00095   0.00000   0.00095   1.83663
    A6        2.22946  -0.00017  -0.00204   0.00000  -0.00204   2.22742
    A7        2.25053  -0.00060  -0.00452   0.00000  -0.00452   2.24601
    A8        1.95125   0.00001  -0.00054   0.00000  -0.00054   1.95071
    A9        2.08141   0.00059   0.00506   0.00000   0.00506   2.08647
   A10        1.81221   0.00014   0.00070   0.00000   0.00070   1.81290
   A11        1.97191  -0.00015  -0.00008   0.00000  -0.00008   1.97183
   A12        2.24096  -0.00017  -0.00226   0.00000  -0.00226   2.23870
   A13        2.07032   0.00032   0.00234   0.00000   0.00234   2.07266
    D1        0.00000   0.00000   0.00000   0.00000   0.00000   0.00000
    D2        3.14159   0.00000   0.00000   0.00000   0.00000   3.14159
    D3        3.14159   0.00000   0.00000   0.00000   0.00000   3.14159
    D4        0.00000   0.00000   0.00000   0.00000   0.00000   0.00000
    D5        3.14159   0.00000   0.00000   0.00000   0.00000   3.14159
    D6        0.00000   0.00000   0.00000   0.00000   0.00000   0.00000
    D7        0.00000   0.00000   0.00000   0.00000   0.00000   0.00000
    D8        3.14159   0.00000   0.00000   0.00000   0.00000   3.14159
    D9        3.14159   0.00000   0.00000   0.00000   0.00000   3.14159
   D10        0.00000   0.00000   0.00000   0.00000   0.00000   0.00000
   D11        0.00000   0.00000   0.00000   0.00000   0.00000   0.00000
   D12        3.14159   0.00000   0.00000   0.00000   0.00000   3.14159
   D13        0.00000   0.00000   0.00000   0.00000   0.00000   0.00000
   D14        3.14159   0.00000   0.00000   0.00000   0.00000   3.14159
   D15        0.00000   0.00000   0.00000   0.00000   0.00000   0.00000
   D16        3.14159   0.00000   0.00000   0.00000   0.00000   3.14159
         Item               Value     Threshold  Converged?
 Maximum Force            0.001088     0.000450     NO 
 RMS     Force            0.000250     0.000300     YES
 Maximum Displacement     0.007330     0.001800     NO 
 RMS     Displacement     0.001605     0.001200     NO 
 Predicted change in Energy=-3.381247D-07
 GradGradGradGradGradGradGradGradGradGradGradGradGradGradGradGradGradGrad

                          Input orientation:                          
 ---------------------------------------------------------------------
 Center     Atomic     Atomic              Coordinates (Angstroms)
 Number     Number      Type              X           Y           Z
 ---------------------------------------------------------------------
    1          1             0       -1.887691    0.000000   -1.183709
    2          6             0       -0.942619    0.000000   -0.668963
    3          1             0        0.675342    0.000000   -2.166839
    4          6             0        0.356424    0.000000   -1.139309
    5          1             0        2.243975    0.000000    0.083235
    6          6             0        1.169850    0.000000    0.016569
    7          7             0        0.436839    0.000000    1.141118
    8          1             0       -1.598558    0.000000    1.362535
    9          7             0       -0.853429    0.000000    0.691151
 ---------------------------------------------------------------------
                    Distance matrix (angstroms):
                    1          2          3          4          5
     1  H    0.000000
     2  C    1.076162   0.000000
     3  H    2.745120   2.204865   0.000000
     4  C    2.244555   1.381571   1.075884   0.000000
     5  H    4.321552   3.274169   2.742889   2.248880   0.000000
     6  C    3.284696   2.220919   2.238707   1.413407   1.076192
     7  N    3.287592   2.275807   3.316544   2.281845   2.094006
     8  H    2.562607   2.134770   4.198464   3.175087   4.049897
     9  N    2.141214   1.363035   3.241180   2.194158   3.156497
                    6          7          8          9
     6  C    0.000000
     7  N    1.342354   0.000000
     8  H    3.078264   2.047404   0.000000
     9  N    2.132773   1.366478   1.002982   0.000000
 Stoichiometry    C3H4N2
 Framework group  CS[SG(C3H4N2)]
 Deg. of freedom    15
 Full point group                 CS      NOp   2
 Largest Abelian subgroup         CS      NOp   2
 Largest concise Abelian subgroup C1      NOp   1
                         Standard orientation:                         
 ---------------------------------------------------------------------
 Center     Atomic     Atomic              Coordinates (Angstroms)
 Number     Number      Type              X           Y           Z
 ---------------------------------------------------------------------
    1          1             0        2.109272    0.727155    0.000000
    2          6             0        1.115982    0.313030    0.000000
    3          1             0        1.269813   -1.886462    0.000000
    4          6             0        0.668734   -0.994145    0.000000
    5          1             0       -1.466691   -1.699426    0.000000
    6          6             0       -0.741795   -0.903994    0.000000
    7          7             0       -1.159064    0.371860    0.000000
    8          1             0       -0.056472    2.097013    0.000000
    9          7             0        0.000000    1.095622    0.000000
 ---------------------------------------------------------------------
 Rotational constants (GHZ):      9.5378138      9.3569508      4.7232583
 Standard basis: 6-31G (6D, 7F)
 There are    43 symmetry adapted basis functions of A'  symmetry.
 There are    10 symmetry adapted basis functions of A"  symmetry.
 Integral buffers will be    262144 words long.
 Raffenetti 2 integral format.
 Two-electron integral symmetry is turned on.
[...]
   4   6    -0.01   0.09   0.00    -0.07  -0.01   0.00     0.25   0.16   0.00
   5   1    -0.49   0.65   0.00     0.36  -0.17   0.00     0.19  -0.38   0.00
   6   6     0.08   0.12   0.00    -0.06   0.20   0.00    -0.23   0.03   0.00
   7   7    -0.03  -0.20   0.00     0.02  -0.15   0.00     0.10  -0.06   0.00
   8   1     0.41  -0.03   0.00    -0.44   0.03   0.00     0.63   0.09   0.00
   9   7     0.09  -0.04   0.00     0.07   0.06   0.00    -0.09   0.05   0.00
                    16                     17                     18
                    A'                     A'                     A'
 Frequencies --  1496.2850              1586.3741              3316.4106
 Red. masses --     2.5204                 2.7430                 1.0910
 Frc consts  --     3.3246                 4.0671                 7.0702
 IR Inten    --    11.3247                13.1794                 1.7611
 Atom AN      X      Y      Z        X      Y      Z        X      Y      Z
   1   1     0.02  -0.35   0.00     0.30  -0.26   0.00     0.42   0.17   0.00
   2   6    -0.17   0.16   0.00     0.06   0.23   0.00    -0.04  -0.01   0.00
   3   1    -0.16  -0.27   0.00     0.31   0.00   0.00    -0.40   0.60   0.00
   4   6     0.14  -0.05   0.00    -0.07  -0.20   0.00     0.03  -0.05   0.00
   5   1     0.15  -0.20   0.00     0.33  -0.21   0.00    -0.35  -0.39   0.00
   6   6    -0.11   0.06   0.00    -0.09   0.16   0.00     0.03   0.03   0.00
   7   7    -0.01   0.01   0.00     0.06  -0.10   0.00     0.00   0.00   0.00
   8   1    -0.75  -0.16   0.00     0.66   0.02   0.00     0.00  -0.01   0.00
   9   7     0.18  -0.08   0.00    -0.09  -0.03   0.00     0.00   0.00   0.00
                    19                     20                     21
                    A'                     A'                     A'
 Frequencies --  3328.0261              3345.3325              3745.4779
 Red. masses --     1.0976                 1.1096                 1.0824
 Frc consts  --     7.1623                 7.3165                 8.9465
 IR Inten    --     3.3940                 0.3454                79.0823
 Atom AN      X      Y      Z        X      Y      Z        X      Y      Z
   1   1     0.61   0.25   0.00    -0.55  -0.23   0.00     0.02   0.00   0.00
   2   6    -0.05  -0.02   0.00     0.05   0.03   0.00     0.00   0.00   0.00
   3   1    -0.07   0.10   0.00    -0.38   0.57   0.00     0.00   0.00   0.00
   4   6     0.01  -0.01   0.00     0.03  -0.06   0.00     0.00   0.00   0.00
   5   1     0.50   0.55   0.00     0.28   0.31   0.00     0.00   0.00   0.00
   6   6    -0.05  -0.05   0.00    -0.03  -0.03   0.00     0.00   0.00   0.00
   7   7     0.00   0.00   0.00     0.00   0.00   0.00     0.00   0.00   0.00
   8   1     0.00  -0.01   0.00     0.00   0.02   0.00    -0.06   1.00   0.00
   9   7     0.00   0.00   0.00     0.00   0.00   0.00     0.01  -0.08   0.00

 -------------------
 - Thermochemistry -
 -------------------
 Temperature   298.150 Kelvin.  Pressure   1.00000 Atm.
 Atom  1 has atomic number  1 and mass   1.00783
 Atom  2 has atomic number  6 and mass  12.00000
 Atom  3 has atomic number  1 and mass   1.00783
 Atom  4 has atomic number  6 and mass  12.00000
 Atom  5 has atomic number  1 and mass   1.00783
 Atom  6 has atomic number  6 and mass  12.00000
 Atom  7 has atomic number  7 and mass  14.00307
 Atom  8 has atomic number  1 and mass   1.00783
 Atom  9 has atomic number  7 and mass  14.00307
 Molecular mass:    68.03745 amu.
 Principal axes and moments of inertia in atomic units:
                           1         2         3
     EIGENVALUES --   189.21959 192.87706 382.09665
           X            0.97314   0.23019   0.00000
           Y           -0.23019   0.97314   0.00000
           Z            0.00000   0.00000   1.00000
 This molecule is an asymmetric top.
 Rotational symmetry number  1.
 Rotational temperatures (Kelvin)      0.45774     0.44906     0.22668
 Rotational constants (GHZ):           9.53781     9.35695     4.72326
 Zero-point vibrational energy     191175.5 (Joules/Mol)
                                   45.69204 (Kcal/Mol)
 Vibrational temperatures:    918.82   962.63  1015.91  1132.30  1272.82
          (Kelvin)           1347.23  1350.26  1372.40  1495.99  1566.49
                             1679.95  1704.77  1867.57  2014.13  2087.75
                             2152.82  2282.44  4771.57  4788.28  4813.18
                             5388.90
 
 Zero-point correction=                           0.072815 (Hartree/Particle)
 Thermal correction to Energy=                    0.076428
 Thermal correction to Enthalpy=                  0.077372
 Thermal correction to Gibbs Free Energy=         0.046590
 Sum of electronic and zero-point Energies=           -225.964679
 Sum of electronic and thermal Energies=              -225.961066
 Sum of electronic and thermal Enthalpies=            -225.960122
 Sum of electronic and thermal Free Energies=         -225.990904
 
                     E (Thermal)             CV                S
                      KCal/Mol        Cal/Mol-Kelvin    Cal/Mol-Kelvin
 Total                   47.959             12.688             64.786
 Electronic               0.000              0.000              0.000
 Translational            0.889              2.981             38.570
 Rotational               0.889              2.981             24.148
 Vibrational             46.182              6.727              2.068
                       Q            Log10(Q)             Ln(Q)
 Total Bot       0.371509D-21        -21.430030        -49.344469
 Total V=0       0.115459D+13         12.062428         27.774768
 Vib (Bot)       0.398415D-33        -33.399664        -76.905568
 Vib (V=0)       0.123821D+01          0.092795          0.213668
 Electronic      0.100000D+01          0.000000          0.000000
 Translational   0.220586D+08          7.343577         16.909211
 Rotational      0.422723D+05          4.626056         10.651888
 ***** Axes restored to original set *****
 -------------------------------------------------------------------
 Center     Atomic                   Forces (Hartrees/Bohr)
 Number     Number              X              Y              Z
 -------------------------------------------------------------------
    1          1           0.000036035    0.000000000   -0.000072993
    2          6           0.000001497    0.000000000    0.000205256
    3          1           0.000020559    0.000000000   -0.000015012
    4          6           0.000087720    0.000000000   -0.000208029
    5          1          -0.000003468    0.000000000   -0.000010510
    6          6          -0.000104504    0.000000000    0.000215566
    7          7           0.000040294    0.000000000   -0.000020704
    8          1          -0.000043336    0.000000000    0.000001421
    9          7          -0.000034798    0.000000000   -0.000094996
 -------------------------------------------------------------------
 Cartesian Forces:  Max     0.000215566 RMS     0.000079828

 GradGradGradGradGradGradGradGradGradGradGradGradGradGradGradGradGradGrad
 Berny optimization.
 Internal  Forces:  Max     0.000101839 RMS     0.000036860
 Search for a local minimum.
 Step number   1 out of a maximum of   2
 All quantities printed in internal units (Hartrees-Bohrs-Radians)
 Second derivative matrix not updated -- analytic derivatives used.
     Eigenvalues ---    0.01067   0.01336   0.01817   0.02929   0.06104
     Eigenvalues ---    0.06423   0.09786   0.10732   0.11319   0.12295
     Eigenvalues ---    0.22309   0.26998   0.33775   0.38044   0.38872
     Eigenvalues ---    0.39000   0.39950   0.43976   0.49670   0.50696
     Eigenvalues ---    0.571891000.000001000.000001000.000001000.00000
     Eigenvalues --- 1000.000001000.000001000.000001000.000001000.00000
     Eigenvalues --- 1000.000001000.000001000.000001000.000001000.00000
     Eigenvalues --- 1000.000001000.000001000.00000
 Angle between quadratic step and forces=  24.97 degrees.
 Linear search not attempted -- first point.
 Iteration  1 RMS(Cart)=  0.00018373 RMS(Int)=  0.00000004
 Iteration  2 RMS(Cart)=  0.00000005 RMS(Int)=  0.00000001
 Variable       Old X    -DE/DX   Delta X   Delta X   Delta X     New X
                                 (Linear)    (Quad)   (Total)
    R1        2.03365   0.00000   0.00000   0.00002   0.00002   2.03367
    R2        2.61079   0.00005   0.00000   0.00015   0.00015   2.61094
    R3        2.57576  -0.00006   0.00000  -0.00025  -0.00025   2.57552
    R4        2.03313   0.00002   0.00000   0.00003   0.00003   2.03316
    R5        2.67095   0.00007   0.00000   0.00024   0.00024   2.67119
    R6        2.03371   0.00000   0.00000   0.00001   0.00001   2.03372
    R7        2.53668  -0.00005   0.00000  -0.00021  -0.00021   2.53647
    R8        2.58227   0.00001   0.00000   0.00017   0.00017   2.58244
    R9        1.89536   0.00003   0.00000   0.00005   0.00005   1.89542
    A1        2.29547  -0.00008   0.00000  -0.00065  -0.00065   2.29481
    A2        2.13501   0.00002   0.00000   0.00036   0.00036   2.13537
    A3        1.85270   0.00006   0.00000   0.00029   0.00029   1.85300
    A4        2.21913   0.00003   0.00000   0.00004   0.00004   2.21917
    A5        1.83663  -0.00010   0.00000  -0.00040  -0.00040   1.83623
    A6        2.22742   0.00007   0.00000   0.00036   0.00036   2.22778
    A7        2.24601  -0.00007   0.00000  -0.00054  -0.00054   2.24547
    A8        1.95071   0.00006   0.00000   0.00025   0.00025   1.95096
    A9        2.08647   0.00002   0.00000   0.00029   0.00029   2.08676
   A10        1.81290  -0.00001   0.00000  -0.00006  -0.00006   1.81284
   A11        1.97183  -0.00001   0.00000  -0.00008  -0.00008   1.97175
   A12        2.23870   0.00001   0.00000   0.00010   0.00010   2.23880
   A13        2.07266   0.00000   0.00000  -0.00001  -0.00001   2.07264
    D1        0.00000   0.00000   0.00000   0.00000   0.00000   0.00000
    D2        3.14159   0.00000   0.00000   0.00000   0.00000   3.14159
    D3        3.14159   0.00000   0.00000   0.00000   0.00000   3.14159
    D4        0.00000   0.00000   0.00000   0.00000   0.00000   0.00000
    D5        3.14159   0.00000   0.00000   0.00000   0.00000   3.14159
    D6        0.00000   0.00000   0.00000   0.00000   0.00000   0.00000
    D7        0.00000   0.00000   0.00000   0.00000   0.00000   0.00000
    D8        3.14159   0.00000   0.00000   0.00000   0.00000   3.14159
    D9        3.14159   0.00000   0.00000   0.00000   0.00000   3.14159
   D10        0.00000   0.00000   0.00000   0.00000   0.00000   0.00000
   D11        0.00000   0.00000   0.00000   0.00000   0.00000   0.00000
   D12        3.14159   0.00000   0.00000   0.00000   0.00000   3.14159
   D13        0.00000   0.00000   0.00000   0.00000   0.00000   0.00000
   D14        3.14159   0.00000   0.00000   0.00000   0.00000   3.14159
   D15        0.00000   0.00000   0.00000   0.00000   0.00000   0.00000
   D16        3.14159   0.00000   0.00000   0.00000   0.00000   3.14159
         Item               Value     Threshold  Converged?
 Maximum Force            0.000102     0.000450     YES
 RMS     Force            0.000037     0.000300     YES
 Maximum Displacement     0.000551     0.001800     YES
 RMS     Displacement     0.000184     0.001200     YES
 Predicted change in Energy=-1.307283D-07
 Optimization completed.
    -- Stationary point found.
                           ----------------------------
                           !   Optimized Parameters   !
                           ! (Angstroms and Degrees)  !
 --------------------------                            --------------------------
 ! Name  Definition              Value          Derivative Info.                !
 --------------------------------------------------------------------------------
 ! R1    R(1,2)                  1.0762         -DE/DX =    0.0                 !
 ! R2    R(2,4)                  1.3816         -DE/DX =    0.0001              !
 ! R3    R(2,9)                  1.363          -DE/DX =   -0.0001              !
 ! R4    R(3,4)                  1.0759         -DE/DX =    0.0                 !
 ! R5    R(4,6)                  1.4134         -DE/DX =    0.0001              !
 ! R6    R(5,6)                  1.0762         -DE/DX =    0.0                 !
 ! R7    R(6,7)                  1.3424         -DE/DX =   -0.0001              !
 ! R8    R(7,9)                  1.3665         -DE/DX =    0.0                 !
 ! R9    R(8,9)                  1.003          -DE/DX =    0.0                 !
 ! A1    A(1,2,4)              131.5207         -DE/DX =   -0.0001              !
 ! A2    A(1,2,9)              122.3273         -DE/DX =    0.0                 !
 ! A3    A(4,2,9)              106.1521         -DE/DX =    0.0001              !
 ! A4    A(2,4,3)              127.1468         -DE/DX =    0.0                 !
 ! A5    A(2,4,6)              105.2313         -DE/DX =   -0.0001              !
 ! A6    A(3,4,6)              127.6218         -DE/DX =    0.0001              !
 ! A7    A(4,6,5)              128.6867         -DE/DX =   -0.0001              !
 ! A8    A(4,6,7)              111.7674         -DE/DX =    0.0001              !
 ! A9    A(5,6,7)              119.5459         -DE/DX =    0.0                 !
 ! A10   A(6,7,9)              103.8717         -DE/DX =    0.0                 !
 ! A11   A(2,9,7)              112.9775         -DE/DX =    0.0                 !
 ! A12   A(2,9,8)              128.268          -DE/DX =    0.0                 !
 ! A13   A(7,9,8)              118.7545         -DE/DX =    0.0                 !
 ! D1    D(1,2,4,3)              0.0            -DE/DX =    0.0                 !
 ! D2    D(1,2,4,6)            180.0            -DE/DX =    0.0                 !
 ! D3    D(9,2,4,3)            180.0            -DE/DX =    0.0                 !
 ! D4    D(9,2,4,6)              0.0            -DE/DX =    0.0                 !
 ! D5    D(1,2,9,7)            180.0            -DE/DX =    0.0                 !
 ! D6    D(1,2,9,8)              0.0            -DE/DX =    0.0                 !
 ! D7    D(4,2,9,7)              0.0            -DE/DX =    0.0                 !
 ! D8    D(4,2,9,8)            180.0            -DE/DX =    0.0                 !
 ! D9    D(2,4,6,5)            180.0            -DE/DX =    0.0                 !
 ! D10   D(2,4,6,7)              0.0            -DE/DX =    0.0                 !
 ! D11   D(3,4,6,5)              0.0            -DE/DX =    0.0                 !
 ! D12   D(3,4,6,7)            180.0            -DE/DX =    0.0                 !
 ! D13   D(4,6,7,9)              0.0            -DE/DX =    0.0                 !
 ! D14   D(5,6,7,9)            180.0            -DE/DX =    0.0                 !
 ! D15   D(6,7,9,2)              0.0            -DE/DX =    0.0                 !
 ! D16   D(6,7,9,8)            180.0            -DE/DX =    0.0                 !
 --------------------------------------------------------------------------------
 GradGradGradGradGradGradGradGradGradGradGradGradGradGradGradGradGradGrad

 1|1|UNPC-UNK|Freq|RB1B95|6-31G|C3H4N2|PCUSER|13-Sep-2006|0||#N GEOM=AL
 LCHECK GUESS=READ SCRF=CHECK GENCHK RB1B95/6-31G FREQ||1H pyrazole C3H
 4N2 casno=288131 method=55 basis=9||0,1|H,-1.8882153917,0.,-1.18845568
 27|C,-0.9431430842,0.,-0.6737100338|H,0.6748182766,0.,-2.1715856299|C,
 0.355900098,0.,-1.1440562316|H,2.2434510166,0.,0.0784878562|C,1.169326
 2317,0.,0.0118226735|N,0.4363146391,0.,1.1363712028|H,-1.5990819397,0.
 ,1.3577882129|N,-0.8539534155,0.,0.6864040536||Version=x86-Win32-G03Re
 vB.05|State=1-A'|HF=-226.037494|RMSD=3.427e-009|RMSF=7.983e-005|Dipole
 =-0.8260897,0.,-0.5212976|DipoleDeriv=0.0003526,0.,-0.0450735,0.,0.198
 7563,0.,-0.0397627,0.,0.0793328,0.1363114,0.,-0.1179012,0.,-0.070503,0
 .,-0.3039806,0.,0.1949734,0.0976285,0.,0.0316402,0.,0.1761507,0.,0.035
 662,0.,-0.0308483,-0.2753941,0.,-0.0097643,0.,-0.2073575,0.,-0.0532,0.
 ,-0.0023219,-0.0400677,0.,-0.0172848,0.,0.1600256,0.,-0.0180045,0.,0.0
 895335,0.2104414,0.,0.1028317,0.,-0.0924791,0.,0.1947011,0.,0.1142016,
 0.0501817,0.,-0.1886912,0.,-0.2167329,0.,-0.0426923,0.,-0.4765426,0.21
 92987,0.,-0.0295309,0.,0.3831454,0.,-0.0303973,0.,0.2283516,-0.3987525
 ,0.,0.273774,0.,-0.3310054,0.,0.2576741,0.,-0.19668|Polar=48.0256113,0
 .,15.3117743,-0.2954175,0.,44.0831533|PG=CS [SG(C3H4N2)]|NImag=0||0.31
 079189,0.,0.02211129,0.14194098,0.,0.13065473,-0.30773710,0.,-0.125833
 29,0.88728708,0.,-0.02889413,0.,0.,0.13083470,-0.13505868,0.,-0.127583
 15,0.10736305,0.,0.65791233,0.00029860,0.,-0.00090318,0.00162237,0.,0.
 02778234,0.08068391,0.,-0.00304428,0.,0.,-0.00035430,0.,0.,0.02401970,
 0.00065462,0.,-0.00004123,-0.00560952,0.,0.00029548,-0.09676333,0.,0.3
 5810394,-0.00642976,0.,0.01135121,-0.35784874,0.,0.07695275,-0.0866243
 3,0.,0.09171820,0.64747686,0.,0.00222692,0.,0.,-0.07025999,0.,0.,-0.03
 070917,0.,0.,0.13029861,-0.01639110,0.,0.01272467,0.10104647,0.,-0.143
 61298,0.08875053,0.,-0.34758204,-0.12213419,0.,0.85644799,-0.00025496,
 0.,0.00022159,0.00014849,0.,-0.00044298,-0.00008136,0.,-0.00069840,-0.
 00391181,0.,0.00534486,0.38736921,0.,0.00071320,0.,0.,0.00472306,0.,0.
 ,-0.00194974,0.,0.,0.00141346,0.,0.,0.02583967,-0.00098596,0.,0.000961
 37,-0.00310244,0.,-0.00578732,0.00091853,0.,0.00022417,-0.02330775,0.,
 0.00671415,0.01945974,0.,0.05760312,-0.00371898,0.,0.00492854,-0.06014
 560,0.,-0.00308084,0.01260744,0.,0.01340821,-0.18571060,0.,-0.10710578
 ,-0.37088919,0.,-0.03087307,0.90830913,0.,0.00549370,0.,0.,0.01211512,
 0.,0.,-0.00165638,0.,0.,-0.07125752,0.,0.,-0.03323566,0.,0.,0.14668548
 ,0.00102221,0.,-0.00217361,-0.06642847,0.,0.03408412,-0.01772217,0.,-0
 .00902435,-0.07678650,0.,-0.23487989,-0.02190330,0.,-0.06066951,-0.003
 42678,0.,0.59896819,0.00102880,0.,0.00106279,-0.05880192,0.,-0.0494886
 3,-0.00221972,0.,-0.00073802,0.02233625,0.,0.03377886,-0.01248352,0.,0
 .02958764,-0.17265590,0.,0.14759914,0.46743120,0.,0.00594407,0.,0.,0.0
 1905872,0.,0.,0.00623990,0.,0.,0.02180398,0.,0.,-0.00692117,0.,0.,-0.0
 7352704,0.,0.,0.10470658,0.00298139,0.,-0.00460092,-0.02281639,0.,-0.0
 7306454,-0.00602802,0.,-0.00257917,-0.03307678,0.,-0.08252988,-0.00393
 031,0.,0.00497533,0.10040648,0.,-0.28839296,-0.05836194,0.,0.54284711,
 -0.00013695,0.,0.00055289,0.01032881,0.,-0.00778757,0.00065392,0.,-0.0
 0003491,0.00209028,0.,-0.00385524,-0.00043565,0.,0.00135726,-0.0069124
 1,0.,-0.00562612,-0.02023263,0.,0.02683362,0.30578620,0.,-0.00148622,0
 .,0.,-0.00498691,0.,0.,0.00191902,0.,0.,0.00376470,0.,0.,0.00176919,0.
 ,0.,0.00480976,0.,0.,-0.00937113,0.,0.,0.01701143,-0.00074682,0.,0.000
 02711,0.02745502,0.,-0.00606005,0.00118708,0.,0.00002149,-0.00239125,0
 .,-0.00672085,-0.00044864,0.,0.00099346,-0.00732652,0.,0.00081794,-0.0
 1433920,0.,0.01476692,-0.21311171,0.,0.26227509,0.00615847,0.,-0.03332
 153,-0.11485339,0.,-0.01623944,-0.00694083,0.,-0.00193686,-0.03137815,
 0.,0.02056560,0.00053880,0.,0.00694604,-0.12088389,0.,0.04327200,-0.22
 440256,0.,-0.00600805,-0.29114156,0.,0.20972203,0.78290312,0.,-0.00306
 455,0.,0.,-0.06223627,0.,0.,0.00553525,0.,0.,0.01271900,0.,0.,0.007647
 99,0.,0.,0.01057255,0.,0.,-0.06793391,0.,0.,-0.01342983,0.,0.,0.110189
 77,0.00658336,0.,-0.00996899,-0.01207442,0.,-0.33618389,0.00277821,0.,
 0.00058171,0.07767431,0.,-0.06056118,0.00239745,0.,-0.00501478,0.03306
 976,0.,-0.03872994,-0.08910065,0.,-0.11142189,0.20167178,0.,-0.2661211
 0,-0.22299978,0.,0.82742007||-0.00003604,0.,0.00007299,-0.00000150,0.,
 -0.00020526,-0.00002056,0.,0.00001501,-0.00008772,0.,0.00020803,0.0000
 0347,0.,0.00001051,0.00010450,0.,-0.00021557,-0.00004029,0.,0.00002070
 ,0.00004334,0.,-0.00000142,0.00003480,0.,0.00009500|||@


 IF AT FIRST YOU DON'T SUCCEED, TRY LOOKING IN 
 THE WASTEBASKET FOR THE DIRECTIONS.
 Job cpu time:  0 days  0 hours  1 minutes 41.0 seconds.
 File lengths (MBytes):  RWF=     11 Int=      0 D2E=      0 Chk=      4 Scr=      1
 Normal termination of Gaussian 03 at Wed Sep 13 11:45:01 2006.
