 Entering Gaussian System, Link 0=g09
 Initial command:
 /usr/local/gaussian/g09.b01.em64t.linda/g09/l1.exe /tmp/rdj3/g09-12728/Gau-13358.inp -scrdir=/tmp/rdj3/g09-12728/
 Entering Link 1 = /usr/local/gaussian/g09.b01.em64t.linda/g09/l1.exe PID=     13359.
  
 Copyright (c) 1988,1990,1992,1993,1995,1998,2003,2009,2010,
            Gaussian, Inc.  All Rights Reserved.
  
 This is part of the Gaussian(R) 09 program.  It is based on
 the Gaussian(R) 03 system (copyright 2003, Gaussian, Inc.),
 the Gaussian(R) 98 system (copyright 1998, Gaussian, Inc.),
 the Gaussian(R) 94 system (copyright 1995, Gaussian, Inc.),
 the Gaussian 92(TM) system (copyright 1992, Gaussian, Inc.),
 the Gaussian 90(TM) system (copyright 1990, Gaussian, Inc.),
 the Gaussian 88(TM) system (copyright 1988, Gaussian, Inc.),
 the Gaussian 86(TM) system (copyright 1986, Carnegie Mellon
 University), and the Gaussian 82(TM) system (copyright 1983,
 Carnegie Mellon University). Gaussian is a federally registered
 trademark of Gaussian, Inc.
  
 This software contains proprietary and confidential information,
 including trade secrets, belonging to Gaussian, Inc.
  
 This software is provided under written license and may be
 used, copied, transmitted, or stored only in accord with that
 written license.
  
 The following legend is applicable only to US Government
 contracts under FAR:
  
                    RESTRICTED RIGHTS LEGEND
  
 Use, reproduction and disclosure by the US Government is
 subject to restrictions as set forth in subparagraphs (a)
 and (c) of the Commercial Computer Software - Restricted
 Rights clause in FAR 52.227-19.
  
 Gaussian, Inc.
 340 Quinnipiac St., Bldg. 40, Wallingford CT 06492
  
  
 ---------------------------------------------------------------
 Warning -- This program may not be used in any manner that
 competes with the business of Gaussian, Inc. or will provide
 assistance to any competitor of Gaussian, Inc.  The licensee
 of this program is prohibited from giving any competitor of
 Gaussian, Inc. access to this program.  By using this program,
 the user acknowledges that Gaussian, Inc. is engaged in the
 business of creating and licensing software in the field of
 computational chemistry and represents and warrants to the
 licensee that it is not a competitor of Gaussian, Inc. and that
 it will not use this program in any manner prohibited above.
 ---------------------------------------------------------------
  

 Cite this work as:
 Gaussian 09, Revision B.01,
 M. J. Frisch, G. W. Trucks, H. B. Schlegel, G. E. Scuseria, 
 M. A. Robb, J. R. Cheeseman, G. Scalmani, V. Barone, B. Mennucci, 
 G. A. Petersson, H. Nakatsuji, M. Caricato, X. Li, H. P. Hratchian, 
 A. F. Izmaylov, J. Bloino, G. Zheng, J. L. Sonnenberg, M. Hada, 
 M. Ehara, K. Toyota, R. Fukuda, J. Hasegawa, M. Ishida, T. Nakajima, 
 Y. Honda, O. Kitao, H. Nakai, T. Vreven, J. A. Montgomery, Jr., 
 J. E. Peralta, F. Ogliaro, M. Bearpark, J. J. Heyd, E. Brothers, 
 K. N. Kudin, V. N. Staroverov, T. Keith, R. Kobayashi, J. Normand, 
 K. Raghavachari, A. Rendell, J. C. Burant, S. S. Iyengar, J. Tomasi, 
 M. Cossi, N. Rega, J. M. Millam, M. Klene, J. E. Knox, J. B. Cross, 
 V. Bakken, C. Adamo, J. Jaramillo, R. Gomperts, R. E. Stratmann, 
 O. Yazyev, A. J. Austin, R. Cammi, C. Pomelli, J. W. Ochterski, 
 R. L. Martin, K. Morokuma, V. G. Zakrzewski, G. A. Voth, 
 P. Salvador, J. J. Dannenberg, S. Dapprich, A. D. Daniels, 
 O. Farkas, J. B. Foresman, J. V. Ortiz, J. Cioslowski, 
 and D. J. Fox, Gaussian, Inc., Wallingford CT, 2010.
 
 ******************************************
 Gaussian 09:  EM64L-G09RevB.01 12-Aug-2010
                 6-Mar-2013 
 ******************************************
 %NProc=8
 Will use up to    8 processors via shared memory.
 %mem=424000000
 ------------------------
 #B2PLYP/cc-pVTZ opt freq
 ------------------------
 1/18=20,19=15,38=1/1,3;
 2/9=110,12=2,17=6,18=5,40=1/2;
 3/5=16,6=1,11=9,16=1,25=1,30=1,71=1,74=-47/1,2,3;
 4//1;
 5/5=2,38=5/2;
 8/6=4,10=1/1;
 9/15=2,16=-3/6;
 10/5=1/2;
 6/7=2,8=2,9=2,10=2/1;
 7/12=2/1,2,3,16;
 1/18=20,19=15/3(2);
 2/9=110/2;
 99//99;
 2/9=110/2;
 3/5=16,6=1,11=9,16=1,25=1,30=1,71=1,74=-47/1,2,3;
 4/5=5,16=3/1;
 5/5=2,38=5/2;
 8/6=4,10=1/1;
 9/15=2,16=-3/6;
 10/5=1/2;
 7/12=2/1,2,3,16;
 1/18=20,19=15/3(-8);
 2/9=110/2;
 6/7=2,8=2,9=2,10=2/1;
 99//99;
 -------------------------------------------------------------------
 1hpyraz 1H-Pyrazole casno=288131 state=1 config=1 method=56 basis=6
 -------------------------------------------------------------------
 Symbolic Z-matrix:
 Charge =  0 Multiplicity = 1
 H                     2.10649   0.73233   0. 
 C                     1.113     0.30714   0. 
 H                     1.26676  -1.89691   0. 
 C                     0.66532  -0.99964   0. 
 H                    -1.47947  -1.68543   0. 
 C                    -0.74394  -0.89156   0. 
 N                    -1.14991   0.37835   0. 
 H                    -0.05069   2.09487   0. 
 N                     0.        1.08729   0. 
 

 GradGradGradGradGradGradGradGradGradGradGradGradGradGradGradGradGradGrad
 Berny optimization.
 Initialization pass.
                           ----------------------------
                           !    Initial Parameters    !
                           ! (Angstroms and Degrees)  !
 --------------------------                            --------------------------
 ! Name  Definition              Value          Derivative Info.                !
 --------------------------------------------------------------------------------
 ! R1    R(1,2)                  1.0806         estimate D2E/DX2                !
 ! R2    R(2,4)                  1.3813         estimate D2E/DX2                !
 ! R3    R(2,9)                  1.3592         estimate D2E/DX2                !
 ! R4    R(3,4)                  1.0802         estimate D2E/DX2                !
 ! R5    R(4,6)                  1.4134         estimate D2E/DX2                !
 ! R6    R(5,6)                  1.0822         estimate D2E/DX2                !
 ! R7    R(6,7)                  1.3332         estimate D2E/DX2                !
 ! R8    R(7,9)                  1.3509         estimate D2E/DX2                !
 ! R9    R(8,9)                  1.0089         estimate D2E/DX2                !
 ! A1    A(1,2,4)              132.0803         estimate D2E/DX2                !
 ! A2    A(1,2,9)              121.802          estimate D2E/DX2                !
 ! A3    A(4,2,9)              106.1178         estimate D2E/DX2                !
 ! A4    A(2,4,3)              127.2557         estimate D2E/DX2                !
 ! A5    A(2,4,6)              104.5251         estimate D2E/DX2                !
 ! A6    A(3,4,6)              128.2192         estimate D2E/DX2                !
 ! A7    A(4,6,5)              128.4299         estimate D2E/DX2                !
 ! A8    A(4,6,7)              112.114          estimate D2E/DX2                !
 ! A9    A(5,6,7)              119.4561         estimate D2E/DX2                !
 ! A10   A(6,7,9)              103.9259         estimate D2E/DX2                !
 ! A11   A(2,9,7)              113.3173         estimate D2E/DX2                !
 ! A12   A(2,9,8)              127.9083         estimate D2E/DX2                !
 ! A13   A(7,9,8)              118.7745         estimate D2E/DX2                !
 ! D1    D(1,2,4,3)              0.0            estimate D2E/DX2                !
 ! D2    D(1,2,4,6)            180.0            estimate D2E/DX2                !
 ! D3    D(9,2,4,3)            180.0            estimate D2E/DX2                !
 ! D4    D(9,2,4,6)              0.0            estimate D2E/DX2                !
 ! D5    D(1,2,9,7)            180.0            estimate D2E/DX2                !
 ! D6    D(1,2,9,8)              0.0            estimate D2E/DX2                !
 ! D7    D(4,2,9,7)              0.0            estimate D2E/DX2                !
 ! D8    D(4,2,9,8)            180.0            estimate D2E/DX2                !
 ! D9    D(2,4,6,5)            180.0            estimate D2E/DX2                !
 ! D10   D(2,4,6,7)              0.0            estimate D2E/DX2                !
 ! D11   D(3,4,6,5)              0.0            estimate D2E/DX2                !
 ! D12   D(3,4,6,7)            180.0            estimate D2E/DX2                !
 ! D13   D(4,6,7,9)              0.0            estimate D2E/DX2                !
 ! D14   D(5,6,7,9)            180.0            estimate D2E/DX2                !
 ! D15   D(6,7,9,2)              0.0            estimate D2E/DX2                !
 ! D16   D(6,7,9,8)            180.0            estimate D2E/DX2                !
 --------------------------------------------------------------------------------
 Trust Radius=3.00D-01 FncErr=1.00D-07 GrdErr=1.00D-07
 Number of steps in this run=     48 maximum allowed number of steps=    100.
 GradGradGradGradGradGradGradGradGradGradGradGradGradGradGradGradGradGrad

                          Input orientation:                          
 ---------------------------------------------------------------------
 Center     Atomic      Atomic             Coordinates (Angstroms)
 Number     Number       Type             X           Y           Z
 ---------------------------------------------------------------------
      1          1           0        2.106486    0.732325    0.000000
      2          6           0        1.112999    0.307138    0.000000
      3          1           0        1.266758   -1.896908    0.000000
      4          6           0        0.665321   -0.999636    0.000000
      5          1           0       -1.479466   -1.685432    0.000000
      6          6           0       -0.743936   -0.891559    0.000000
      7          7           0       -1.149913    0.378352    0.000000
      8          1           0       -0.050688    2.094874    0.000000
      9          7           0        0.000000    1.087289    0.000000
 ---------------------------------------------------------------------
                    Distance matrix (angstroms):
                    1          2          3          4          5
     1  H    0.000000
     2  C    1.080648   0.000000
     3  H    2.760074   2.209403   0.000000
     4  C    2.253141   1.381330   1.080196   0.000000
     5  H    4.324882   3.269742   2.754354   2.251761   0.000000
     6  C    3.280534   2.210222   2.248025   1.413395   1.082238
     7  N    3.275581   2.264032   3.319203   2.279019   2.089931
     8  H    2.551458   2.133112   4.203568   3.176265   4.041302
     9  N    2.136184   1.359192   3.241930   2.190413   3.142738
                    6          7          8          9
     6  C    0.000000
     7  N    1.333226   0.000000
     8  H    3.065840   2.038319   0.000000
     9  N    2.114067   1.350885   1.008859   0.000000
 Stoichiometry    C3H4N2
 Framework group  CS[SG(C3H4N2)]
 Deg. of freedom    15
 Full point group                 CS      NOp   2
 Largest Abelian subgroup         CS      NOp   2
 Largest concise Abelian subgroup C1      NOp   1
                         Standard orientation:                         
 ---------------------------------------------------------------------
 Center     Atomic      Atomic             Coordinates (Angstroms)
 Number     Number       Type             X           Y           Z
 ---------------------------------------------------------------------
      1          1           0        2.106486    0.732325    0.000000
      2          6           0        1.112999    0.307138    0.000000
      3          1           0        1.266758   -1.896908    0.000000
      4          6           0        0.665321   -0.999636    0.000000
      5          1           0       -1.479466   -1.685432    0.000000
      6          6           0       -0.743936   -0.891559    0.000000
      7          7           0       -1.149913    0.378352    0.000000
      8          1           0       -0.050688    2.094874    0.000000
      9          7           0        0.000000    1.087289    0.000000
 ---------------------------------------------------------------------
 Rotational constants (GHZ):      9.6300519      9.3991303      4.7565950
 Standard basis: CC-pVTZ (5D, 7F)
 There are   140 symmetry adapted basis functions of A'  symmetry.
 There are    66 symmetry adapted basis functions of A"  symmetry.
 Integral buffers will be    131072 words long.
 Raffenetti 1 integral format.
 Two-electron integral symmetry is turned on.
   206 basis functions,   328 primitive gaussians,   235 cartesian basis functions
    18 alpha electrons       18 beta electrons
       nuclear repulsion energy       162.8112834016 Hartrees.
 NAtoms=    9 NActive=    9 NUniq=    9 SFac= 1.00D+00 NAtFMM=   50 NAOKFM=F Big=F
 One-electron integrals computed using PRISM.
 NBasis=   206 RedAO= T  NBF=   140    66
 NBsUse=   206 1.00D-06 NBFU=   140    66
 Harris functional with IExCor=  419 diagonalized for initial guess.
 ExpMin= 1.03D-01 ExpMax= 1.14D+04 ExpMxC= 3.89D+02 IAcc=1 IRadAn=         1 AccDes= 0.00D+00
 HarFok:  IExCor=  419 AccDes= 0.00D+00 IRadAn=         1 IDoV= 1
 ScaDFX=  1.000000  1.000000  1.000000  1.000000
 FoFCou: FMM=F IPFlag=           0 FMFlag=      100000 FMFlg1=           0
         NFxFlg=           0 DoJE=T BraDBF=F KetDBF=T FulRan=T
         Omega=  0.000000  0.000000  1.000000  0.000000  0.000000 ICntrl=     500 IOpCl=  0
         NMat0=    1 NMatS0=    1 NMatT0=    0 NMatD0=    1 NMtDS0=    0 NMtDT0=    0
         I1Cent=           4 NGrid=           0.
 Petite list used in FoFCou.
 Initial guess orbital symmetries:
       Occupied  (A') (A') (A') (A') (A') (A') (A') (A') (A') (A')
                 (A') (A') (A') (A') (A") (A') (A") (A")
       Virtual   (A") (A") (A') (A') (A') (A') (A') (A') (A') (A')
                 (A") (A') (A') (A') (A') (A") (A') (A") (A') (A')
                 (A') (A') (A') (A") (A") (A') (A') (A') (A") (A')
                 (A") (A') (A') (A") (A') (A") (A') (A") (A') (A')
                 (A') (A") (A') (A') (A") (A') (A') (A') (A") (A')
                 (A") (A') (A') (A") (A') (A") (A') (A') (A') (A')
                 (A') (A") (A') (A') (A") (A') (A") (A') (A') (A")
                 (A') (A') (A") (A') (A') (A") (A') (A') (A') (A")
                 (A") (A') (A') (A') (A") (A') (A") (A") (A') (A')
                 (A') (A") (A') (A') (A") (A') (A") (A') (A") (A')
                 (A") (A') (A") (A') (A") (A") (A') (A') (A') (A")
                 (A') (A') (A") (A') (A') (A") (A') (A') (A') (A")
                 (A") (A') (A") (A') (A") (A') (A') (A") (A") (A')
                 (A') (A") (A") (A') (A') (A') (A') (A') (A") (A")
                 (A') (A') (A') (A') (A") (A') (A') (A") (A') (A')
                 (A") (A') (A") (A') (A") (A") (A') (A') (A") (A')
                 (A') (A") (A') (A") (A') (A") (A') (A') (A") (A')
                 (A') (A') (A") (A') (A") (A') (A') (A') (A') (A')
                 (A') (A') (A') (A') (A') (A') (A') (A')
 The electronic state of the initial guess is 1-A'.
 Requested convergence on RMS density matrix=1.00D-08 within 128 cycles.
 Requested convergence on MAX density matrix=1.00D-06.
 Requested convergence on             energy=1.00D-06.
 No special actions if energy rises.
 Keep R1 ints in memory in canonical form, NReq=391324956.
 Integral accuracy reduced to 1.0D-05 until final iterations.
 Initial convergence to 1.0D-05 achieved.  Increase integral accuracy.
 SCF Done:  E(RB2PLYP) =  -225.805223220     A.U. after   13 cycles
             Convg  =    0.8121D-08             -V/T =  2.0051
 ExpMin= 1.03D-01 ExpMax= 1.14D+04 ExpMxC= 3.89D+02 IAcc=1 IRadAn=         1 AccDes= 0.00D+00
 HarFok:  IExCor=  205 AccDes= 0.00D+00 IRadAn=         1 IDoV=-2
 ScaDFX=  1.000000  1.000000  1.000000  1.000000
 Range of M.O.s used for correlation:     6   206
 NBasis=   206 NAE=    18 NBE=    18 NFC=     5 NFV=     0
 NROrb=    201 NOA=    13 NOB=    13 NVA=   188 NVB=   188

 **** Warning!!: The largest alpha MO coefficient is  0.10871758D+02

 DoSCS=T DFT=T ScalE2(SS,OS)=  0.270000  0.270000
 Fully direct method using O(ONN) memory.
 JobTyp=1 Pass  1:  I=   6 to  11 NPSUse=  8 ParTrn=T ParDer=T DoDerP=T.
 JobTyp=1 Pass  2:  I=  12 to  17 NPSUse=  8 ParTrn=T ParDer=T DoDerP=T.
 JobTyp=1 Pass  3:  I=  18 to  18 NPSUse=  8 ParTrn=T ParDer=T DoDerP=T.
 Spin components of T(2) and E(2):
     alpha-alpha T2 =       0.6148896679D-01 E2=     -0.3817270229D-01
     alpha-beta  T2 =       0.3235873121D+00 E2=     -0.2158160317D+00
     beta-beta   T2 =       0.6148896679D-01 E2=     -0.3817270229D-01
 E2(B2PLYP) =    -0.2921614363D+00 E(B2PLYP) =    -0.22609738465611D+03
          IDoAtm=111111111
          Differentiating once with respect to electric field.
                with respect to dipole field.
          Differentiating once with respect to nuclear coordinates.
          Keep R1 ints in memory in canonical form, NReq=386436035.
          There are     1 degrees of freedom in the 1st order CPHF.  IDoFFX=0.
 LinEq1:  Iter=  0 NonCon=     1 RMS=1.61D-03 Max=3.88D-02
 AX will form     1 AO Fock derivatives at one time.
 LinEq1:  Iter=  1 NonCon=     1 RMS=5.62D-04 Max=1.08D-02
 LinEq1:  Iter=  2 NonCon=     1 RMS=2.49D-04 Max=9.26D-03
 LinEq1:  Iter=  3 NonCon=     1 RMS=1.88D-04 Max=6.72D-03
 LinEq1:  Iter=  4 NonCon=     1 RMS=6.85D-05 Max=1.52D-03
 LinEq1:  Iter=  5 NonCon=     1 RMS=1.62D-05 Max=2.21D-04
 LinEq1:  Iter=  6 NonCon=     1 RMS=5.81D-06 Max=9.95D-05
 LinEq1:  Iter=  7 NonCon=     1 RMS=2.51D-06 Max=6.85D-05
 LinEq1:  Iter=  8 NonCon=     1 RMS=1.20D-06 Max=2.30D-05
 LinEq1:  Iter=  9 NonCon=     1 RMS=3.42D-07 Max=4.58D-06
 LinEq1:  Iter= 10 NonCon=     1 RMS=1.14D-07 Max=3.70D-06
 LinEq1:  Iter= 11 NonCon=     1 RMS=5.40D-08 Max=1.13D-06
 LinEq1:  Iter= 12 NonCon=     1 RMS=1.82D-08 Max=3.45D-07
 LinEq1:  Iter= 13 NonCon=     1 RMS=3.30D-09 Max=3.63D-08
 LinEq1:  Iter= 14 NonCon=     1 RMS=6.45D-10 Max=7.35D-09
 LinEq1:  Iter= 15 NonCon=     1 RMS=1.27D-10 Max=1.61D-09
 LinEq1:  Iter= 16 NonCon=     0 RMS=1.78D-11 Max=2.06D-10
 Linear equations converged to 1.000D-10 1.000D-09 after    16 iterations.
 End of Minotr Frequency-dependent properties file   721 does not exist.
 End of Minotr Frequency-dependent properties file   722 does not exist.

 **********************************************************************

            Population analysis using the SCF density.

 **********************************************************************

 Orbital symmetries:
       Occupied  (A') (A') (A') (A') (A') (A') (A') (A') (A') (A')
                 (A') (A') (A") (A') (A') (A') (A") (A")
       Virtual   (A") (A') (A') (A') (A") (A') (A') (A') (A') (A')
                 (A") (A') (A') (A") (A') (A') (A') (A") (A') (A')
                 (A') (A') (A") (A') (A") (A') (A') (A') (A") (A')
                 (A') (A") (A') (A") (A') (A") (A') (A") (A') (A')
                 (A') (A") (A') (A") (A') (A') (A') (A') (A") (A')
                 (A") (A') (A') (A") (A') (A") (A') (A') (A') (A')
                 (A') (A") (A') (A') (A") (A') (A") (A') (A') (A')
                 (A') (A") (A') (A") (A') (A") (A') (A') (A') (A")
                 (A") (A') (A') (A') (A") (A") (A') (A') (A") (A')
                 (A") (A') (A') (A") (A') (A') (A") (A") (A') (A")
                 (A') (A') (A") (A') (A") (A") (A') (A') (A') (A")
                 (A') (A') (A") (A') (A") (A') (A') (A") (A') (A')
                 (A") (A") (A') (A') (A") (A") (A') (A') (A") (A")
                 (A') (A") (A') (A') (A') (A') (A') (A") (A') (A")
                 (A') (A') (A') (A') (A") (A') (A') (A') (A") (A")
                 (A') (A") (A') (A') (A") (A") (A') (A') (A") (A')
                 (A') (A") (A') (A") (A') (A") (A') (A") (A') (A')
                 (A') (A') (A") (A") (A') (A') (A') (A') (A') (A')
                 (A') (A') (A') (A') (A') (A') (A') (A')
 The electronic state is 1-A'.
 Alpha  occ. eigenvalues --  -14.91438 -14.85766 -10.65922 -10.63498 -10.61103
 Alpha  occ. eigenvalues --   -1.17982  -0.93280  -0.89194  -0.70042  -0.68008
 Alpha  occ. eigenvalues --   -0.62833  -0.51393  -0.50903  -0.49769  -0.46826
 Alpha  occ. eigenvalues --   -0.36361  -0.30619  -0.29272
 Alpha virt. eigenvalues --    0.06922   0.07626   0.11154   0.12147   0.12353
 Alpha virt. eigenvalues --    0.14150   0.23004   0.24244   0.25848   0.26069
 Alpha virt. eigenvalues --    0.34246   0.36191   0.38600   0.39852   0.41902
 Alpha virt. eigenvalues --    0.43929   0.44817   0.45205   0.48562   0.50985
 Alpha virt. eigenvalues --    0.52826   0.53333   0.56884   0.57118   0.60009
 Alpha virt. eigenvalues --    0.60787   0.62896   0.63159   0.66008   0.66029
 Alpha virt. eigenvalues --    0.76079   0.76262   0.80756   0.81289   0.82435
 Alpha virt. eigenvalues --    0.85853   0.87968   0.92169   1.00539   1.02775
 Alpha virt. eigenvalues --    1.04629   1.05612   1.07738   1.09289   1.10060
 Alpha virt. eigenvalues --    1.14861   1.18564   1.24734   1.25977   1.29650
 Alpha virt. eigenvalues --    1.33364   1.33585   1.35787   1.37224   1.38779
 Alpha virt. eigenvalues --    1.41751   1.42436   1.45000   1.56896   1.59009
 Alpha virt. eigenvalues --    1.62094   1.63195   1.63994   1.72330   1.75381
 Alpha virt. eigenvalues --    1.82669   1.87083   1.88817   1.94142   2.05822
 Alpha virt. eigenvalues --    2.11597   2.15541   2.22616   2.24895   2.36410
 Alpha virt. eigenvalues --    2.44222   2.45866   2.48792   2.58986   2.60425
 Alpha virt. eigenvalues --    2.62150   2.65249   2.66243   2.72954   2.77413
 Alpha virt. eigenvalues --    2.88690   2.88829   2.92202   2.94216   2.96833
 Alpha virt. eigenvalues --    2.99727   3.00626   3.04262   3.07037   3.07537
 Alpha virt. eigenvalues --    3.10636   3.11138   3.15531   3.16589   3.18750
 Alpha virt. eigenvalues --    3.18918   3.19127   3.22550   3.29063   3.30182
 Alpha virt. eigenvalues --    3.31803   3.31881   3.41014   3.41741   3.43236
 Alpha virt. eigenvalues --    3.46330   3.48888   3.54030   3.60342   3.61436
 Alpha virt. eigenvalues --    3.62519   3.67101   3.68817   3.70101   3.72666
 Alpha virt. eigenvalues --    3.74831   3.81663   3.84395   3.86162   3.91639
 Alpha virt. eigenvalues --    3.93936   3.95460   3.96091   3.97962   4.06052
 Alpha virt. eigenvalues --    4.06594   4.07859   4.10825   4.14747   4.16705
 Alpha virt. eigenvalues --    4.22894   4.28291   4.34438   4.34566   4.41982
 Alpha virt. eigenvalues --    4.43203   4.47250   4.51879   4.54509   4.57392
 Alpha virt. eigenvalues --    4.60166   4.62084   4.70995   4.71099   4.79507
 Alpha virt. eigenvalues --    4.80769   4.82972   4.83007   4.91026   4.95786
 Alpha virt. eigenvalues --    5.01374   5.01440   5.04548   5.05428   5.13583
 Alpha virt. eigenvalues --    5.13866   5.14665   5.19485   5.30263   5.38737
 Alpha virt. eigenvalues --    5.40072   5.45532   5.48290   5.49395   5.68909
 Alpha virt. eigenvalues --    5.71032   5.73348   5.81237   5.93146   5.95596
 Alpha virt. eigenvalues --    6.03290   6.13450   6.24849   6.38305   6.46606
 Alpha virt. eigenvalues --    6.69936   6.95871   7.03638   9.37865  11.59460
 Alpha virt. eigenvalues --   12.40959  13.32319  13.99781
          Condensed to atoms (all electrons):
              1          2          3          4          5          6
     1  H    0.494048   0.409755  -0.000719  -0.022992  -0.000162   0.003439
     2  C    0.409755   4.979091  -0.041141   0.515904   0.010338  -0.080045
     3  H   -0.000719  -0.041141   0.512597   0.405383  -0.001935  -0.029472
     4  C   -0.022992   0.515904   0.405383   5.016197  -0.047380   0.514209
     5  H   -0.000162   0.010338  -0.001935  -0.047380   0.508728   0.422010
     6  C    0.003439  -0.080045  -0.029472   0.514209   0.422010   4.794187
     7  N    0.004394  -0.128495   0.007366  -0.071269  -0.030390   0.621716
     8  H   -0.001702  -0.032348  -0.000317   0.006207  -0.000379   0.005303
     9  N   -0.028345   0.474280   0.003322  -0.109005   0.004049  -0.147359
              7          8          9
     1  H    0.004394  -0.001702  -0.028345
     2  C   -0.128495  -0.032348   0.474280
     3  H    0.007366  -0.000317   0.003322
     4  C   -0.071269   0.006207  -0.109005
     5  H   -0.030390  -0.000379   0.004049
     6  C    0.621716   0.005303  -0.147359
     7  N    6.462085  -0.029321   0.349903
     8  H   -0.029321   0.471479   0.397900
     9  N    0.349903   0.397900   6.056188
 Mulliken atomic charges:
              1
     1  H    0.142284
     2  C   -0.107339
     3  H    0.144917
     4  C   -0.207254
     5  H    0.135123
     6  C   -0.103988
     7  N   -0.185989
     8  H    0.183179
     9  N   -0.000933
 Sum of Mulliken atomic charges =   0.00000
 Mulliken charges with hydrogens summed into heavy atoms:
              1
     2  C    0.034946
     4  C   -0.062337
     6  C    0.031135
     7  N   -0.185989
     9  N    0.182245
 Sum of Mulliken charges with hydrogens summed into heavy atoms =   0.00000
 Electronic spatial extent (au):  <R**2>=            287.0395
 Charge=              0.0000 electrons
 Dipole moment (field-independent basis, Debye):
    X=              2.1721    Y=              0.8257    Z=              0.0000  Tot=              2.3237
 Quadrupole moment (field-independent basis, Debye-Ang):
   XX=            -29.7722   YY=            -22.1816   ZZ=            -32.1435
   XY=              2.6323   XZ=              0.0000   YZ=              0.0000
 Traceless Quadrupole moment (field-independent basis, Debye-Ang):
   XX=             -1.7398   YY=              5.8508   ZZ=             -4.1111
   XY=              2.6323   XZ=              0.0000   YZ=              0.0000
 Octapole moment (field-independent basis, Debye-Ang**2):
  XXX=              9.5930  YYY=             12.2303  ZZZ=              0.0000  XYY=              0.2247
  XXY=             -2.2766  XXZ=              0.0000  XZZ=             -1.1025  YZZ=              2.3742
  YYZ=              0.0000  XYZ=              0.0000
 Hexadecapole moment (field-independent basis, Debye-Ang**3):
 XXXX=           -176.6038 YYYY=           -134.1165 ZZZZ=            -34.6981 XXXY=             11.1121
 XXXZ=              0.0000 YYYX=             -1.3872 YYYZ=              0.0000 ZZZX=              0.0000
 ZZZY=              0.0000 XXYY=            -52.1194 XXZZ=            -39.1407 YYZZ=            -37.6061
 XXYZ=              0.0000 YYXZ=              0.0000 ZZXY=              0.0229
 N-N= 1.628112834016D+02 E-N=-8.517262225869D+02  KE= 2.246591035499D+02
 Symmetry A'   KE= 2.166268767500D+02
 Symmetry A"   KE= 8.032226799934D+00
 Calling FoFJK, ICntrl=      2127 FMM=F ISym2X=1 I1Cent= 0 IOpClX= 0 NMat=1 NMatS=1 NMatT=0.
 ***** Axes restored to original set *****
 -------------------------------------------------------------------
 Center     Atomic                   Forces (Hartrees/Bohr)
 Number     Number              X              Y              Z
 -------------------------------------------------------------------
      1        1          -0.003770890   -0.001733546    0.000000000
      2        6          -0.001443760    0.001105351    0.000000000
      3        1          -0.002407454    0.003718814    0.000000000
      4        6          -0.000505903    0.000282391    0.000000000
      5        1           0.002961683    0.003279571    0.000000000
      6        6           0.000092464   -0.001901315    0.000000000
      7        7           0.004917118   -0.000029383    0.000000000
      8        1           0.000549854   -0.004983157    0.000000000
      9        7          -0.000393112    0.000261273    0.000000000
 -------------------------------------------------------------------
 Cartesian Forces:  Max     0.004983157 RMS     0.002047390

 GradGradGradGradGradGradGradGradGradGradGradGradGradGradGradGradGradGrad
 Berny optimization.
 Internal  Forces:  Max     0.005004755 RMS     0.002047366
 Search for a local minimum.
 Step number   1 out of a maximum of   48
 All quantities printed in internal units (Hartrees-Bohrs-Radians)
 Mixed Optimization -- RFO/linear search
 Second derivative matrix not updated -- first step.
 ITU=  0
     Eigenvalues ---    0.02047   0.02113   0.02138   0.02186   0.02273
     Eigenvalues ---    0.02294   0.16000   0.16000   0.16000   0.16000
     Eigenvalues ---    0.22000   0.22913   0.35725   0.35916   0.35971
     Eigenvalues ---    0.40213   0.45752   0.46164   0.49923   0.53159
     Eigenvalues ---    0.56935
 RFO step:  Lambda=-3.67587601D-04 EMin= 2.04678947D-02
 Linear search not attempted -- first point.
 Iteration  1 RMS(Cart)=  0.00630207 RMS(Int)=  0.00000333
 Iteration  2 RMS(Cart)=  0.00000410 RMS(Int)=  0.00000063
 Iteration  3 RMS(Cart)=  0.00000000 RMS(Int)=  0.00000063
 ClnCor:  largest displacement from symmetrization is 9.91D-11 for atom     1.
 Variable       Old X    -DE/DX   Delta X   Delta X   Delta X     New X
                                 (Linear)    (Quad)   (Total)
    R1        2.04213  -0.00415   0.00000  -0.01154  -0.01154   2.03059
    R2        2.61034  -0.00353   0.00000  -0.00725  -0.00724   2.60309
    R3        2.56850  -0.00472   0.00000  -0.00916  -0.00916   2.55934
    R4        2.04127  -0.00443   0.00000  -0.01230  -0.01230   2.02897
    R5        2.67093  -0.00427   0.00000  -0.00947  -0.00947   2.66145
    R6        2.04513  -0.00442   0.00000  -0.01235  -0.01235   2.03278
    R7        2.51943  -0.00235   0.00000  -0.00383  -0.00383   2.51560
    R8        2.55280  -0.00427   0.00000  -0.00795  -0.00795   2.54485
    R9        1.90647  -0.00500   0.00000  -0.01083  -0.01083   1.89563
    A1        2.30524  -0.00029   0.00000  -0.00117  -0.00117   2.30407
    A2        2.12585  -0.00007   0.00000   0.00018   0.00018   2.12603
    A3        1.85210   0.00036   0.00000   0.00098   0.00098   1.85309
    A4        2.22103  -0.00011   0.00000  -0.00090  -0.00090   2.22013
    A5        1.82431   0.00006   0.00000   0.00085   0.00085   1.82516
    A6        2.23785   0.00005   0.00000   0.00005   0.00005   2.23790
    A7        2.24152   0.00039   0.00000   0.00135   0.00135   2.24287
    A8        1.95676  -0.00067   0.00000  -0.00203  -0.00203   1.95473
    A9        2.08490   0.00028   0.00000   0.00069   0.00069   2.08559
   A10        1.81385   0.00025   0.00000   0.00111   0.00111   1.81496
   A11        1.97776   0.00000   0.00000  -0.00091  -0.00091   1.97685
   A12        2.23242  -0.00028   0.00000  -0.00129  -0.00129   2.23113
   A13        2.07301   0.00028   0.00000   0.00221   0.00221   2.07521
    D1        0.00000   0.00000   0.00000   0.00000   0.00000   0.00000
    D2        3.14159   0.00000   0.00000   0.00000   0.00000   3.14159
    D3        3.14159   0.00000   0.00000   0.00000   0.00000   3.14159
    D4        0.00000   0.00000   0.00000   0.00000   0.00000   0.00000
    D5        3.14159   0.00000   0.00000   0.00000   0.00000   3.14159
    D6        0.00000   0.00000   0.00000   0.00000   0.00000   0.00000
    D7        0.00000   0.00000   0.00000   0.00000   0.00000   0.00000
    D8        3.14159   0.00000   0.00000   0.00000   0.00000   3.14159
    D9        3.14159   0.00000   0.00000   0.00000   0.00000   3.14159
   D10        0.00000   0.00000   0.00000   0.00000   0.00000   0.00000
   D11        0.00000   0.00000   0.00000   0.00000   0.00000   0.00000
   D12        3.14159   0.00000   0.00000   0.00000   0.00000   3.14159
   D13        0.00000   0.00000   0.00000   0.00000   0.00000   0.00000
   D14        3.14159   0.00000   0.00000   0.00000   0.00000   3.14159
   D15        0.00000   0.00000   0.00000   0.00000   0.00000   0.00000
   D16        3.14159   0.00000   0.00000   0.00000   0.00000   3.14159
         Item               Value     Threshold  Converged?
 Maximum Force            0.005005     0.000450     NO 
 RMS     Force            0.002047     0.000300     NO 
 Maximum Displacement     0.016798     0.001800     NO 
 RMS     Displacement     0.006302     0.001200     NO 
 Predicted change in Energy=-1.839558D-04
 GradGradGradGradGradGradGradGradGradGradGradGradGradGradGradGradGradGrad

                          Input orientation:                          
 ---------------------------------------------------------------------
 Center     Atomic      Atomic             Coordinates (Angstroms)
 Number     Number       Type             X           Y           Z
 ---------------------------------------------------------------------
      1          1           0        2.097597    0.728296    0.000000
      2          6           0        1.109385    0.306305    0.000000
      3          1           0        1.262365   -1.888112    0.000000
      4          6           0        0.663423   -0.997005    0.000000
      5          1           0       -1.472156   -1.679996    0.000000
      6          6           0       -0.740964   -0.891016    0.000000
      7          7           0       -1.145285    0.377297    0.000000
      8          1           0       -0.047644    2.086314    0.000000
      9          7           0        0.000839    1.084360    0.000000
 ---------------------------------------------------------------------
                    Distance matrix (angstroms):
                    1          2          3          4          5
     1  H    0.000000
     2  C    1.074542   0.000000
     3  H    2.746490   2.199743   0.000000
     4  C    2.243550   1.377497   1.073687   0.000000
     5  H    4.306159   3.257260   2.742429   2.242136   0.000000
     6  C    3.267966   2.203944   2.237751   1.408381   1.075700
     7  N    3.261822   2.255787   3.305882   2.271592   2.083098
     8  H    2.538950   2.123005   4.184757   3.164249   4.026702
     9  N    2.126776   1.354343   3.229092   2.184284   3.132312
                    6          7          8          9
     6  C    0.000000
     7  N    1.331200   0.000000
     8  H    3.056990   2.031147   0.000000
     9  N    2.110067   1.346677   1.003127   0.000000
 Stoichiometry    C3H4N2
 Framework group  CS[SG(C3H4N2)]
 Deg. of freedom    15
 Full point group                 CS      NOp   2
 Largest Abelian subgroup         CS      NOp   2
 Largest concise Abelian subgroup C1      NOp   1
                         Standard orientation:                         
 ---------------------------------------------------------------------
 Center     Atomic      Atomic             Coordinates (Angstroms)
 Number     Number       Type             X           Y           Z
 ---------------------------------------------------------------------
      1          1           0        2.096850    0.729177    0.000000
      2          6           0        1.108747    0.306930    0.000000
      3          1           0        1.262295   -1.887447    0.000000
      4          6           0        0.663123   -0.996495    0.000000
      5          1           0       -1.472280   -1.680038    0.000000
      6          6           0       -0.741292   -0.890869    0.000000
      7          7           0       -1.145941    0.377339    0.000000
      8          1           0       -0.048742    2.086641    0.000000
      9          7           0        0.000000    1.084699    0.000000
 ---------------------------------------------------------------------
 Rotational constants (GHZ):      9.6805849      9.4691259      4.7868440
 Standard basis: CC-pVTZ (5D, 7F)
 There are   140 symmetry adapted basis functions of A'  symmetry.
 There are    66 symmetry adapted basis functions of A"  symmetry.
 Integral buffers will be    131072 words long.
 Raffenetti 1 integral format.
 Two-electron integral symmetry is turned on.
   206 basis functions,   328 primitive gaussians,   235 cartesian basis functions
    18 alpha electrons       18 beta electrons
       nuclear repulsion energy       163.3438176629 Hartrees.
 NAtoms=    9 NActive=    9 NUniq=    9 SFac= 1.00D+00 NAtFMM=   50 NAOKFM=F Big=F
 One-electron integrals computed using PRISM.
 NBasis=   206 RedAO= T  NBF=   140    66
 NBsUse=   206 1.00D-06 NBFU=   140    66
 Initial guess read from the read-write file.
 B after Tr=     0.000000    0.000000    0.000000
         Rot=    1.000000    0.000000    0.000000    0.000000 Ang=   0.00 deg.
 Initial guess orbital symmetries:
       Occupied  (A') (A') (A') (A') (A') (A') (A') (A') (A') (A')
                 (A') (A') (A") (A') (A') (A') (A") (A")
       Virtual   (A") (A') (A') (A') (A") (A') (A') (A') (A') (A')
                 (A") (A') (A') (A") (A') (A') (A') (A") (A') (A')
                 (A') (A') (A") (A') (A") (A') (A') (A') (A") (A')
                 (A') (A") (A') (A") (A') (A") (A') (A") (A') (A')
                 (A') (A") (A') (A") (A') (A') (A') (A') (A") (A')
                 (A") (A') (A') (A") (A') (A") (A') (A') (A') (A')
                 (A') (A") (A') (A') (A") (A') (A") (A') (A') (A')
                 (A') (A") (A') (A") (A') (A") (A') (A') (A') (A")
                 (A") (A') (A') (A') (A") (A") (A') (A') (A") (A')
                 (A") (A') (A') (A") (A') (A') (A") (A") (A') (A")
                 (A') (A') (A") (A') (A") (A") (A') (A') (A') (A")
                 (A') (A') (A") (A') (A") (A') (A') (A") (A') (A')
                 (A") (A") (A') (A') (A") (A") (A') (A') (A") (A")
                 (A') (A") (A') (A') (A') (A') (A') (A") (A') (A")
                 (A') (A') (A') (A') (A") (A') (A') (A') (A") (A")
                 (A') (A") (A') (A') (A") (A") (A') (A') (A") (A')
                 (A') (A") (A') (A") (A') (A") (A') (A") (A') (A')
                 (A') (A') (A") (A") (A') (A') (A') (A') (A') (A')
                 (A') (A') (A') (A') (A') (A') (A') (A')
 Requested convergence on RMS density matrix=1.00D-08 within 128 cycles.
 Requested convergence on MAX density matrix=1.00D-06.
 Requested convergence on             energy=1.00D-06.
 No special actions if energy rises.
 Keep R1 ints in memory in canonical form, NReq=391324956.
 SCF Done:  E(RB2PLYP) =  -225.805979176     A.U. after   10 cycles
             Convg  =    0.4533D-08             -V/T =  2.0047
 ExpMin= 1.03D-01 ExpMax= 1.14D+04 ExpMxC= 3.89D+02 IAcc=1 IRadAn=         1 AccDes= 0.00D+00
 HarFok:  IExCor=  205 AccDes= 0.00D+00 IRadAn=         1 IDoV=-2
 ScaDFX=  1.000000  1.000000  1.000000  1.000000
 Range of M.O.s used for correlation:     6   206
 NBasis=   206 NAE=    18 NBE=    18 NFC=     5 NFV=     0
 NROrb=    201 NOA=    13 NOB=    13 NVA=   188 NVB=   188

 **** Warning!!: The largest alpha MO coefficient is  0.10977357D+02

 DoSCS=T DFT=T ScalE2(SS,OS)=  0.270000  0.270000
 Fully direct method using O(ONN) memory.
 JobTyp=1 Pass  1:  I=   6 to  11 NPSUse=  8 ParTrn=T ParDer=T DoDerP=T.
 JobTyp=1 Pass  2:  I=  12 to  17 NPSUse=  8 ParTrn=T ParDer=T DoDerP=T.
 JobTyp=1 Pass  3:  I=  18 to  18 NPSUse=  8 ParTrn=T ParDer=T DoDerP=T.
 Spin components of T(2) and E(2):
     alpha-alpha T2 =       0.6109520183D-01 E2=     -0.3811403036D-01
     alpha-beta  T2 =       0.3211130887D+00 E2=     -0.2153592579D+00
     beta-beta   T2 =       0.6109520183D-01 E2=     -0.3811403036D-01
 E2(B2PLYP) =    -0.2915873187D+00 E(B2PLYP) =    -0.22609756649489D+03
          IDoAtm=111111111
          Differentiating once with respect to electric field.
                with respect to dipole field.
          Differentiating once with respect to nuclear coordinates.
          Keep R1 ints in memory in canonical form, NReq=386436035.
          There are     1 degrees of freedom in the 1st order CPHF.  IDoFFX=0.
 LinEq1:  Iter=  0 NonCon=     1 RMS=1.59D-03 Max=3.77D-02
 AX will form     1 AO Fock derivatives at one time.
 LinEq1:  Iter=  1 NonCon=     1 RMS=5.51D-04 Max=1.05D-02
 LinEq1:  Iter=  2 NonCon=     1 RMS=2.42D-04 Max=8.93D-03
 LinEq1:  Iter=  3 NonCon=     1 RMS=1.82D-04 Max=6.50D-03
 LinEq1:  Iter=  4 NonCon=     1 RMS=6.68D-05 Max=1.49D-03
 LinEq1:  Iter=  5 NonCon=     1 RMS=1.57D-05 Max=2.17D-04
 LinEq1:  Iter=  6 NonCon=     1 RMS=5.46D-06 Max=9.23D-05
 LinEq1:  Iter=  7 NonCon=     1 RMS=2.40D-06 Max=6.34D-05
 LinEq1:  Iter=  8 NonCon=     1 RMS=1.10D-06 Max=2.07D-05
 LinEq1:  Iter=  9 NonCon=     1 RMS=3.23D-07 Max=4.72D-06
 LinEq1:  Iter= 10 NonCon=     1 RMS=1.02D-07 Max=3.22D-06
 LinEq1:  Iter= 11 NonCon=     1 RMS=4.79D-08 Max=9.95D-07
 LinEq1:  Iter= 12 NonCon=     1 RMS=1.69D-08 Max=3.32D-07
 LinEq1:  Iter= 13 NonCon=     1 RMS=3.08D-09 Max=3.49D-08
 LinEq1:  Iter= 14 NonCon=     1 RMS=6.03D-10 Max=6.83D-09
 LinEq1:  Iter= 15 NonCon=     1 RMS=1.19D-10 Max=1.50D-09
 LinEq1:  Iter= 16 NonCon=     0 RMS=1.66D-11 Max=1.91D-10
 Linear equations converged to 1.000D-10 1.000D-09 after    16 iterations.
 End of Minotr Frequency-dependent properties file   721 does not exist.
 End of Minotr Frequency-dependent properties file   722 does not exist.
 Calling FoFJK, ICntrl=      2127 FMM=F ISym2X=1 I1Cent= 0 IOpClX= 0 NMat=1 NMatS=1 NMatT=0.
 ***** Axes restored to original set *****
 -------------------------------------------------------------------
 Center     Atomic                   Forces (Hartrees/Bohr)
 Number     Number              X              Y              Z
 -------------------------------------------------------------------
      1        1           0.000245612   -0.000060992    0.000000000
      2        6          -0.000107598    0.000770029    0.000000000
      3        1           0.000154189   -0.000148783    0.000000000
      4        6          -0.000124375   -0.000275301    0.000000000
      5        1          -0.000139191   -0.000056042    0.000000000
      6        6          -0.000013208   -0.000499264    0.000000000
      7        7           0.000769190    0.000954886    0.000000000
      8        1           0.000096430    0.000161870    0.000000000
      9        7          -0.000881049   -0.000846402    0.000000000
 -------------------------------------------------------------------
 Cartesian Forces:  Max     0.000954886 RMS     0.000390123

 GradGradGradGradGradGradGradGradGradGradGradGradGradGradGradGradGradGrad
 Berny optimization.
 Using GEDIIS/GDIIS optimizer.
 Internal  Forces:  Max     0.000847299 RMS     0.000204786
 Search for a local minimum.
 Step number   2 out of a maximum of   48
 All quantities printed in internal units (Hartrees-Bohrs-Radians)
 Mixed Optimization -- En-DIIS/RFO-DIIS
 Update second derivatives using D2CorX and points    1    2
 DE= -1.82D-04 DEPred=-1.84D-04 R= 9.88D-01
 SS=  1.41D+00  RLast= 2.96D-02 DXNew= 5.0454D-01 8.8870D-02
 Trust test= 9.88D-01 RLast= 2.96D-02 DXMaxT set to 3.00D-01
 ITU=  1  0
 Use linear search instead of GDIIS.
     Eigenvalues ---    0.02047   0.02113   0.02138   0.02186   0.02273
     Eigenvalues ---    0.02294   0.15928   0.16000   0.16000   0.16005
     Eigenvalues ---    0.21987   0.22877   0.35728   0.35942   0.36458
     Eigenvalues ---    0.40788   0.45491   0.47201   0.48192   0.52489
     Eigenvalues ---    0.58369
 RFO step:  Lambda=-3.49359072D-06 EMin= 2.04661589D-02
 Quartic linear search produced a step of -0.01545.
 Iteration  1 RMS(Cart)=  0.00040617 RMS(Int)=  0.00000014
 Iteration  2 RMS(Cart)=  0.00000015 RMS(Int)=  0.00000003
 ClnCor:  largest displacement from symmetrization is 1.38D-11 for atom     1.
 Variable       Old X    -DE/DX   Delta X   Delta X   Delta X     New X
                                 (Linear)    (Quad)   (Total)
    R1        2.03059   0.00020   0.00018   0.00026   0.00044   2.03103
    R2        2.60309   0.00047   0.00011   0.00083   0.00094   2.60403
    R3        2.55934  -0.00008   0.00014  -0.00049  -0.00034   2.55899
    R4        2.02897   0.00021   0.00019   0.00026   0.00045   2.02943
    R5        2.66145   0.00010   0.00015   0.00015   0.00030   2.66175
    R6        2.03278   0.00014   0.00019   0.00006   0.00025   2.03303
    R7        2.51560   0.00047   0.00006   0.00071   0.00077   2.51638
    R8        2.54485  -0.00085   0.00012  -0.00185  -0.00172   2.54313
    R9        1.89563   0.00016   0.00017   0.00006   0.00023   1.89586
    A1        2.30407  -0.00013   0.00002  -0.00084  -0.00082   2.30325
    A2        2.12603   0.00017   0.00000   0.00105   0.00104   2.12707
    A3        1.85309  -0.00004  -0.00002  -0.00020  -0.00022   1.85287
    A4        2.22013   0.00002   0.00001  -0.00028  -0.00026   2.21987
    A5        1.82516  -0.00013  -0.00001  -0.00009  -0.00010   1.82506
    A6        2.23790   0.00012   0.00000   0.00036   0.00036   2.23826
    A7        2.24287   0.00018  -0.00002   0.00075   0.00072   2.24360
    A8        1.95473  -0.00023   0.00003  -0.00073  -0.00070   1.95402
    A9        2.08559   0.00006  -0.00001  -0.00001  -0.00002   2.08557
   A10        1.81496   0.00021  -0.00002   0.00059   0.00057   1.81553
   A11        1.97685   0.00020   0.00001   0.00044   0.00045   1.97730
   A12        2.23113  -0.00019   0.00002  -0.00084  -0.00082   2.23030
   A13        2.07521  -0.00001  -0.00003   0.00041   0.00037   2.07558
    D1        0.00000   0.00000   0.00000   0.00000   0.00000   0.00000
    D2        3.14159   0.00000   0.00000   0.00000   0.00000   3.14159
    D3        3.14159   0.00000   0.00000   0.00000   0.00000   3.14159
    D4        0.00000   0.00000   0.00000   0.00000   0.00000   0.00000
    D5        3.14159   0.00000   0.00000   0.00000   0.00000   3.14159
    D6        0.00000   0.00000   0.00000   0.00000   0.00000   0.00000
    D7        0.00000   0.00000   0.00000   0.00000   0.00000   0.00000
    D8        3.14159   0.00000   0.00000   0.00000   0.00000   3.14159
    D9        3.14159   0.00000   0.00000   0.00000   0.00000   3.14159
   D10        0.00000   0.00000   0.00000   0.00000   0.00000   0.00000
   D11        0.00000   0.00000   0.00000   0.00000   0.00000   0.00000
   D12        3.14159   0.00000   0.00000   0.00000   0.00000   3.14159
   D13        0.00000   0.00000   0.00000   0.00000   0.00000   0.00000
   D14        3.14159   0.00000   0.00000   0.00000   0.00000   3.14159
   D15        0.00000   0.00000   0.00000   0.00000   0.00000   0.00000
   D16        3.14159   0.00000   0.00000   0.00000   0.00000   3.14159
         Item               Value     Threshold  Converged?
 Maximum Force            0.000847     0.000450     NO 
 RMS     Force            0.000205     0.000300     YES
 Maximum Displacement     0.001342     0.001800     YES
 RMS     Displacement     0.000406     0.001200     YES
 Predicted change in Energy=-1.791985D-06
 GradGradGradGradGradGradGradGradGradGradGradGradGradGradGradGradGradGrad

                          Input orientation:                          
 ---------------------------------------------------------------------
 Center     Atomic      Atomic             Coordinates (Angstroms)
 Number     Number       Type             X           Y           Z
 ---------------------------------------------------------------------
      1          1           0        2.097914    0.728258    0.000000
      2          6           0        1.109243    0.306748    0.000000
      3          1           0        1.262961   -1.888146    0.000000
      4          6           0        0.663436   -0.997142    0.000000
      5          1           0       -1.472865   -1.679990    0.000000
      6          6           0       -0.741122   -0.891339    0.000000
      7          7           0       -1.144854    0.377590    0.000000
      8          1           0       -0.047639    2.086279    0.000000
      9          7           0        0.000487    1.084186    0.000000
 ---------------------------------------------------------------------
                    Distance matrix (angstroms):
                    1          2          3          4          5
     1  H    0.000000
     2  C    1.074775   0.000000
     3  H    2.746400   2.200270   0.000000
     4  C    2.243821   1.377996   1.073927   0.000000
     5  H    4.306986   3.257977   2.743734   2.242781   0.000000
     6  C    3.268519   2.204374   2.238297   1.408538   1.075834
     7  N    3.261673   2.255210   3.306227   2.271520   2.083562
     8  H    2.539216   2.122524   4.184941   3.164350   4.026916
     9  N    2.127413   1.354161   3.229334   2.184360   3.132321
                    6          7          8          9
     6  C    0.000000
     7  N    1.331609   0.000000
     8  H    3.057307   2.030640   0.000000
     9  N    2.110138   1.345765   1.003248   0.000000
 Stoichiometry    C3H4N2
 Framework group  CS[SG(C3H4N2)]
 Deg. of freedom    15
 Full point group                 CS      NOp   2
 Largest Abelian subgroup         CS      NOp   2
 Largest concise Abelian subgroup C1      NOp   1
                         Standard orientation:                         
 ---------------------------------------------------------------------
 Center     Atomic      Atomic             Coordinates (Angstroms)
 Number     Number       Type             X           Y           Z
 ---------------------------------------------------------------------
      1          1           0        2.097413    0.728492    0.000000
      2          6           0        1.108724    0.307023    0.000000
      3          1           0        1.262351   -1.887877    0.000000
      4          6           0        0.662863   -0.996848    0.000000
      5          1           0       -1.473467   -1.679608    0.000000
      6          6           0       -0.741691   -0.890987    0.000000
      7          7           0       -1.145370    0.377959    0.000000
      8          1           0       -0.048084    2.086602    0.000000
      9          7           0        0.000000    1.084507    0.000000
 ---------------------------------------------------------------------
 Rotational constants (GHZ):      9.6789842      9.4704045      4.7867792
 Standard basis: CC-pVTZ (5D, 7F)
 There are   140 symmetry adapted basis functions of A'  symmetry.
 There are    66 symmetry adapted basis functions of A"  symmetry.
 Integral buffers will be    131072 words long.
 Raffenetti 1 integral format.
 Two-electron integral symmetry is turned on.
   206 basis functions,   328 primitive gaussians,   235 cartesian basis functions
    18 alpha electrons       18 beta electrons
       nuclear repulsion energy       163.3435392289 Hartrees.
 NAtoms=    9 NActive=    9 NUniq=    9 SFac= 1.00D+00 NAtFMM=   50 NAOKFM=F Big=F
 One-electron integrals computed using PRISM.
 NBasis=   206 RedAO= T  NBF=   140    66
 NBsUse=   206 1.00D-06 NBFU=   140    66
 Initial guess read from the read-write file.
 B after Tr=     0.000000    0.000000    0.000000
         Rot=    1.000000    0.000000    0.000000    0.000000 Ang=   0.00 deg.
 Initial guess orbital symmetries:
       Occupied  (A') (A') (A') (A') (A') (A') (A') (A') (A') (A')
                 (A') (A') (A") (A') (A') (A') (A") (A")
       Virtual   (A") (A') (A') (A') (A") (A') (A') (A') (A') (A')
                 (A") (A') (A') (A") (A') (A') (A') (A") (A') (A')
                 (A') (A') (A") (A') (A") (A') (A') (A') (A") (A')
                 (A') (A") (A') (A") (A') (A") (A') (A") (A') (A')
                 (A') (A") (A') (A") (A') (A') (A') (A') (A") (A')
                 (A') (A") (A') (A") (A') (A") (A') (A') (A') (A')
                 (A') (A") (A') (A') (A") (A') (A") (A') (A') (A')
                 (A') (A") (A') (A") (A') (A") (A') (A') (A') (A")
                 (A") (A') (A') (A') (A") (A") (A') (A') (A") (A')
                 (A") (A') (A') (A") (A') (A') (A") (A") (A') (A")
                 (A') (A') (A") (A') (A") (A") (A') (A') (A') (A")
                 (A') (A') (A") (A') (A") (A') (A') (A") (A') (A')
                 (A") (A") (A') (A') (A") (A") (A') (A') (A") (A")
                 (A') (A") (A') (A') (A') (A') (A') (A") (A') (A")
                 (A') (A') (A') (A') (A") (A') (A') (A") (A') (A")
                 (A') (A") (A') (A') (A") (A") (A') (A") (A') (A')
                 (A') (A") (A') (A") (A') (A") (A') (A") (A') (A')
                 (A') (A') (A") (A") (A') (A') (A') (A') (A') (A')
                 (A') (A') (A') (A') (A') (A') (A') (A')
 Requested convergence on RMS density matrix=1.00D-08 within 128 cycles.
 Requested convergence on MAX density matrix=1.00D-06.
 Requested convergence on             energy=1.00D-06.
 No special actions if energy rises.
 Keep R1 ints in memory in canonical form, NReq=391324956.
 SCF Done:  E(RB2PLYP) =  -225.805977140     A.U. after    8 cycles
             Convg  =    0.5863D-08             -V/T =  2.0047
 ExpMin= 1.03D-01 ExpMax= 1.14D+04 ExpMxC= 3.89D+02 IAcc=1 IRadAn=         1 AccDes= 0.00D+00
 HarFok:  IExCor=  205 AccDes= 0.00D+00 IRadAn=         1 IDoV=-2
 ScaDFX=  1.000000  1.000000  1.000000  1.000000
 Range of M.O.s used for correlation:     6   206
 NBasis=   206 NAE=    18 NBE=    18 NFC=     5 NFV=     0
 NROrb=    201 NOA=    13 NOB=    13 NVA=   188 NVB=   188

 **** Warning!!: The largest alpha MO coefficient is  0.11001110D+02

 DoSCS=T DFT=T ScalE2(SS,OS)=  0.270000  0.270000
 Fully direct method using O(ONN) memory.
 JobTyp=1 Pass  1:  I=   6 to  11 NPSUse=  8 ParTrn=T ParDer=T DoDerP=T.
 JobTyp=1 Pass  2:  I=  12 to  17 NPSUse=  8 ParTrn=T ParDer=T DoDerP=T.
 JobTyp=1 Pass  3:  I=  18 to  18 NPSUse=  8 ParTrn=T ParDer=T DoDerP=T.
 Spin components of T(2) and E(2):
     alpha-alpha T2 =       0.6110057268D-01 E2=     -0.3811549406D-01
     alpha-beta  T2 =       0.3211341081D+00 E2=     -0.2153607999D+00
     beta-beta   T2 =       0.6110057268D-01 E2=     -0.3811549406D-01
 E2(B2PLYP) =    -0.2915917880D+00 E(B2PLYP) =    -0.22609756892846D+03
          IDoAtm=111111111
          Differentiating once with respect to electric field.
                with respect to dipole field.
          Differentiating once with respect to nuclear coordinates.
          Keep R1 ints in memory in canonical form, NReq=386436035.
          There are     1 degrees of freedom in the 1st order CPHF.  IDoFFX=0.
 LinEq1:  Iter=  0 NonCon=     1 RMS=1.59D-03 Max=3.74D-02
 AX will form     1 AO Fock derivatives at one time.
 LinEq1:  Iter=  1 NonCon=     1 RMS=5.50D-04 Max=1.05D-02
 LinEq1:  Iter=  2 NonCon=     1 RMS=2.41D-04 Max=8.88D-03
 LinEq1:  Iter=  3 NonCon=     1 RMS=1.81D-04 Max=6.48D-03
 LinEq1:  Iter=  4 NonCon=     1 RMS=6.68D-05 Max=1.50D-03
 LinEq1:  Iter=  5 NonCon=     1 RMS=1.57D-05 Max=2.17D-04
 LinEq1:  Iter=  6 NonCon=     1 RMS=5.38D-06 Max=9.09D-05
 LinEq1:  Iter=  7 NonCon=     1 RMS=2.38D-06 Max=6.22D-05
 LinEq1:  Iter=  8 NonCon=     1 RMS=1.09D-06 Max=2.08D-05
 LinEq1:  Iter=  9 NonCon=     1 RMS=3.21D-07 Max=4.72D-06
 LinEq1:  Iter= 10 NonCon=     1 RMS=1.00D-07 Max=3.13D-06
 LinEq1:  Iter= 11 NonCon=     1 RMS=4.69D-08 Max=9.62D-07
 LinEq1:  Iter= 12 NonCon=     1 RMS=1.67D-08 Max=3.33D-07
 LinEq1:  Iter= 13 NonCon=     1 RMS=3.06D-09 Max=3.58D-08
 LinEq1:  Iter= 14 NonCon=     1 RMS=6.00D-10 Max=6.77D-09
 LinEq1:  Iter= 15 NonCon=     1 RMS=1.18D-10 Max=1.49D-09
 LinEq1:  Iter= 16 NonCon=     0 RMS=1.66D-11 Max=1.90D-10
 Linear equations converged to 1.000D-10 1.000D-09 after    16 iterations.
 End of Minotr Frequency-dependent properties file   721 does not exist.
 End of Minotr Frequency-dependent properties file   722 does not exist.
 Calling FoFJK, ICntrl=      2127 FMM=F ISym2X=1 I1Cent= 0 IOpClX= 0 NMat=1 NMatS=1 NMatT=0.
 ***** Axes restored to original set *****
 -------------------------------------------------------------------
 Center     Atomic                   Forces (Hartrees/Bohr)
 Number     Number              X              Y              Z
 -------------------------------------------------------------------
      1        1           0.000050029   -0.000049845    0.000000000
      2        6           0.000070908    0.000221383    0.000000000
      3        1           0.000045022   -0.000015715    0.000000000
      4        6          -0.000099807   -0.000065678    0.000000000
      5        1          -0.000043622    0.000014857    0.000000000
      6        6           0.000110781   -0.000195535    0.000000000
      7        7           0.000233665    0.000406917    0.000000000
      8        1           0.000047714    0.000067551    0.000000000
      9        7          -0.000414690   -0.000383934    0.000000000
 -------------------------------------------------------------------
 Cartesian Forces:  Max     0.000414690 RMS     0.000158067

 GradGradGradGradGradGradGradGradGradGradGradGradGradGradGradGradGradGrad
 Berny optimization.
 Using GEDIIS/GDIIS optimizer.
 Internal  Forces:  Max     0.000353794 RMS     0.000075641
 Search for a local minimum.
 Step number   3 out of a maximum of   48
 All quantities printed in internal units (Hartrees-Bohrs-Radians)
 Mixed Optimization -- En-DIIS/RFO-DIIS
 Swaping is turned off.
 Update second derivatives using D2CorX and points    1    2    3
 DE= -2.43D-06 DEPred=-1.79D-06 R= 1.36D+00
 SS=  1.41D+00  RLast= 3.09D-03 DXNew= 5.0454D-01 9.2818D-03
 Trust test= 1.36D+00 RLast= 3.09D-03 DXMaxT set to 3.00D-01
 ITU=  1  1  0
     Eigenvalues ---    0.02046   0.02113   0.02138   0.02186   0.02273
     Eigenvalues ---    0.02294   0.13549   0.16000   0.16000   0.16031
     Eigenvalues ---    0.21370   0.23411   0.35397   0.35914   0.36195
     Eigenvalues ---    0.37542   0.41838   0.46185   0.47540   0.52193
     Eigenvalues ---    0.56269
 En-DIIS/RFO-DIIS IScMMF=        0 using points:     3    2
 RFO step:  Lambda=-4.21885210D-07.
 DidBck=F Rises=F RFO-DIIS coefs:    1.51983   -0.51983
 Iteration  1 RMS(Cart)=  0.00026441 RMS(Int)=  0.00000007
 Iteration  2 RMS(Cart)=  0.00000008 RMS(Int)=  0.00000001
 ClnCor:  largest displacement from symmetrization is 1.13D-12 for atom     1.
 Variable       Old X    -DE/DX   Delta X   Delta X   Delta X     New X
                                  (DIIS)     (GDIIS)  (Total)
    R1        2.03103   0.00003   0.00023  -0.00015   0.00008   2.03110
    R2        2.60403   0.00009   0.00049  -0.00017   0.00032   2.60436
    R3        2.55899   0.00002  -0.00018   0.00013  -0.00005   2.55894
    R4        2.02943   0.00004   0.00024  -0.00011   0.00012   2.02955
    R5        2.66175  -0.00003   0.00015  -0.00020  -0.00005   2.66170
    R6        2.03303   0.00002   0.00013  -0.00010   0.00003   2.03306
    R7        2.51638   0.00019   0.00040   0.00012   0.00052   2.51690
    R8        2.54313  -0.00035  -0.00090  -0.00030  -0.00120   2.54193
    R9        1.89586   0.00006   0.00012   0.00005   0.00017   1.89603
    A1        2.30325  -0.00004  -0.00043  -0.00006  -0.00049   2.30276
    A2        2.12707   0.00008   0.00054   0.00028   0.00083   2.12790
    A3        1.85287  -0.00004  -0.00011  -0.00023  -0.00034   1.85253
    A4        2.21987  -0.00002  -0.00014  -0.00019  -0.00033   2.21954
    A5        1.82506  -0.00004  -0.00005   0.00003  -0.00002   1.82503
    A6        2.23826   0.00005   0.00019   0.00016   0.00035   2.23862
    A7        2.24360   0.00006   0.00038   0.00009   0.00047   2.24407
    A8        1.95402  -0.00004  -0.00037   0.00020  -0.00017   1.95386
    A9        2.08557  -0.00002  -0.00001  -0.00029  -0.00030   2.08526
   A10        1.81553   0.00001   0.00030  -0.00034  -0.00004   1.81549
   A11        1.97730   0.00011   0.00024   0.00034   0.00057   1.97787
   A12        2.23030  -0.00010  -0.00043  -0.00033  -0.00075   2.22955
   A13        2.07558  -0.00001   0.00019  -0.00001   0.00018   2.07576
    D1        0.00000   0.00000   0.00000   0.00000   0.00000   0.00000
    D2        3.14159   0.00000   0.00000   0.00000   0.00000   3.14159
    D3        3.14159   0.00000   0.00000   0.00000   0.00000   3.14159
    D4        0.00000   0.00000   0.00000   0.00000   0.00000   0.00000
    D5        3.14159   0.00000   0.00000   0.00000   0.00000   3.14159
    D6        0.00000   0.00000   0.00000   0.00000   0.00000   0.00000
    D7        0.00000   0.00000   0.00000   0.00000   0.00000   0.00000
    D8        3.14159   0.00000   0.00000   0.00000   0.00000   3.14159
    D9        3.14159   0.00000   0.00000   0.00000   0.00000   3.14159
   D10        0.00000   0.00000   0.00000   0.00000   0.00000   0.00000
   D11        0.00000   0.00000   0.00000   0.00000   0.00000   0.00000
   D12        3.14159   0.00000   0.00000   0.00000   0.00000   3.14159
   D13        0.00000   0.00000   0.00000   0.00000   0.00000   0.00000
   D14        3.14159   0.00000   0.00000   0.00000   0.00000   3.14159
   D15        0.00000   0.00000   0.00000   0.00000   0.00000   0.00000
   D16        3.14159   0.00000   0.00000   0.00000   0.00000   3.14159
         Item               Value     Threshold  Converged?
 Maximum Force            0.000354     0.000450     YES
 RMS     Force            0.000076     0.000300     YES
 Maximum Displacement     0.000763     0.001800     YES
 RMS     Displacement     0.000264     0.001200     YES
 Predicted change in Energy=-4.347631D-07
 Optimization completed.
    -- Stationary point found.
                           ----------------------------
                           !   Optimized Parameters   !
                           ! (Angstroms and Degrees)  !
 --------------------------                            --------------------------
 ! Name  Definition              Value          Derivative Info.                !
 --------------------------------------------------------------------------------
 ! R1    R(1,2)                  1.0748         -DE/DX =    0.0                 !
 ! R2    R(2,4)                  1.378          -DE/DX =    0.0001              !
 ! R3    R(2,9)                  1.3542         -DE/DX =    0.0                 !
 ! R4    R(3,4)                  1.0739         -DE/DX =    0.0                 !
 ! R5    R(4,6)                  1.4085         -DE/DX =    0.0                 !
 ! R6    R(5,6)                  1.0758         -DE/DX =    0.0                 !
 ! R7    R(6,7)                  1.3316         -DE/DX =    0.0002              !
 ! R8    R(7,9)                  1.3458         -DE/DX =   -0.0004              !
 ! R9    R(8,9)                  1.0032         -DE/DX =    0.0001              !
 ! A1    A(1,2,4)              131.9663         -DE/DX =    0.0                 !
 ! A2    A(1,2,9)              121.8721         -DE/DX =    0.0001              !
 ! A3    A(4,2,9)              106.1615         -DE/DX =    0.0                 !
 ! A4    A(2,4,3)              127.189          -DE/DX =    0.0                 !
 ! A5    A(2,4,6)              104.568          -DE/DX =    0.0                 !
 ! A6    A(3,4,6)              128.2431         -DE/DX =    0.0001              !
 ! A7    A(4,6,5)              128.5486         -DE/DX =    0.0001              !
 ! A8    A(4,6,7)              111.9572         -DE/DX =    0.0                 !
 ! A9    A(5,6,7)              119.4942         -DE/DX =    0.0                 !
 ! A10   A(6,7,9)              104.0223         -DE/DX =    0.0                 !
 ! A11   A(2,9,7)              113.2909         -DE/DX =    0.0001              !
 ! A12   A(2,9,8)              127.7869         -DE/DX =   -0.0001              !
 ! A13   A(7,9,8)              118.9222         -DE/DX =    0.0                 !
 ! D1    D(1,2,4,3)              0.0            -DE/DX =    0.0                 !
 ! D2    D(1,2,4,6)            180.0            -DE/DX =    0.0                 !
 ! D3    D(9,2,4,3)            180.0            -DE/DX =    0.0                 !
 ! D4    D(9,2,4,6)              0.0            -DE/DX =    0.0                 !
 ! D5    D(1,2,9,7)            180.0            -DE/DX =    0.0                 !
 ! D6    D(1,2,9,8)              0.0            -DE/DX =    0.0                 !
 ! D7    D(4,2,9,7)              0.0            -DE/DX =    0.0                 !
 ! D8    D(4,2,9,8)            180.0            -DE/DX =    0.0                 !
 ! D9    D(2,4,6,5)            180.0            -DE/DX =    0.0                 !
 ! D10   D(2,4,6,7)              0.0            -DE/DX =    0.0                 !
 ! D11   D(3,4,6,5)              0.0            -DE/DX =    0.0                 !
 ! D12   D(3,4,6,7)            180.0            -DE/DX =    0.0                 !
 ! D13   D(4,6,7,9)              0.0            -DE/DX =    0.0                 !
 ! D14   D(5,6,7,9)            180.0            -DE/DX =    0.0                 !
 ! D15   D(6,7,9,2)              0.0            -DE/DX =    0.0                 !
 ! D16   D(6,7,9,8)            180.0            -DE/DX =    0.0                 !
 --------------------------------------------------------------------------------
 GradGradGradGradGradGradGradGradGradGradGradGradGradGradGradGradGradGrad

                          Input orientation:                          
 ---------------------------------------------------------------------
 Center     Atomic      Atomic             Coordinates (Angstroms)
 Number     Number       Type             X           Y           Z
 ---------------------------------------------------------------------
      1          1           0        2.097914    0.728258    0.000000
      2          6           0        1.109243    0.306748    0.000000
      3          1           0        1.262961   -1.888146    0.000000
      4          6           0        0.663436   -0.997142    0.000000
      5          1           0       -1.472865   -1.679990    0.000000
      6          6           0       -0.741122   -0.891339    0.000000
      7          7           0       -1.144854    0.377590    0.000000
      8          1           0       -0.047639    2.086279    0.000000
      9          7           0        0.000487    1.084186    0.000000
 ---------------------------------------------------------------------
                    Distance matrix (angstroms):
                    1          2          3          4          5
     1  H    0.000000
     2  C    1.074775   0.000000
     3  H    2.746400   2.200270   0.000000
     4  C    2.243821   1.377996   1.073927   0.000000
     5  H    4.306986   3.257977   2.743734   2.242781   0.000000
     6  C    3.268519   2.204374   2.238297   1.408538   1.075834
     7  N    3.261673   2.255210   3.306227   2.271520   2.083562
     8  H    2.539216   2.122524   4.184941   3.164350   4.026916
     9  N    2.127413   1.354161   3.229334   2.184360   3.132321
                    6          7          8          9
     6  C    0.000000
     7  N    1.331609   0.000000
     8  H    3.057307   2.030640   0.000000
     9  N    2.110138   1.345765   1.003248   0.000000
 Stoichiometry    C3H4N2
 Framework group  CS[SG(C3H4N2)]
 Deg. of freedom    15
 Full point group                 CS      NOp   2
 Largest Abelian subgroup         CS      NOp   2
 Largest concise Abelian subgroup C1      NOp   1
                         Standard orientation:                         
 ---------------------------------------------------------------------
 Center     Atomic      Atomic             Coordinates (Angstroms)
 Number     Number       Type             X           Y           Z
 ---------------------------------------------------------------------
      1          1           0        2.097413    0.728492    0.000000
      2          6           0        1.108724    0.307023    0.000000
      3          1           0        1.262351   -1.887877    0.000000
      4          6           0        0.662863   -0.996848    0.000000
      5          1           0       -1.473467   -1.679608    0.000000
      6          6           0       -0.741691   -0.890987    0.000000
      7          7           0       -1.145370    0.377959    0.000000
      8          1           0       -0.048084    2.086602    0.000000
      9          7           0        0.000000    1.084507    0.000000
 ---------------------------------------------------------------------
 Rotational constants (GHZ):      9.6789842      9.4704045      4.7867792

 **********************************************************************

            Population analysis using the SCF density.

 **********************************************************************

 Orbital symmetries:
       Occupied  (A') (A') (A') (A') (A') (A') (A') (A') (A') (A')
                 (A') (A') (A") (A') (A') (A') (A") (A")
       Virtual   (A") (A') (A') (A') (A") (A') (A') (A') (A') (A')
                 (A") (A') (A') (A") (A') (A') (A') (A") (A') (A')
                 (A') (A') (A") (A') (A") (A') (A') (A') (A") (A')
                 (A') (A") (A') (A") (A') (A") (A') (A") (A') (A')
                 (A') (A") (A') (A") (A') (A') (A') (A') (A") (A')
                 (A') (A") (A') (A") (A') (A") (A') (A') (A') (A')
                 (A') (A") (A') (A') (A") (A') (A") (A') (A') (A')
                 (A') (A") (A') (A") (A') (A") (A') (A') (A') (A")
                 (A") (A') (A') (A') (A") (A") (A') (A') (A") (A')
                 (A") (A') (A') (A") (A') (A') (A") (A") (A') (A")
                 (A') (A') (A") (A') (A") (A") (A') (A') (A') (A")
                 (A') (A') (A") (A') (A") (A') (A') (A") (A') (A')
                 (A") (A") (A') (A') (A") (A") (A') (A') (A") (A")
                 (A') (A") (A') (A') (A') (A') (A') (A") (A') (A")
                 (A') (A') (A') (A') (A") (A') (A') (A") (A') (A")
                 (A') (A") (A') (A') (A") (A") (A') (A") (A') (A')
                 (A') (A") (A') (A") (A') (A") (A') (A") (A') (A')
                 (A') (A') (A") (A") (A') (A') (A') (A') (A') (A')
                 (A') (A') (A') (A') (A') (A') (A') (A')
 The electronic state is 1-A'.
 Alpha  occ. eigenvalues --  -14.91392 -14.85649 -10.65706 -10.63307 -10.60891
 Alpha  occ. eigenvalues --   -1.18333  -0.93431  -0.89370  -0.70243  -0.68209
 Alpha  occ. eigenvalues --   -0.63007  -0.51557  -0.51105  -0.49878  -0.46916
 Alpha  occ. eigenvalues --   -0.36315  -0.30662  -0.29283
 Alpha virt. eigenvalues --    0.07067   0.07678   0.11201   0.12214   0.12468
 Alpha virt. eigenvalues --    0.14240   0.23092   0.24334   0.25913   0.26154
 Alpha virt. eigenvalues --    0.34192   0.36400   0.38667   0.39839   0.42150
 Alpha virt. eigenvalues --    0.44129   0.45017   0.45215   0.48915   0.50995
 Alpha virt. eigenvalues --    0.52917   0.53493   0.56889   0.57123   0.60092
 Alpha virt. eigenvalues --    0.61082   0.63074   0.63290   0.66032   0.66135
 Alpha virt. eigenvalues --    0.76415   0.76441   0.80822   0.81497   0.82950
 Alpha virt. eigenvalues --    0.85974   0.88031   0.92339   1.00529   1.03112
 Alpha virt. eigenvalues --    1.04831   1.05862   1.07973   1.09552   1.10068
 Alpha virt. eigenvalues --    1.15027   1.18691   1.24970   1.26096   1.29668
 Alpha virt. eigenvalues --    1.33734   1.33848   1.35947   1.37368   1.39134
 Alpha virt. eigenvalues --    1.42207   1.42954   1.45307   1.57268   1.59390
 Alpha virt. eigenvalues --    1.62342   1.63416   1.63838   1.72685   1.75619
 Alpha virt. eigenvalues --    1.83035   1.87420   1.89183   1.94561   2.06232
 Alpha virt. eigenvalues --    2.12119   2.15629   2.23006   2.25065   2.36438
 Alpha virt. eigenvalues --    2.44530   2.45901   2.48912   2.59058   2.60635
 Alpha virt. eigenvalues --    2.62503   2.65661   2.66509   2.73367   2.77391
 Alpha virt. eigenvalues --    2.88745   2.89115   2.92460   2.94433   2.97378
 Alpha virt. eigenvalues --    3.00000   3.00871   3.04530   3.07582   3.07614
 Alpha virt. eigenvalues --    3.10732   3.10850   3.15727   3.16994   3.18747
 Alpha virt. eigenvalues --    3.19434   3.19454   3.22514   3.29135   3.30315
 Alpha virt. eigenvalues --    3.31950   3.32418   3.41459   3.42508   3.43502
 Alpha virt. eigenvalues --    3.46876   3.49564   3.54377   3.61018   3.61921
 Alpha virt. eigenvalues --    3.63711   3.67859   3.69396   3.70875   3.73647
 Alpha virt. eigenvalues --    3.75413   3.82301   3.84901   3.86743   3.92315
 Alpha virt. eigenvalues --    3.94823   3.96003   3.96803   3.98784   4.06747
 Alpha virt. eigenvalues --    4.07441   4.08511   4.11597   4.15361   4.17690
 Alpha virt. eigenvalues --    4.24278   4.29551   4.35575   4.35736   4.43122
 Alpha virt. eigenvalues --    4.44599   4.48572   4.52996   4.55603   4.58429
 Alpha virt. eigenvalues --    4.60778   4.62968   4.71856   4.72667   4.80714
 Alpha virt. eigenvalues --    4.82170   4.83138   4.83902   4.92574   4.96540
 Alpha virt. eigenvalues --    5.02180   5.02851   5.05907   5.06138   5.15081
 Alpha virt. eigenvalues --    5.15461   5.16586   5.20951   5.31027   5.40024
 Alpha virt. eigenvalues --    5.41186   5.46396   5.50484   5.50819   5.70056
 Alpha virt. eigenvalues --    5.72854   5.74622   5.82809   5.95385   5.97255
 Alpha virt. eigenvalues --    6.05658   6.14568   6.27493   6.40281   6.49334
 Alpha virt. eigenvalues --    6.72145   6.98705   7.05899   9.43418  11.69246
 Alpha virt. eigenvalues --   12.51978  13.44546  14.11815
          Condensed to atoms (all electrons):
              1          2          3          4          5          6
     1  H    0.492991   0.410575  -0.000735  -0.023161  -0.000166   0.003421
     2  C    0.410575   4.984385  -0.042013   0.514514   0.010515  -0.079161
     3  H   -0.000735  -0.042013   0.511619   0.406357  -0.002020  -0.030230
     4  C   -0.023161   0.514514   0.406357   5.017923  -0.047646   0.514092
     5  H   -0.000166   0.010515  -0.002020  -0.047646   0.506181   0.423055
     6  C    0.003421  -0.079161  -0.030230   0.514092   0.423055   4.798590
     7  N    0.004521  -0.131241   0.007624  -0.071766  -0.030450   0.621936
     8  H   -0.001755  -0.032921  -0.000323   0.006271  -0.000380   0.005276
     9  N   -0.028663   0.476747   0.003324  -0.110067   0.004021  -0.147939
              7          8          9
     1  H    0.004521  -0.001755  -0.028663
     2  C   -0.131241  -0.032921   0.476747
     3  H    0.007624  -0.000323   0.003324
     4  C   -0.071766   0.006271  -0.110067
     5  H   -0.030450  -0.000380   0.004021
     6  C    0.621936   0.005276  -0.147939
     7  N    6.463522  -0.029597   0.351326
     8  H   -0.029597   0.471582   0.399861
     9  N    0.351326   0.399861   6.046807
 Mulliken atomic charges:
              1
     1  H    0.142972
     2  C   -0.111400
     3  H    0.146398
     4  C   -0.206516
     5  H    0.136891
     6  C   -0.109040
     7  N   -0.185874
     8  H    0.181986
     9  N    0.004583
 Sum of Mulliken atomic charges =   0.00000
 Mulliken charges with hydrogens summed into heavy atoms:
              1
     2  C    0.031572
     4  C   -0.060118
     6  C    0.027851
     7  N   -0.185874
     9  N    0.186569
 Sum of Mulliken charges with hydrogens summed into heavy atoms =   0.00000
 Electronic spatial extent (au):  <R**2>=            285.5293
 Charge=              0.0000 electrons
 Dipole moment (field-independent basis, Debye):
    X=              2.1698    Y=              0.8330    Z=              0.0000  Tot=              2.3243
 Quadrupole moment (field-independent basis, Debye-Ang):
   XX=            -29.7840   YY=            -22.2013   ZZ=            -32.0745
   XY=              2.6285   XZ=              0.0000   YZ=              0.0000
 Traceless Quadrupole moment (field-independent basis, Debye-Ang):
   XX=             -1.7641   YY=              5.8186   ZZ=             -4.0546
   XY=              2.6285   XZ=              0.0000   YZ=              0.0000
 Octapole moment (field-independent basis, Debye-Ang**2):
  XXX=              9.5291  YYY=             12.1649  ZZZ=              0.0000  XYY=              0.2366
  XXY=             -2.2816  XXZ=              0.0000  XZZ=             -1.0809  YZZ=              2.3679
  YYZ=              0.0000  XYZ=              0.0000
 Hexadecapole moment (field-independent basis, Debye-Ang**3):
 XXXX=           -175.4932 YYYY=           -133.6139 ZZZZ=            -34.5745 XXXY=             10.9331
 XXXZ=              0.0000 YYYX=             -1.2897 YYYZ=              0.0000 ZZZX=              0.0000
 ZZZY=              0.0000 XXYY=            -51.8735 XXZZ=            -38.8504 YYZZ=            -37.3409
 XXYZ=              0.0000 YYXZ=              0.0000 ZZXY=              0.0172
 N-N= 1.633435392289D+02 E-N=-8.528542127849D+02  KE= 2.247491184751D+02
 Symmetry A'   KE= 2.167120397375D+02
 Symmetry A"   KE= 8.037078737626D+00
 1\1\GINC-N262\FOpt\RB2PLYP-FC\CC-pVTZ\C3H4N2\RDJ3\06-Mar-2013\0\\#B2PL
 YP/cc-pVTZ opt freq\\1hpyraz 1H-Pyrazole casno=288131 state=1 config=1
  method=56 basis=6\\0,1\H,2.0979140218,0.7282576111,0.\C,1.1092431717,
 0.3067478284,0.\H,1.2629613404,-1.8881461398,0.\C,0.6634363328,-0.9971
 421416,0.\H,-1.4728654679,-1.6799903612,0.\C,-0.7411219953,-0.89133906
 77,0.\N,-1.1448541461,0.3775904328,0.\H,-0.0476388788,2.0862788833,0.\
 N,0.0004866215,1.0841859546,0.\\Version=EM64L-G09RevB.01\State=1-A'\HF
 =-225.8059771\MP2=-226.0975689\RMSD=5.863e-09\RMSF=1.581e-04\Dipole=0.
 8191201,0.3527537,0.\PG=CS [SG(C3H4N2)]\\@


 ... THE UNIVERSE IS NOT ONLY QUEERER THAN WE SUPPOSE,
 BUT QUEERER THAN WE CAN SUPPOSE ... 

                                   -- J. B. S. HALDANE
 Job cpu time:  0 days  0 hours 52 minutes 15.1 seconds.
 File lengths (MBytes):  RWF=     27 Int=      0 D2E=      0 Chk=      5 Scr=      1
 Normal termination of Gaussian 09 at Wed Mar  6 12:19:37 2013.
 Link1:  Proceeding to internal job step number  2.
 ----------------------------------------------------------------------
 #N Geom=AllCheck Guess=TCheck SCRF=Check GenChk RB2PLYP(FC)/CC-pVTZ Fr
 eq
 ----------------------------------------------------------------------
 1/10=4,29=7,30=1,38=1,40=1/1,3;
 2/12=2,40=1/2;
 3/5=16,6=1,11=1,14=-4,16=1,25=1,30=1,70=2,71=2,74=-47,116=1/1,2,3;
 4/5=101/1;
 5/5=2,98=1/2;
 8/6=3,8=1,10=1,19=11,30=-1/1;
 9/15=3,16=-3/6;
 11/6=1,8=1,15=11,17=12,24=-1,27=1,28=-2,29=300,32=6,42=3/1,2,10;
 10/6=2,21=1/2;
 8/6=4,8=1,10=1,19=11,30=-1/11,4;
 10/5=1,20=4/2;
 11/12=2,14=11,16=1,17=2,28=-2,42=3/2,10,12;
 6/7=2,8=2,9=2,10=2/1;
 7/8=1,10=1,12=2,25=1,44=2/1,2,3,16;
 1/10=4,30=1/3;
 99//99;
 -------------------------------------------------------------------
 1hpyraz 1H-Pyrazole casno=288131 state=1 config=1 method=56 basis=6
 -------------------------------------------------------------------
 Redundant internal coordinates taken from checkpoint file:
 /tmp/rdj3/g09-12728/Gau-13359.chk
 Charge =  0 Multiplicity = 1
 H,0,2.0979140218,0.7282576111,0.
 C,0,1.1092431717,0.3067478284,0.
 H,0,1.2629613404,-1.8881461398,0.
 C,0,0.6634363328,-0.9971421416,0.
 H,0,-1.4728654679,-1.6799903612,0.
 C,0,-0.7411219953,-0.8913390677,0.
 N,0,-1.1448541461,0.3775904328,0.
 H,0,-0.0476388788,2.0862788833,0.
 N,0,0.0004866215,1.0841859546,0.
 Recover connectivity data from disk.

 GradGradGradGradGradGradGradGradGradGradGradGradGradGradGradGradGradGrad
 Berny optimization.
 Initialization pass.
                           ----------------------------
                           !    Initial Parameters    !
                           ! (Angstroms and Degrees)  !
 --------------------------                            --------------------------
 ! Name  Definition              Value          Derivative Info.                !
 --------------------------------------------------------------------------------
 ! R1    R(1,2)                  1.0748         calculate D2E/DX2 analytically  !
 ! R2    R(2,4)                  1.378          calculate D2E/DX2 analytically  !
 ! R3    R(2,9)                  1.3542         calculate D2E/DX2 analytically  !
 ! R4    R(3,4)                  1.0739         calculate D2E/DX2 analytically  !
 ! R5    R(4,6)                  1.4085         calculate D2E/DX2 analytically  !
 ! R6    R(5,6)                  1.0758         calculate D2E/DX2 analytically  !
 ! R7    R(6,7)                  1.3316         calculate D2E/DX2 analytically  !
 ! R8    R(7,9)                  1.3458         calculate D2E/DX2 analytically  !
 ! R9    R(8,9)                  1.0032         calculate D2E/DX2 analytically  !
 ! A1    A(1,2,4)              131.9663         calculate D2E/DX2 analytically  !
 ! A2    A(1,2,9)              121.8721         calculate D2E/DX2 analytically  !
 ! A3    A(4,2,9)              106.1615         calculate D2E/DX2 analytically  !
[...]
     9   7     0.07  -0.03   0.00     0.10   0.06   0.00    -0.07   0.05   0.00
                    16                     17                     18
                    A'                     A'                     A'
 Frequencies --  1483.8467              1562.7575              3263.9267
 Red. masses --     2.6224                 2.8304                 1.0931
 Frc consts  --     3.4020                 4.0727                 6.8609
 IR Inten    --     5.7105                 5.5206                 2.9175
  Atom  AN      X      Y      Z        X      Y      Z        X      Y      Z
     1   1     0.04  -0.38   0.00     0.31  -0.30   0.00    -0.14  -0.06   0.00
     2   6    -0.17   0.17   0.00     0.05   0.23   0.00     0.01   0.00   0.00
     3   1    -0.17  -0.26   0.00     0.30  -0.01   0.00     0.20  -0.30   0.00
     4   6     0.12  -0.05   0.00    -0.05  -0.20   0.00    -0.01   0.03   0.00
     5   1     0.08  -0.14   0.00     0.36  -0.25   0.00     0.62   0.67   0.00
     6   6    -0.08   0.03   0.00    -0.11   0.17   0.00    -0.06  -0.06   0.00
     7   7    -0.03   0.02   0.00     0.07  -0.10   0.00     0.00   0.00   0.00
     8   1    -0.75  -0.16   0.00     0.61   0.00   0.00     0.00   0.01   0.00
     9   7     0.20  -0.09   0.00    -0.09  -0.03   0.00     0.00   0.00   0.00
                    19                     20                     21
                    A'                     A'                     A'
 Frequencies --  3276.2040              3294.7732              3685.8478
 Red. masses --     1.0939                 1.1066                 1.0821
 Frc consts  --     6.9180                 7.0779                 8.6612
 IR Inten    --     1.3629                 0.4904                87.8018
  Atom  AN      X      Y      Z        X      Y      Z        X      Y      Z
     1   1     0.76   0.32   0.00    -0.49  -0.21   0.00     0.01   0.00   0.00
     2   6    -0.07  -0.03   0.00     0.05   0.02   0.00     0.00   0.00   0.00
     3   1    -0.26   0.38   0.00    -0.45   0.67   0.00     0.00   0.00   0.00
     4   6     0.03  -0.03   0.00     0.04  -0.06   0.00     0.00   0.00   0.00
     5   1     0.22   0.23   0.00     0.16   0.17   0.00     0.00   0.00   0.00
     6   6    -0.02  -0.02   0.00    -0.02  -0.01   0.00     0.00   0.00   0.00
     7   7     0.00   0.00   0.00     0.00   0.00   0.00     0.00   0.00   0.00
     8   1     0.00  -0.01   0.00     0.00   0.01   0.00    -0.05   1.00   0.00
     9   7     0.00   0.00   0.00     0.00   0.00   0.00     0.01  -0.08   0.00

 -------------------
 - Thermochemistry -
 -------------------
 Temperature   298.150 Kelvin.  Pressure   1.00000 Atm.
 Atom     1 has atomic number  1 and mass   1.00783
 Atom     2 has atomic number  6 and mass  12.00000
 Atom     3 has atomic number  1 and mass   1.00783
 Atom     4 has atomic number  6 and mass  12.00000
 Atom     5 has atomic number  1 and mass   1.00783
 Atom     6 has atomic number  6 and mass  12.00000
 Atom     7 has atomic number  7 and mass  14.00307
 Atom     8 has atomic number  1 and mass   1.00783
 Atom     9 has atomic number  7 and mass  14.00307
 Molecular mass:    68.03745 amu.
 Principal axes and moments of inertia in atomic units:
                           1         2         3
     Eigenvalues --   186.45977 190.56643 377.02621
           X            0.91474   0.40404   0.00000
           Y           -0.40404   0.91474   0.00000
           Z            0.00000   0.00000   1.00000
 This molecule is an asymmetric top.
 Rotational symmetry number  1.
 Rotational temperatures (Kelvin)      0.46452     0.45451     0.22973
 Rotational constants (GHZ):           9.67898     9.47040     4.78678
 Zero-point vibrational energy     187471.7 (Joules/Mol)
                                   44.80680 (Kcal/Mol)
 Warning -- explicit consideration of   1 degrees of freedom as
           vibrations may cause significant error
 Vibrational temperatures:    761.41   922.82  1000.99  1093.66  1221.82
          (Kelvin)           1299.08  1327.94  1353.19  1508.25  1526.51
                             1653.01  1696.10  1842.87  1990.79  2060.09
                             2134.92  2248.46  4696.06  4713.72  4740.44
                             5303.11
 
 Zero-point correction=                           0.071404 (Hartree/Particle)
 Thermal correction to Energy=                    0.075132
 Thermal correction to Enthalpy=                  0.076077
 Thermal correction to Gibbs Free Energy=         0.045149
 Sum of electronic and zero-point Energies=           -226.026165
 Sum of electronic and thermal Energies=              -226.022437
 Sum of electronic and thermal Enthalpies=            -226.021492
 Sum of electronic and thermal Free Energies=         -226.052420
 
                     E (Thermal)             CV                S
                      KCal/Mol        Cal/Mol-Kelvin    Cal/Mol-Kelvin
 Total                   47.146             13.240             65.092
 Electronic               0.000              0.000              0.000
 Translational            0.889              2.981             38.570
 Rotational               0.889              2.981             24.108
 Vibrational             45.369              7.279              2.414
 Vibration     1          0.884              1.185              0.589
                       Q            Log10(Q)             Ln(Q)
 Total Bot       0.170952D-20        -20.767125        -47.818072
 Total V=0       0.119248D+13         12.076451         27.807057
 Vib (Bot)       0.187047D-32        -32.728050        -75.359120
 Vib (Bot)    1  0.302427D+00         -0.519379         -1.195915
 Vib (V=0)       0.130475D+01          0.115526          0.266009
 Vib (V=0)    1  0.108435D+01          0.035169          0.080979
 Electronic      0.100000D+01          0.000000          0.000000
 Translational   0.220586D+08          7.343577         16.909211
 Rotational      0.414332D+05          4.617348         10.631837
 ***** Axes restored to original set *****
 -------------------------------------------------------------------
 Center     Atomic                   Forces (Hartrees/Bohr)
 Number     Number              X              Y              Z
 -------------------------------------------------------------------
      1        1           0.000049974   -0.000049868    0.000000000
      2        6           0.000070911    0.000221400    0.000000000
      3        1           0.000045006   -0.000015727    0.000000000
      4        6          -0.000099710   -0.000065645    0.000000000
      5        1          -0.000043668    0.000014817    0.000000000
      6        6           0.000110841   -0.000195609    0.000000000
      7        7           0.000233576    0.000407062    0.000000000
      8        1           0.000047702    0.000067527    0.000000000
      9        7          -0.000414631   -0.000383958    0.000000000
 -------------------------------------------------------------------
 Cartesian Forces:  Max     0.000414631 RMS     0.000158075

 GradGradGradGradGradGradGradGradGradGradGradGradGradGradGradGradGradGrad
 Berny optimization.
 Internal  Forces:  Max     0.000353785 RMS     0.000075646
 Search for a local minimum.
 Step number   1 out of a maximum of    2
 All quantities printed in internal units (Hartrees-Bohrs-Radians)
 Second derivative matrix not updated -- analytic derivatives used.
 ITU=  0
     Eigenvalues ---    0.00731   0.01167   0.01607   0.02770   0.05929
     Eigenvalues ---    0.06233   0.09326   0.10404   0.10943   0.11735
     Eigenvalues ---    0.22095   0.26342   0.33846   0.36980   0.37757
     Eigenvalues ---    0.37965   0.39361   0.42650   0.47912   0.48838
     Eigenvalues ---    0.55686
 Angle between quadratic step and forces=  28.22 degrees.
 Linear search not attempted -- first point.
 Iteration  1 RMS(Cart)=  0.00025200 RMS(Int)=  0.00000007
 Iteration  2 RMS(Cart)=  0.00000008 RMS(Int)=  0.00000001
 ClnCor:  largest displacement from symmetrization is 7.02D-12 for atom     9.
 Variable       Old X    -DE/DX   Delta X   Delta X   Delta X     New X
                                 (Linear)    (Quad)   (Total)
    R1        2.03103   0.00003   0.00000   0.00004   0.00004   2.03107
    R2        2.60403   0.00009   0.00000   0.00035   0.00035   2.60438
    R3        2.55899   0.00002   0.00000   0.00002   0.00002   2.55902
    R4        2.02943   0.00004   0.00000   0.00011   0.00011   2.02954
    R5        2.66175  -0.00003   0.00000  -0.00017  -0.00017   2.66158
    R6        2.03303   0.00002   0.00000   0.00003   0.00003   2.03306
    R7        2.51638   0.00019   0.00000   0.00059   0.00059   2.51696
    R8        2.54313  -0.00035   0.00000  -0.00117  -0.00117   2.54196
    R9        1.89586   0.00006   0.00000   0.00017   0.00017   1.89603
    A1        2.30325  -0.00004   0.00000  -0.00040  -0.00040   2.30285
    A2        2.12707   0.00008   0.00000   0.00072   0.00072   2.12779
    A3        1.85287  -0.00004   0.00000  -0.00032  -0.00032   1.85254
    A4        2.21987  -0.00002   0.00000  -0.00041  -0.00041   2.21946
    A5        1.82506  -0.00004   0.00000   0.00006   0.00006   1.82512
    A6        2.23826   0.00005   0.00000   0.00034   0.00034   2.23861
    A7        2.24360   0.00006   0.00000   0.00057   0.00057   2.24416
    A8        1.95402  -0.00004   0.00000  -0.00026  -0.00026   1.95376
    A9        2.08557  -0.00002   0.00000  -0.00031  -0.00031   2.08526
   A10        1.81553   0.00001   0.00000   0.00008   0.00008   1.81561
   A11        1.97730   0.00011   0.00000   0.00044   0.00044   1.97774
   A12        2.23030  -0.00010   0.00000  -0.00076  -0.00076   2.22954
   A13        2.07558  -0.00001   0.00000   0.00032   0.00032   2.07591
    D1        0.00000   0.00000   0.00000   0.00000   0.00000   0.00000
    D2        3.14159   0.00000   0.00000   0.00000   0.00000   3.14159
    D3        3.14159   0.00000   0.00000   0.00000   0.00000   3.14159
    D4        0.00000   0.00000   0.00000   0.00000   0.00000   0.00000
    D5        3.14159   0.00000   0.00000   0.00000   0.00000   3.14159
    D6        0.00000   0.00000   0.00000   0.00000   0.00000   0.00000
    D7        0.00000   0.00000   0.00000   0.00000   0.00000   0.00000
    D8        3.14159   0.00000   0.00000   0.00000   0.00000   3.14159
    D9        3.14159   0.00000   0.00000   0.00000   0.00000   3.14159
   D10        0.00000   0.00000   0.00000   0.00000   0.00000   0.00000
   D11        0.00000   0.00000   0.00000   0.00000   0.00000   0.00000
   D12        3.14159   0.00000   0.00000   0.00000   0.00000   3.14159
   D13        0.00000   0.00000   0.00000   0.00000   0.00000   0.00000
   D14        3.14159   0.00000   0.00000   0.00000   0.00000   3.14159
   D15        0.00000   0.00000   0.00000   0.00000   0.00000   0.00000
   D16        3.14159   0.00000   0.00000   0.00000   0.00000   3.14159
         Item               Value     Threshold  Converged?
 Maximum Force            0.000354     0.000450     YES
 RMS     Force            0.000076     0.000300     YES
 Maximum Displacement     0.000733     0.001800     YES
 RMS     Displacement     0.000252     0.001200     YES
 Predicted change in Energy=-4.282979D-07
 Optimization completed.
    -- Stationary point found.
                           ----------------------------
                           !   Optimized Parameters   !
                           ! (Angstroms and Degrees)  !
 --------------------------                            --------------------------
 ! Name  Definition              Value          Derivative Info.                !
 --------------------------------------------------------------------------------
 ! R1    R(1,2)                  1.0748         -DE/DX =    0.0                 !
 ! R2    R(2,4)                  1.378          -DE/DX =    0.0001              !
 ! R3    R(2,9)                  1.3542         -DE/DX =    0.0                 !
 ! R4    R(3,4)                  1.0739         -DE/DX =    0.0                 !
 ! R5    R(4,6)                  1.4085         -DE/DX =    0.0                 !
 ! R6    R(5,6)                  1.0758         -DE/DX =    0.0                 !
 ! R7    R(6,7)                  1.3316         -DE/DX =    0.0002              !
 ! R8    R(7,9)                  1.3458         -DE/DX =   -0.0004              !
 ! R9    R(8,9)                  1.0032         -DE/DX =    0.0001              !
 ! A1    A(1,2,4)              131.9663         -DE/DX =    0.0                 !
 ! A2    A(1,2,9)              121.8721         -DE/DX =    0.0001              !
 ! A3    A(4,2,9)              106.1615         -DE/DX =    0.0                 !
 ! A4    A(2,4,3)              127.189          -DE/DX =    0.0                 !
 ! A5    A(2,4,6)              104.568          -DE/DX =    0.0                 !
 ! A6    A(3,4,6)              128.2431         -DE/DX =    0.0001              !
 ! A7    A(4,6,5)              128.5486         -DE/DX =    0.0001              !
 ! A8    A(4,6,7)              111.9572         -DE/DX =    0.0                 !
 ! A9    A(5,6,7)              119.4942         -DE/DX =    0.0                 !
 ! A10   A(6,7,9)              104.0223         -DE/DX =    0.0                 !
 ! A11   A(2,9,7)              113.2909         -DE/DX =    0.0001              !
 ! A12   A(2,9,8)              127.7869         -DE/DX =   -0.0001              !
 ! A13   A(7,9,8)              118.9222         -DE/DX =    0.0                 !
 ! D1    D(1,2,4,3)              0.0            -DE/DX =    0.0                 !
 ! D2    D(1,2,4,6)            180.0            -DE/DX =    0.0                 !
 ! D3    D(9,2,4,3)            180.0            -DE/DX =    0.0                 !
 ! D4    D(9,2,4,6)              0.0            -DE/DX =    0.0                 !
 ! D5    D(1,2,9,7)            180.0            -DE/DX =    0.0                 !
 ! D6    D(1,2,9,8)              0.0            -DE/DX =    0.0                 !
 ! D7    D(4,2,9,7)              0.0            -DE/DX =    0.0                 !
 ! D8    D(4,2,9,8)            180.0            -DE/DX =    0.0                 !
 ! D9    D(2,4,6,5)            180.0            -DE/DX =    0.0                 !
 ! D10   D(2,4,6,7)              0.0            -DE/DX =    0.0                 !
 ! D11   D(3,4,6,5)              0.0            -DE/DX =    0.0                 !
 ! D12   D(3,4,6,7)            180.0            -DE/DX =    0.0                 !
 ! D13   D(4,6,7,9)              0.0            -DE/DX =    0.0                 !
 ! D14   D(5,6,7,9)            180.0            -DE/DX =    0.0                 !
 ! D15   D(6,7,9,2)              0.0            -DE/DX =    0.0                 !
 ! D16   D(6,7,9,8)            180.0            -DE/DX =    0.0                 !
 --------------------------------------------------------------------------------
 GradGradGradGradGradGradGradGradGradGradGradGradGradGradGradGradGradGrad

 1\1\GINC-N262\Freq\RB2PLYP-FC\CC-pVTZ\C3H4N2\RDJ3\06-Mar-2013\0\\#N Ge
 om=AllCheck Guess=TCheck SCRF=Check GenChk RB2PLYP(FC)/CC-pVTZ Freq\\1
 hpyraz 1H-Pyrazole casno=288131 state=1 config=1 method=56 basis=6\\0,
 1\H,2.0979140218,0.7282576111,0.\C,1.1092431717,0.3067478284,0.\H,1.26
 29613404,-1.8881461398,0.\C,0.6634363328,-0.9971421416,0.\H,-1.4728654
 679,-1.6799903612,0.\C,-0.7411219953,-0.8913390677,0.\N,-1.1448541461,
 0.3775904328,0.\H,-0.0476388788,2.0862788833,0.\N,0.0004866215,1.08418
 59546,0.\\Version=EM64L-G09RevB.01\State=1-A'\HF=-225.8059771\MP2=-226
 .0975689\RMSD=1.932e-09\RMSF=1.581e-04\ZeroPoint=0.0714042\Thermal=0.0
 751323\Dipole=0.8191219,0.352755,0.\DipoleDeriv=0.0038853,-0.0383414,0
 .,-0.0485325,0.0631342,0.,0.,0.,0.1847103,-0.026804,-0.1649542,0.,-0.0
 212267,0.3702812,0.,0.,0.,-0.1015833,0.0463675,0.0678222,0.,0.061962,0
 .0151966,0.,0.,0.,0.1715419,-0.1280494,-0.1337116,0.,-0.0663138,-0.137
 4087,0.,0.,0.,-0.2298389,0.0176539,-0.0737208,0.,-0.050329,0.0206817,0
 .,0.,0.,0.1483168,0.3370852,0.0791756,0.,0.0088624,0.040148,0.,0.,0.,-
 0.0770385,-0.4763118,0.2905381,0.,0.198685,-0.0763997,0.,0.,0.,-0.2359
 236,0.1665053,-0.0089299,0.,-0.0262196,0.2684028,0.,0.,0.,0.2956189,0.
 0596678,-0.0178779,0.,-0.0568879,-0.5640362,0.,0.,0.,-0.1558036\Polar=
 50.9706457,1.783851,51.829759,0.,0.,26.5018301\PG=CS [SG(C3H4N2)]\NIma
 g=0\\0.32838382,0.11688042,0.10074371,0.,0.,0.02068808,-0.31173805,-0.
 11740905,0.,0.82130322,-0.10813689,-0.11084193,0.,0.12377387,0.6712444
 1,0.,0.,-0.02566698,0.,0.,0.12031275,-0.00021130,0.00091052,0.,0.01204
 747,-0.01154980,0.,0.15001033,-0.00045818,0.00035292,0.,0.01805498,-0.
 00979295,0.,-0.15301020,0.27662214,0.,0.,-0.00275594,0.,0.,-0.00195380
 ,0.,0.,0.02205678,0.00242311,-0.02259844,0.,-0.13312825,-0.06598784,0.
 ,-0.15284218,0.14048639,0.,0.62630452,0.00206967,0.00382732,0.,-0.0896
 6660,-0.34240553,0.,0.14309903,-0.26886430,0.,-0.13080430,0.81569563,0
 .,0.,0.00117542,0.,0.,-0.06386373,0.,0.,-0.02618393,0.,0.,0.11694558,0
 .00021836,-0.00136683,0.,-0.00583710,0.00112236,0.,0.00033838,0.000592
 26,0.,-0.00661377,-0.02046213,0.,0.20227309,-0.00005812,0.00071568,0.,
 0.00306385,-0.00060665,0.,-0.00079040,-0.00027662,0.,0.00544315,0.0087
 2245,0.,0.15946663,0.22759623,0.,0.,0.00086160,0.,0.,0.00453228,0.,0.,
 -0.00192488,0.,0.,0.00103179,0.,0.,0.02481421,-0.00035373,-0.00249239,
 0.,-0.03809909,-0.08366322,0.,-0.00157465,-0.00321008,0.,-0.29449681,0
 .02160107,0.,-0.20439694,-0.14519213,0.,0.70320517,0.00134056,-0.00631
 994,0.,-0.01737937,0.01139095,0.,0.02444259,0.00601174,0.,-0.00957903,
 -0.11278139,0.,-0.15322732,-0.21045187,0.,0.14086963,0.76696850,0.,0.,
 0.00489104,0.,0.,0.01093764,0.,0.,-0.00283644,0.,0.,-0.06599105,0.,0.,
 -0.03103087,0.,0.,0.14017781,-0.00168863,0.00424369,0.,-0.09490153,0.0
 1038301,0.,-0.00671721,-0.00231174,0.,-0.03438615,0.01818881,0.,0.0115
 3940,-0.02172221,0.,-0.13086655,0.06108328,0.,0.47928206,0.00248921,-0
 .00333886,0.,-0.01736602,-0.02473207,0.,0.00263922,0.00081035,0.,0.085
 12264,-0.01830437,0.,0.00834554,-0.01876114,0.,0.09998478,-0.33473081,
 0.,-0.03991587,0.55022770,0.,0.,0.00649051,0.,0.,0.01782426,0.,0.,0.00
 648342,0.,0.,0.02039343,0.,0.,-0.00749326,0.,0.,-0.07284658,0.,0.,0.10
 547841,-0.00004927,-0.00086356,0.,0.01066219,0.02473837,0.,0.00096904,
 0.00103068,0.,-0.00615361,0.00435997,0.,0.00089841,-0.00155561,0.,-0.0
 0818288,-0.00539982,0.,0.00773292,-0.03431842,0.,0.06636723,0.00027791
 ,0.00001697,0.,-0.00562383,-0.00588363,0.,-0.00027397,-0.00003833,0.,0
 .00340281,0.00132810,0.,0.00040553,-0.00031612,0.,-0.00520761,0.001608
 07,0.,0.00201586,-0.01268583,0.,-0.02072730,0.48168357,0.,0.,-0.001642
 91,0.,0.,-0.00771512,0.,0.,0.00222784,0.,0.,0.00308875,0.,0.,0.0022215
 5,0.,0.,0.00429246,0.,0.,-0.01236698,0.,0.,0.01234546,-0.01698431,0.02
 269565,0.,-0.26030886,0.10932013,0.,-0.00201987,-0.00117410,0.,-0.0011
 0687,0.05161449,0.,0.00158017,0.00134485,0.,-0.02523451,-0.04215052,0.
 ,-0.22999431,-0.10698107,0.,-0.07224403,0.02573062,0.,0.60631259,-0.01
 440456,0.01484412,0.,0.10255218,-0.18837259,0.,-0.00546698,-0.00482494
 ,0.,-0.00548537,-0.08721790,0.,0.00512397,-0.00662196,0.,-0.02269004,-
 0.12169524,0.,-0.03196482,-0.13848496,0.,0.03273570,-0.46571279,0.,-0.
 06040006,0.99808627,0.,0.,-0.00404082,0.,0.,-0.05440732,0.,0.,0.004886
 94,0.,0.,0.01340374,0.,0.,0.00698758,0.,0.,0.01240599,0.,0.,-0.0639632
 1,0.,0.,-0.00245107,0.,0.,0.08717816\\-0.00004997,0.00004987,0.,-0.000
 07091,-0.00022140,0.,-0.00004501,0.00001573,0.,0.00009971,0.00006565,0
 .,0.00004367,-0.00001482,0.,-0.00011084,0.00019561,0.,-0.00023358,-0.0
 0040706,0.,-0.00004770,-0.00006753,0.,0.00041463,0.00038396,0.\\\@


 YOU SHOULDN'T LET PEOPLE DRIVE YOU CRAZY
 WHEN YOU KNOW IT'S WITHIN WALKING DISTANCE.
 Job cpu time:  0 days  3 hours 13 minutes 15.8 seconds.
 File lengths (MBytes):  RWF=   6891 Int=      0 D2E=      0 Chk=      5 Scr=      1
 Normal termination of Gaussian 09 at Wed Mar  6 12:43:50 2013.
