 host = p2223 (kernel = 2.6.18-128.el5)
 Running revision A02

 Current disk usage on p2223

 START DATE Sat Jul 31 15:15:25 EDT 2010
 GAUSS_LFLAGS = '-nodelist "p2223"'
 Entering Gaussian System, Link 0=/usr/local/gaussian09-A02-64/g09/g09
 Initial command:
 /usr/local/gaussian09-A02-64/g09/l1.exe /gaussian/Gau-32605.inp -scrdir=/gaussian/
 Entering Link 1 = /usr/local/gaussian09-A02-64/g09/l1.exe PID=     32619.
  
 Copyright (c) 1988,1990,1992,1993,1995,1998,2003,2009, Gaussian, Inc.
                  All Rights Reserved.
  
 This is part of the Gaussian(R) 09 program.  It is based on
 the Gaussian(R) 03 system (copyright 2003, Gaussian, Inc.),
 the Gaussian(R) 98 system (copyright 1998, Gaussian, Inc.),
 the Gaussian(R) 94 system (copyright 1995, Gaussian, Inc.),
 the Gaussian 92(TM) system (copyright 1992, Gaussian, Inc.),
 the Gaussian 90(TM) system (copyright 1990, Gaussian, Inc.),
 the Gaussian 88(TM) system (copyright 1988, Gaussian, Inc.),
 the Gaussian 86(TM) system (copyright 1986, Carnegie Mellon
 University), and the Gaussian 82(TM) system (copyright 1983,
 Carnegie Mellon University). Gaussian is a federally registered
 trademark of Gaussian, Inc.
  
 This software contains proprietary and confidential information,
 including trade secrets, belonging to Gaussian, Inc.
  
 This software is provided under written license and may be
 used, copied, transmitted, or stored only in accord with that
 written license.
  
 The following legend is applicable only to US Government
 contracts under FAR:
  
                    RESTRICTED RIGHTS LEGEND
  
 Use, reproduction and disclosure by the US Government is
 subject to restrictions as set forth in subparagraphs (a)
 and (c) of the Commercial Computer Software - Restricted
 Rights clause in FAR 52.227-19.
  
 Gaussian, Inc.
 340 Quinnipiac St., Bldg. 40, Wallingford CT 06492
  
  
 ---------------------------------------------------------------
 Warning -- This program may not be used in any manner that
 competes with the business of Gaussian, Inc. or will provide
 assistance to any competitor of Gaussian, Inc.  The licensee
 of this program is prohibited from giving any competitor of
 Gaussian, Inc. access to this program.  By using this program,
 the user acknowledges that Gaussian, Inc. is engaged in the
 business of creating and licensing software in the field of
 computational chemistry and represents and warrants to the
 licensee that it is not a competitor of Gaussian, Inc. and that
 it will not use this program in any manner prohibited above.
 ---------------------------------------------------------------
  

 Cite this work as:
 Gaussian 09, Revision A.02,
 M. J. Frisch, G. W. Trucks, H. B. Schlegel, G. E. Scuseria, 
 M. A. Robb, J. R. Cheeseman, G. Scalmani, V. Barone, B. Mennucci, 
 G. A. Petersson, H. Nakatsuji, M. Caricato, X. Li, H. P. Hratchian, 
 A. F. Izmaylov, J. Bloino, G. Zheng, J. L. Sonnenberg, M. Hada, 
 M. Ehara, K. Toyota, R. Fukuda, J. Hasegawa, M. Ishida, T. Nakajima, 
 Y. Honda, O. Kitao, H. Nakai, T. Vreven, J. A. Montgomery, Jr., 
 J. E. Peralta, F. Ogliaro, M. Bearpark, J. J. Heyd, E. Brothers, 
 K. N. Kudin, V. N. Staroverov, R. Kobayashi, J. Normand, 
 K. Raghavachari, A. Rendell, J. C. Burant, S. S. Iyengar, J. Tomasi, 
 M. Cossi, N. Rega, J. M. Millam, M. Klene, J. E. Knox, J. B. Cross, 
 V. Bakken, C. Adamo, J. Jaramillo, R. Gomperts, R. E. Stratmann, 
 O. Yazyev, A. J. Austin, R. Cammi, C. Pomelli, J. W. Ochterski, 
 R. L. Martin, K. Morokuma, V. G. Zakrzewski, G. A. Voth, 
 P. Salvador, J. J. Dannenberg, S. Dapprich, A. D. Daniels, 
 O. Farkas, J. B. Foresman, J. V. Ortiz, J. Cioslowski, 
 and D. J. Fox, Gaussian, Inc., Wallingford CT, 2009.
 
 ******************************************
 Gaussian 09:  AM64L-G09RevA.02 11-Jun-2009
                31-Jul-2010 
 ******************************************
 %mem=24000000
 ---------------------------
 #HSEh1PBE/6-31+G** opt freq
 ---------------------------
 1/14=-1,18=20,19=15,26=3,38=1/1,3;
 2/9=110,12=2,17=6,18=5,40=1/2;
 3/5=1,6=6,7=111,11=2,16=1,25=1,30=1,71=1,74=-51/1,2,3;
 4//1;
 5/5=2,38=5/2;
 6/7=2,8=2,9=2,10=2,28=1/1;
 7//1,2,3,16;
 1/14=-1,18=20,19=15/3(2);
 2/9=110/2;
 99//99;
 2/9=110/2;
 3/5=1,6=6,7=111,11=2,16=1,25=1,30=1,71=1,74=-51/1,2,3;
 4/5=5,16=3/1;
 5/5=2,38=5/2;
 7//1,2,3,16;
 1/14=-1,18=20,19=15/3(-5);
 2/9=110/2;
 6/7=2,8=2,9=2,10=2,19=2,28=1/1;
 99/9=1/99;
 -------------------------------------------------
 1H pyrazole C3H4N2 casno=288131 method=57 basis=4
 -------------------------------------------------
 Symbolic Z-matrix:
 Charge =  0 Multiplicity = 1
 H                    -1.9125    0.       -0.75938 
 C                    -1.08438   0.       -0.21875 
 H                     0.43438   0.       -1.63125 
 C                     0.15      0.       -0.68438 
 H                     1.9125    0.        0.37188 
 C                     0.92188   0.        0.375 
 N                     0.18125   0.        1.41875 
 H                    -1.74063   0.        1.63125 
 N                    -1.00313   0.        1.05313 
 

 GradGradGradGradGradGradGradGradGradGradGradGradGradGradGradGradGradGrad
 Berny optimization.
 Initialization pass.
                           ----------------------------
                           !    Initial Parameters    !
                           ! (Angstroms and Degrees)  !
 --------------------------                            --------------------------
 ! Name  Definition              Value          Derivative Info.                !
 --------------------------------------------------------------------------------
 ! R1    R(1,2)                  0.989          estimate D2E/DX2                !
 ! R2    R(2,4)                  1.3193         estimate D2E/DX2                !
 ! R3    R(2,9)                  1.2745         estimate D2E/DX2                !
 ! R4    R(3,4)                  0.9887         estimate D2E/DX2                !
 ! R5    R(4,6)                  1.3108         estimate D2E/DX2                !
 ! R6    R(5,6)                  0.9906         estimate D2E/DX2                !
 ! R7    R(6,7)                  1.2798         estimate D2E/DX2                !
 ! R8    R(7,9)                  1.2395         estimate D2E/DX2                !
 ! R9    R(8,9)                  0.9371         estimate D2E/DX2                !
 ! A1    A(1,2,4)              126.195          estimate D2E/DX2                !
 ! A2    A(1,2,9)              126.7929         estimate D2E/DX2                !
 ! A3    A(4,2,9)              107.012          estimate D2E/DX2                !
 ! A4    A(2,4,3)              127.3838         estimate D2E/DX2                !
 ! A5    A(2,4,6)              105.4104         estimate D2E/DX2                !
 ! A6    A(3,4,6)              127.2058         estimate D2E/DX2                !
 ! A7    A(4,6,5)              125.8968         estimate D2E/DX2                !
 ! A8    A(4,6,7)              108.5636         estimate D2E/DX2                !
 ! A9    A(5,6,7)              125.5395         estimate D2E/DX2                !
 ! A10   A(6,7,9)              108.203          estimate D2E/DX2                !
 ! A11   A(2,9,7)              110.811          estimate D2E/DX2                !
 ! A12   A(2,9,8)              124.4376         estimate D2E/DX2                !
 ! A13   A(7,9,8)              124.7513         estimate D2E/DX2                !
 ! D1    D(1,2,4,3)              0.0            estimate D2E/DX2                !
 ! D2    D(1,2,4,6)            180.0            estimate D2E/DX2                !
 ! D3    D(9,2,4,3)            180.0            estimate D2E/DX2                !
 ! D4    D(9,2,4,6)              0.0            estimate D2E/DX2                !
 ! D5    D(1,2,9,7)            180.0            estimate D2E/DX2                !
 ! D6    D(1,2,9,8)              0.0            estimate D2E/DX2                !
 ! D7    D(4,2,9,7)              0.0            estimate D2E/DX2                !
 ! D8    D(4,2,9,8)            180.0            estimate D2E/DX2                !
 ! D9    D(2,4,6,5)            180.0            estimate D2E/DX2                !
 ! D10   D(2,4,6,7)              0.0            estimate D2E/DX2                !
 ! D11   D(3,4,6,5)              0.0            estimate D2E/DX2                !
 ! D12   D(3,4,6,7)            180.0            estimate D2E/DX2                !
 ! D13   D(4,6,7,9)              0.0            estimate D2E/DX2                !
 ! D14   D(5,6,7,9)            180.0            estimate D2E/DX2                !
 ! D15   D(6,7,9,2)              0.0            estimate D2E/DX2                !
 ! D16   D(6,7,9,8)            180.0            estimate D2E/DX2                !
 --------------------------------------------------------------------------------
 Trust Radius=3.00D-01 FncErr=1.00D-07 GrdErr=1.00D-06
 Number of steps in this run=  48 maximum allowed number of steps= 100.
 GradGradGradGradGradGradGradGradGradGradGradGradGradGradGradGradGradGrad

                          Input orientation:                          
 ---------------------------------------------------------------------
 Center     Atomic      Atomic             Coordinates (Angstroms)
 Number     Number       Type             X           Y           Z
 ---------------------------------------------------------------------
      1          1           0       -1.912500    0.000000   -0.759375
      2          6           0       -1.084375    0.000000   -0.218750
      3          1           0        0.434375    0.000000   -1.631250
      4          6           0        0.150000    0.000000   -0.684375
      5          1           0        1.912500    0.000000    0.371875
      6          6           0        0.921875    0.000000    0.375000
      7          7           0        0.181250    0.000000    1.418750
      8          1           0       -1.740625    0.000000    1.631250
      9          7           0       -1.003125    0.000000    1.053125
 ---------------------------------------------------------------------
                    Distance matrix (angstroms):
                    1          2          3          4          5
     1  H    0.000000
     2  C    0.988972   0.000000
     3  H    2.503595   2.074068   0.000000
     4  C    2.063863   1.319276   0.988656   0.000000
     5  H    3.988778   3.054521   2.489450   2.054768   0.000000
     6  C    3.052947   2.092266   2.064630   1.310750   0.990630
     7  N    3.021261   2.069592   3.060486   2.103357   2.023159
     8  H    2.396796   1.962948   3.921037   2.989412   3.864110
     9  N    2.027836   1.274468   3.045041   2.085331   2.994156
                    6          7          8          9
     6  C    0.000000
     7  N    1.279820   0.000000
     8  H    2.943989   1.933587   0.000000
     9  N    2.040950   1.239526   0.937088   0.000000
 Stoichiometry    C3H4N2
 Framework group  CS[SG(C3H4N2)]
 Deg. of freedom    15
 Full point group                 CS      NOp   2
 Largest Abelian subgroup         CS      NOp   2
 Largest concise Abelian subgroup C1      NOp   1
                         Standard orientation:                         
 ---------------------------------------------------------------------
 Center     Atomic      Atomic             Coordinates (Angstroms)
 Number     Number       Type             X           Y           Z
 ---------------------------------------------------------------------
      1          1           0        1.974407    0.585689    0.000000
      2          6           0        1.028833    0.295936    0.000000
      3          1           0        1.140941   -1.775099    0.000000
      4          6           0        0.595873   -0.950271    0.000000
      5          1           0       -1.344123   -1.627388    0.000000
      6          6           0       -0.712074   -0.864589    0.000000
      7          7           0       -1.039336    0.372682    0.000000
      8          1           0        0.028336    1.984773    0.000000
      9          7           0        0.000000    1.048113    0.000000
 ---------------------------------------------------------------------
 Rotational constants (GHZ):     11.1878017     10.4520034      5.4036966
 Standard basis: 6-31+G(d,p) (6D, 7F)
 There are    86 symmetry adapted basis functions of A'  symmetry.
 There are    29 symmetry adapted basis functions of A"  symmetry.
 Integral buffers will be    131072 words long.
 Raffenetti 2 integral format.
 Two-electron integral symmetry is turned on.
   115 basis functions,   188 primitive gaussians,   115 cartesian basis functions
    18 alpha electrons       18 beta electrons
       nuclear repulsion energy       173.7391746797 Hartrees.
 NAtoms=    9 NActive=    9 NUniq=    9 SFac= 7.50D-01 NAtFMM=   80 NAOKFM=F Big=F
 One-electron integrals computed using PRISM.
 NBasis=   115 RedAO= T  NBF=    86    29
 NBsUse=   115 1.00D-06 NBFU=    86    29
 Harris functional with IExCor= 1009 diagonalized for initial guess.
 ExpMin= 4.38D-02 ExpMax= 4.17D+03 ExpMxC= 6.27D+02 IAcc=2 IRadAn=         0 AccDes= 0.00D+00
 HarFok:  IExCor= 1009 AccDes= 0.00D+00 IRadAn=         0 IDoV= 1
 ScaDFX=  1.000000  1.000000  1.000000  1.000000
 FoFCou: FMM=F IPFlag=           0 FMFlag=      100000 FMFlg1=           0
         NFxFlg=           0 DoJE=T BraDBF=F KetDBF=T FulRan=T
         Omega=  0.000000  0.000000  1.000000  0.000000  0.000000 ICntrl=     500 IOpCl=  0
         NMat0=    1 NMatS0=    1 NMatT0=    0 NMatD0=    1 NMtDS0=    0 NMtDT0=    0
         I1Cent=           4 NGrid=           0.
 Petite list used in FoFCou.
 Initial guess orbital symmetries:
       Occupied  (A') (A') (A') (A') (A') (A') (A') (A') (A') (A')
                 (A') (A') (A') (A") (A') (A") (A') (A")
       Virtual   (A") (A") (A') (A') (A') (A') (A') (A") (A') (A")
                 (A") (A') (A') (A') (A') (A') (A') (A') (A") (A')
                 (A") (A') (A') (A') (A') (A') (A') (A') (A') (A')
                 (A') (A") (A') (A') (A") (A") (A') (A') (A') (A')
                 (A') (A") (A') (A") (A') (A') (A') (A') (A') (A")
                 (A') (A') (A') (A") (A") (A') (A") (A") (A') (A')
                 (A') (A') (A') (A') (A") (A') (A") (A') (A") (A")
                 (A') (A') (A") (A') (A') (A") (A') (A') (A') (A")
                 (A') (A") (A") (A') (A') (A') (A') (A') (A') (A')
                 (A') (A') (A') (A') (A') (A') (A')
 The electronic state of the initial guess is 1-A'.
 Requested convergence on RMS density matrix=1.00D-08 within 128 cycles.
 Requested convergence on MAX density matrix=1.00D-06.
 Requested convergence on             energy=1.00D-06.
 No special actions if energy rises.
 FoFJK:  IHMeth= 1 ICntrl=     0 DoSepK=T KAlg= 1 I1Cent= 0 FoldK=F
 FoFJK:  IHMeth= 1 ICntrl=     0 DoSepK=T KAlg= 1 I1Cent= 0 FoldK=F
 FoFJK:  IHMeth= 1 ICntrl=     0 DoSepK=T KAlg= 1 I1Cent= 0 FoldK=F
 FoFJK:  IHMeth= 1 ICntrl=     0 DoSepK=T KAlg= 1 I1Cent= 0 FoldK=F
 FoFJK:  IHMeth= 1 ICntrl=     0 DoSepK=T KAlg= 1 I1Cent= 0 FoldK=F
 FoFJK:  IHMeth= 1 ICntrl=     0 DoSepK=T KAlg= 1 I1Cent= 0 FoldK=F
 FoFJK:  IHMeth= 1 ICntrl=     0 DoSepK=T KAlg= 1 I1Cent= 0 FoldK=F
 FoFJK:  IHMeth= 1 ICntrl=     0 DoSepK=T KAlg= 1 I1Cent= 0 FoldK=F
 FoFJK:  IHMeth= 1 ICntrl=     0 DoSepK=T KAlg= 1 I1Cent= 0 FoldK=F
 FoFJK:  IHMeth= 1 ICntrl=     0 DoSepK=T KAlg= 1 I1Cent= 0 FoldK=F
 FoFJK:  IHMeth= 1 ICntrl=     0 DoSepK=T KAlg= 1 I1Cent= 0 FoldK=F
 SCF Done:  E(RHSEH1PBE) =  -225.912073955     A.U. after   11 cycles
             Convg  =    0.6972D-08             -V/T =  2.0009

 **********************************************************************

            Population analysis using the SCF density.

 **********************************************************************

 Orbital symmetries:
       Occupied  (A') (A') (A') (A') (A') (A') (A') (A') (A') (A')
                 (A') (A") (A') (A') (A') (A') (A") (A")
       Virtual   (A') (A") (A') (A') (A") (A') (A') (A") (A') (A")
                 (A') (A") (A') (A') (A') (A') (A") (A') (A") (A')
                 (A') (A') (A') (A') (A') (A') (A') (A') (A') (A')
                 (A') (A") (A") (A') (A') (A") (A') (A') (A') (A')
                 (A") (A') (A') (A") (A') (A') (A') (A') (A') (A')
                 (A") (A') (A') (A") (A") (A') (A") (A") (A') (A')
                 (A') (A') (A') (A') (A") (A') (A") (A') (A") (A")
                 (A') (A') (A") (A') (A") (A') (A') (A') (A') (A")
                 (A') (A") (A") (A') (A') (A') (A') (A') (A') (A')
                 (A') (A') (A') (A') (A') (A') (A')
 The electronic state is 1-A'.
 Alpha  occ. eigenvalues --  -14.46198 -14.38499 -10.22726 -10.20726 -10.18286
 Alpha  occ. eigenvalues --   -1.13506  -0.85962  -0.81806  -0.65505  -0.62852
 Alpha  occ. eigenvalues --   -0.57333  -0.48374  -0.48015  -0.44104  -0.40209
 Alpha  occ. eigenvalues --   -0.27559  -0.27314  -0.24958
 Alpha virt. eigenvalues --   -0.00030   0.02416   0.02672   0.03563   0.05153
 Alpha virt. eigenvalues --    0.06178   0.06335   0.06976   0.08733   0.09977
 Alpha virt. eigenvalues --    0.12223   0.12411   0.12730   0.15701   0.16825
 Alpha virt. eigenvalues --    0.18382   0.18677   0.21563   0.21759   0.23439
 Alpha virt. eigenvalues --    0.23960   0.25360   0.27254   0.29485   0.31232
 Alpha virt. eigenvalues --    0.32378   0.33921   0.38933   0.45992   0.51894
 Alpha virt. eigenvalues --    0.54857   0.67153   0.70360   0.71838   0.73160
 Alpha virt. eigenvalues --    0.74570   0.79251   0.84250   0.89370   0.90844
 Alpha virt. eigenvalues --    0.91045   0.91249   0.95544   0.97939   0.99067
 Alpha virt. eigenvalues --    1.01590   1.03237   1.05163   1.13310   1.21397
 Alpha virt. eigenvalues --    1.21926   1.26654   1.30072   1.34141   1.36834
 Alpha virt. eigenvalues --    1.39781   1.45712   1.53358   1.54777   1.59735
 Alpha virt. eigenvalues --    1.81433   1.98018   1.98380   2.05266   2.06792
 Alpha virt. eigenvalues --    2.09865   2.18843   2.24018   2.26378   2.29288
 Alpha virt. eigenvalues --    2.35138   2.40972   2.45995   2.53057   2.53343
 Alpha virt. eigenvalues --    2.53849   2.57509   2.64480   2.68362   2.71897
 Alpha virt. eigenvalues --    2.76688   2.84578   2.95014   2.99375   3.12955
 Alpha virt. eigenvalues --    3.13708   3.31264   3.49896   3.50797   3.62718
 Alpha virt. eigenvalues --    3.87052   4.05467   4.13033   4.36131   4.41427
 Alpha virt. eigenvalues --    4.61040   5.01136
          Condensed to atoms (all electrons):
              1          2          3          4          5          6
     1  H    0.530438   0.383487  -0.002154  -0.031669  -0.000280   0.015367
     2  C    0.383487   5.109886   0.004014   0.590462   0.023239  -0.119959
     3  H   -0.002154   0.004014   0.552649   0.274006  -0.002318   0.020944
     4  C   -0.031669   0.590462   0.274006   5.322930  -0.090423   0.158881
     5  H   -0.000280   0.023239  -0.002318  -0.090423   0.558811   0.436249
     6  C    0.015367  -0.119959   0.020944   0.158881   0.436249   5.287482
     7  N    0.014963  -0.134018   0.009794   0.102351  -0.087219   0.255137
     8  H   -0.001175  -0.031927  -0.000123  -0.013564   0.000097   0.020087
     9  N   -0.062817   0.386060   0.010891  -0.340039   0.021983   0.075418
              7          8          9
     1  H    0.014963  -0.001175  -0.062817
     2  C   -0.134018  -0.031927   0.386060
     3  H    0.009794  -0.000123   0.010891
     4  C    0.102351  -0.013564  -0.340039
     5  H   -0.087219   0.000097   0.021983
     6  C    0.255137   0.020087   0.075418
     7  N    6.901757  -0.068186   0.264843
     8  H   -0.068186   0.416325   0.364252
     9  N    0.264843   0.364252   6.426415
 Mulliken atomic charges:
              1
     1  H    0.153841
     2  C   -0.211244
     3  H    0.132296
     4  C    0.027064
     5  H    0.139861
     6  C   -0.149606
     7  N   -0.259422
     8  H    0.314215
     9  N   -0.147006
 Sum of Mulliken atomic charges =   0.00000
 Mulliken charges with hydrogens summed into heavy atoms:
              1
     2  C   -0.057403
     4  C    0.159361
     6  C   -0.009745
     7  N   -0.259422
     9  N    0.167209
 Sum of Mulliken charges with hydrogens summed into heavy atoms =   0.00000
 Electronic spatial extent (au):  <R**2>=            259.4715
 Charge=              0.0000 electrons
 Dipole moment (field-independent basis, Debye):
    X=              2.1980    Y=              0.9278    Z=              0.0000  Tot=              2.3858
 Quadrupole moment (field-independent basis, Debye-Ang):
   XX=            -30.3822   YY=            -22.0850   ZZ=            -31.0812
   XY=              2.6445   XZ=              0.0000   YZ=              0.0000
 Traceless Quadrupole moment (field-independent basis, Debye-Ang):
   XX=             -2.5328   YY=              5.7645   ZZ=             -3.2317
   XY=              2.6445   XZ=              0.0000   YZ=              0.0000
 Octapole moment (field-independent basis, Debye-Ang**2):
  XXX=              9.4869  YYY=             10.9712  ZZZ=              0.0000  XYY=              0.6965
  XXY=             -2.7008  XXZ=              0.0000  XZZ=             -0.6292  YZZ=              2.0346
  YYZ=              0.0000  XYZ=              0.0000
 Hexadecapole moment (field-independent basis, Debye-Ang**3):
 XXXX=           -158.5394 YYYY=           -123.5335 ZZZZ=            -34.6298 XXXY=              8.2357
 XXXZ=              0.0000 YYYX=              0.6997 YYYZ=              0.0000 ZZZX=              0.0000
 ZZZY=              0.0000 XXYY=            -48.9092 XXZZ=            -35.1378 YYZZ=            -34.2891
 XXYZ=              0.0000 YYXZ=              0.0000 ZZXY=              0.0249
 N-N= 1.737391746797D+02 E-N=-8.737847042193D+02  KE= 2.257078002714D+02
 Symmetry A'   KE= 2.174835665903D+02
 Symmetry A"   KE= 8.224233681110D+00
 Calling FoFJK, ICntrl=      2127 FMM=F ISym2X=1 I1Cent= 0 IOpClX= 0 NMat=1 NMatS=1 NMatT=0.
 FoFJK:  IHMeth= 1 ICntrl=  2127 DoSepK=T KAlg= 1 I1Cent= 0 FoldK=F
 ***** Axes restored to original set *****
 -------------------------------------------------------------------
 Center     Atomic                   Forces (Hartrees/Bohr)
 Number     Number              X              Y              Z
 -------------------------------------------------------------------
      1        1          -0.077653817    0.000000000   -0.039814858
      2        6          -0.014632981    0.000000000   -0.049346146
      3        1           0.022230848    0.000000000   -0.083792063
      4        6          -0.013145380    0.000000000   -0.039894834
      5        1           0.084470920    0.000000000    0.011203652
      6        6           0.003302675    0.000000000    0.021561366
      7        7           0.084037352    0.000000000    0.131742974
      8        1          -0.057403126    0.000000000    0.059106591
      9        7          -0.031206492    0.000000000   -0.010766681
 -------------------------------------------------------------------
 Cartesian Forces:  Max     0.131742974 RMS     0.046974321

 GradGradGradGradGradGradGradGradGradGradGradGradGradGradGradGradGradGrad
 Berny optimization.
 Internal  Forces:  Max     0.125002533 RMS     0.046799976
 Search for a local minimum.
 Step number   1 out of a maximum of   48
 All quantities printed in internal units (Hartrees-Bohrs-Radians)
 Mixed Optimization -- RFO/linear search
 Second derivative matrix not updated -- first step.
     Eigenvalues ---    0.03204   0.03245   0.03263   0.03273   0.03342
     Eigenvalues ---    0.03375   0.16000   0.16000   0.16000   0.16000
     Eigenvalues ---    0.22000   0.22938   0.49374   0.49681   0.49740
     Eigenvalues ---    0.56490   0.56686   0.60708   0.68179   0.73042
     Eigenvalues ---    0.827791000.000001000.000001000.000001000.00000
     Eigenvalues --- 1000.000001000.000001000.000001000.000001000.00000
     Eigenvalues --- 1000.000001000.000001000.000001000.000001000.00000
     Eigenvalues --- 1000.000001000.000001000.00000
 RFO step:  Lambda=-1.14543863D-01 EMin= 3.20405243D-02
 Linear search not attempted -- first point.
 Maximum step size (   0.300) exceeded in Quadratic search.
    -- Step size scaled by   0.731
 Iteration  1 RMS(Cart)=  0.06329293 RMS(Int)=  0.00073354
 Iteration  2 RMS(Cart)=  0.00092774 RMS(Int)=  0.00002230
 Iteration  3 RMS(Cart)=  0.00000064 RMS(Int)=  0.00002229
 ClnCor:  largest displacement from symmetrization is 2.71D-13 for atom     3.
 Variable       Old X    -DE/DX   Delta X   Delta X   Delta X     New X
                                 (Linear)    (Quad)   (Total)
    R1        1.86889   0.08679   0.00000   0.10375   0.10375   1.97263
    R2        2.49307   0.07780   0.00000   0.07591   0.07595   2.56902
    R3        2.40839   0.10799   0.00000   0.09307   0.09306   2.50145
    R4        1.86829   0.08665   0.00000   0.10348   0.10348   1.97177
    R5        2.47696   0.12500   0.00000   0.11804   0.11807   2.59502
    R6        1.87202   0.08444   0.00000   0.10144   0.10144   1.97346
    R7        2.41851   0.07132   0.00000   0.06147   0.06145   2.47996
    R8        2.34237   0.11725   0.00000   0.08872   0.08868   2.43105
    R9        1.77084   0.08164   0.00000   0.08268   0.08268   1.85352
    A1        2.20252   0.01346   0.00000   0.03363   0.03361   2.23613
    A2        2.21295  -0.00358   0.00000  -0.01174  -0.01175   2.20121
    A3        1.86771  -0.00988   0.00000  -0.02189  -0.02187   1.84585
    A4        2.22327  -0.00234   0.00000  -0.00189  -0.00193   2.22134
    A5        1.83976  -0.00059   0.00000  -0.01023  -0.01016   1.82959
    A6        2.22016   0.00293   0.00000   0.01212   0.01209   2.23225
    A7        2.19731   0.00185   0.00000   0.01236   0.01235   2.20967
    A8        1.89479   0.01776   0.00000   0.03239   0.03241   1.92720
    A9        2.19108  -0.01961   0.00000  -0.04475  -0.04476   2.14632
   A10        1.88850  -0.02422   0.00000  -0.04405  -0.04412   1.84438
   A11        1.93402   0.01694   0.00000   0.04378   0.04374   1.97776
   A12        2.17185   0.00137   0.00000   0.00430   0.00432   2.17617
   A13        2.17732  -0.01831   0.00000  -0.04808  -0.04806   2.12926
    D1        0.00000   0.00000   0.00000   0.00000   0.00000   0.00000
    D2        3.14159   0.00000   0.00000   0.00000   0.00000   3.14159
    D3        3.14159   0.00000   0.00000   0.00000   0.00000   3.14159
    D4        0.00000   0.00000   0.00000   0.00000   0.00000   0.00000
    D5        3.14159   0.00000   0.00000   0.00000   0.00000   3.14159
    D6        0.00000   0.00000   0.00000   0.00000   0.00000   0.00000
    D7        0.00000   0.00000   0.00000   0.00000   0.00000   0.00000
    D8        3.14159   0.00000   0.00000   0.00000   0.00000   3.14159
    D9        3.14159   0.00000   0.00000   0.00000   0.00000   3.14159
   D10        0.00000   0.00000   0.00000   0.00000   0.00000   0.00000
   D11        0.00000   0.00000   0.00000   0.00000   0.00000   0.00000
   D12        3.14159   0.00000   0.00000   0.00000   0.00000   3.14159
   D13        0.00000   0.00000   0.00000   0.00000   0.00000   0.00000
   D14        3.14159   0.00000   0.00000   0.00000   0.00000   3.14159
   D15        0.00000   0.00000   0.00000   0.00000   0.00000   0.00000
   D16        3.14159   0.00000   0.00000   0.00000   0.00000   3.14159
         Item               Value     Threshold  Converged?
 Maximum Force            0.125003     0.000450     NO 
 RMS     Force            0.046800     0.000300     NO 
 Maximum Displacement     0.181391     0.001800     NO 
 RMS     Displacement     0.063262     0.001200     NO 
 Predicted change in Energy=-5.827725D-02
 GradGradGradGradGradGradGradGradGradGradGradGradGradGradGradGradGradGrad

                          Input orientation:                          
 ---------------------------------------------------------------------
 Center     Atomic      Atomic             Coordinates (Angstroms)
 Number     Number       Type             X           Y           Z
 ---------------------------------------------------------------------
      1          1           0       -2.008488    0.000000   -0.795820
      2          6           0       -1.117953    0.000000   -0.251193
      3          1           0        0.458334    0.000000   -1.724387
      4          6           0        0.155999    0.000000   -0.725734
      5          1           0        1.992733    0.000000    0.420128
      6          6           0        0.948709    0.000000    0.395589
      7          7           0        0.208768    0.000000    1.479435
      8          1           0       -1.768566    0.000000    1.690110
      9          7           0       -1.010160    0.000000    1.068122
 ---------------------------------------------------------------------
                    Distance matrix (angstroms):
                    1          2          3          4          5
     1  H    0.000000
     2  C    1.043873   0.000000
     3  H    2.635801   2.157541   0.000000
     4  C    2.165622   1.359465   1.043414   0.000000
     5  H    4.181901   3.182301   2.636915   2.164853   0.000000
     6  C    3.188177   2.165507   2.175952   1.373228   1.044312
     7  N    3.176950   2.180656   3.213527   2.205800   2.074768
     8  H    2.497481   2.047426   4.076503   3.088730   3.969915
     9  N    2.114459   1.323710   3.155088   2.139590   3.072013
                    6          7          8          9
     6  C    0.000000
     7  N    1.312339   0.000000
     8  H    3.009879   1.988526   0.000000
     9  N    2.071104   1.286455   0.980841   0.000000
 Stoichiometry    C3H4N2
 Framework group  CS[SG(C3H4N2)]
 Deg. of freedom    15
 Full point group                 CS      NOp   2
 Largest Abelian subgroup         CS      NOp   2
 Largest concise Abelian subgroup C1      NOp   1
                         Standard orientation:                         
 ---------------------------------------------------------------------
 Center     Atomic      Atomic             Coordinates (Angstroms)
 Number     Number       Type             X           Y           Z
 ---------------------------------------------------------------------
      1          1           0        2.070530    0.633548    0.000000
      2          6           0        1.081634    0.299248    0.000000
      3          1           0        1.201720   -1.854949    0.000000
      4          6           0        0.629111   -0.982691    0.000000
      5          1           0       -1.427809   -1.657723    0.000000
      6          6           0       -0.739664   -0.872201    0.000000
      7          7           0       -1.097111    0.390520    0.000000
      8          1           0        0.008851    2.043120    0.000000
      9          7           0        0.000000    1.062318    0.000000
 ---------------------------------------------------------------------
 Rotational constants (GHZ):     10.1341898      9.9701322      5.0257458
 Standard basis: 6-31+G(d,p) (6D, 7F)
 There are    86 symmetry adapted basis functions of A'  symmetry.
 There are    29 symmetry adapted basis functions of A"  symmetry.
 Integral buffers will be    131072 words long.
 Raffenetti 2 integral format.
 Two-electron integral symmetry is turned on.
   115 basis functions,   188 primitive gaussians,   115 cartesian basis functions
    18 alpha electrons       18 beta electrons
       nuclear repulsion energy       167.4456991454 Hartrees.
 NAtoms=    9 NActive=    9 NUniq=    9 SFac= 7.50D-01 NAtFMM=   80 NAOKFM=F Big=F
 One-electron integrals computed using PRISM.
 NBasis=   115 RedAO= T  NBF=    86    29
 NBsUse=   115 1.00D-06 NBFU=    86    29
 Initial guess read from the read-write file.
 B after Tr=     0.000000    0.000000    0.000000
         Rot=    1.000000    0.000000    0.000000    0.000000 Ang=   0.00 deg.
 Initial guess orbital symmetries:
       Occupied  (A') (A') (A') (A') (A') (A') (A') (A') (A') (A')
                 (A') (A") (A') (A') (A') (A') (A") (A")
       Virtual   (A') (A") (A') (A') (A") (A') (A') (A") (A') (A")
                 (A') (A") (A') (A') (A') (A') (A") (A') (A") (A')
                 (A') (A') (A') (A') (A') (A') (A') (A') (A') (A')
                 (A') (A") (A") (A') (A') (A") (A') (A') (A') (A')
                 (A") (A') (A') (A") (A') (A') (A') (A') (A') (A')
                 (A") (A') (A') (A") (A") (A') (A") (A") (A') (A')
                 (A') (A') (A') (A') (A") (A') (A") (A') (A") (A")
                 (A') (A') (A") (A') (A") (A') (A') (A') (A') (A")
                 (A') (A") (A") (A') (A') (A') (A') (A') (A') (A')
                 (A') (A') (A') (A') (A') (A') (A')
 Harris functional with IExCor= 1009 diagonalized for initial guess.
 ExpMin= 4.38D-02 ExpMax= 4.17D+03 ExpMxC= 6.27D+02 IAcc=2 IRadAn=         0 AccDes= 0.00D+00
 HarFok:  IExCor= 1009 AccDes= 0.00D+00 IRadAn=         0 IDoV= 1
 ScaDFX=  1.000000  1.000000  1.000000  1.000000
 FoFCou: FMM=F IPFlag=           0 FMFlag=      100000 FMFlg1=           0
         NFxFlg=           0 DoJE=T BraDBF=F KetDBF=T FulRan=T
         Omega=  0.000000  0.000000  1.000000  0.000000  0.000000 ICntrl=     500 IOpCl=  0
         NMat0=    1 NMatS0=    1 NMatT0=    0 NMatD0=    1 NMtDS0=    0 NMtDT0=    0
         I1Cent=           4 NGrid=           0.
 Petite list used in FoFCou.
 Requested convergence on RMS density matrix=1.00D-08 within 128 cycles.
 Requested convergence on MAX density matrix=1.00D-06.
 Requested convergence on             energy=1.00D-06.
 No special actions if energy rises.
 FoFJK:  IHMeth= 1 ICntrl=     0 DoSepK=T KAlg= 1 I1Cent= 0 FoldK=F
 FoFJK:  IHMeth= 1 ICntrl=     0 DoSepK=T KAlg= 1 I1Cent= 0 FoldK=F
 FoFJK:  IHMeth= 1 ICntrl=     0 DoSepK=T KAlg= 1 I1Cent= 0 FoldK=F
 FoFJK:  IHMeth= 1 ICntrl=     0 DoSepK=T KAlg= 1 I1Cent= 0 FoldK=F
 FoFJK:  IHMeth= 1 ICntrl=     0 DoSepK=T KAlg= 1 I1Cent= 0 FoldK=F
 FoFJK:  IHMeth= 1 ICntrl=     0 DoSepK=T KAlg= 1 I1Cent= 0 FoldK=F
 FoFJK:  IHMeth= 1 ICntrl=     0 DoSepK=T KAlg= 1 I1Cent= 0 FoldK=F
 FoFJK:  IHMeth= 1 ICntrl=     0 DoSepK=T KAlg= 1 I1Cent= 0 FoldK=F
 FoFJK:  IHMeth= 1 ICntrl=     0 DoSepK=T KAlg= 1 I1Cent= 0 FoldK=F
 FoFJK:  IHMeth= 1 ICntrl=     0 DoSepK=T KAlg= 1 I1Cent= 0 FoldK=F
 FoFJK:  IHMeth= 1 ICntrl=     0 DoSepK=T KAlg= 1 I1Cent= 0 FoldK=F
 SCF Done:  E(RHSEH1PBE) =  -225.966884241     A.U. after   11 cycles
             Convg  =    0.7018D-08             -V/T =  2.0060
 Calling FoFJK, ICntrl=      2127 FMM=F ISym2X=1 I1Cent= 0 IOpClX= 0 NMat=1 NMatS=1 NMatT=0.
 FoFJK:  IHMeth= 1 ICntrl=  2127 DoSepK=T KAlg= 1 I1Cent= 0 FoldK=F
 ***** Axes restored to original set *****
 -------------------------------------------------------------------
 Center     Atomic                   Forces (Hartrees/Bohr)
 Number     Number              X              Y              Z
 -------------------------------------------------------------------
      1        1          -0.028610575    0.000000000   -0.009133247
      2        6           0.003944542    0.000000000   -0.019677913
      3        1           0.007835176    0.000000000   -0.028453090
      4        6          -0.003390663    0.000000000   -0.009899242
      5        1           0.029146827    0.000000000    0.006925307
      6        6          -0.001513424    0.000000000    0.001021773
      7        7           0.037981429    0.000000000    0.045841714
      8        1          -0.016489613    0.000000000    0.021945934
      9        7          -0.028903700    0.000000000   -0.008571235
 -------------------------------------------------------------------
 Cartesian Forces:  Max     0.045841714 RMS     0.017630493

 GradGradGradGradGradGradGradGradGradGradGradGradGradGradGradGradGradGrad
 Berny optimization.
 Using GEDIIS/GDIIS optimizer.
 Internal  Forces:  Max     0.048321087 RMS     0.016193493
 Search for a local minimum.
 Step number   2 out of a maximum of   48
 All quantities printed in internal units (Hartrees-Bohrs-Radians)
 Mixed Optimization -- RFO/linear search
 Update second derivatives using D2CorX and points    1    2
 DE= -5.48D-02 DEPred=-5.83D-02 R= 9.41D-01
 SS=  1.41D+00  RLast= 3.00D-01 DXNew= 5.0454D-01 9.0000D-01
 Trust test= 9.41D-01 RLast= 3.00D-01 DXMaxT set to 5.05D-01
 Use linear search instead of GDIIS.
     Eigenvalues ---    0.03204   0.03247   0.03260   0.03273   0.03343
     Eigenvalues ---    0.03374   0.15887   0.16000   0.16000   0.16022
     Eigenvalues ---    0.22016   0.23593   0.49450   0.49711   0.51214
     Eigenvalues ---    0.57117   0.58126   0.61604   0.68530   0.73890
     Eigenvalues ---    0.810311000.000001000.000001000.000001000.00000
     Eigenvalues --- 1000.000001000.000001000.000001000.000001000.00000
     Eigenvalues --- 1000.000001000.000001000.000001000.000001000.00000
     Eigenvalues --- 1000.000001000.000001000.00000
 RFO step:  Lambda=-2.20023605D-03 EMin= 3.20414720D-02
 Quartic linear search produced a step of  0.66475.
 Iteration  1 RMS(Cart)=  0.04962064 RMS(Int)=  0.00115977
 Iteration  2 RMS(Cart)=  0.00134517 RMS(Int)=  0.00001802
 Iteration  3 RMS(Cart)=  0.00000192 RMS(Int)=  0.00001794
 Iteration  4 RMS(Cart)=  0.00000000 RMS(Int)=  0.00001794
 ClnCor:  largest displacement from symmetrization is 9.16D-16 for atom     5.
 Variable       Old X    -DE/DX   Delta X   Delta X   Delta X     New X
                                 (Linear)    (Quad)   (Total)
    R1        1.97263   0.02917   0.06897   0.00216   0.07113   2.04376
    R2        2.56902   0.02658   0.05049  -0.00102   0.04947   2.61848
    R3        2.50145   0.03434   0.06186  -0.00602   0.05580   2.55725
    R4        1.97177   0.02950   0.06879   0.00340   0.07219   2.04396
    R5        2.59502   0.03917   0.07848  -0.01087   0.06765   2.66268
    R6        1.97346   0.02930   0.06744   0.00530   0.07273   2.04620
    R7        2.47996   0.02366   0.04085  -0.00219   0.03868   2.51864
    R8        2.43105   0.04832   0.05895   0.01470   0.07363   2.50468
    R9        1.85352   0.02667   0.05496  -0.00264   0.05233   1.90585
    A1        2.23613   0.00730   0.02235   0.04283   0.06519   2.30132
    A2        2.20121  -0.00680  -0.00781  -0.05808  -0.06587   2.13533
    A3        1.84585  -0.00051  -0.01454   0.01525   0.00068   1.84653
    A4        2.22134  -0.00109  -0.00128   0.00164   0.00035   2.22169
    A5        1.82959   0.00069  -0.00676  -0.00505  -0.01177   1.81782
    A6        2.23225   0.00040   0.00804   0.00340   0.01143   2.24368
    A7        2.20967   0.00311   0.00821   0.03426   0.04245   2.25212
    A8        1.92720   0.00606   0.02154   0.00252   0.02411   1.95131
    A9        2.14632  -0.00918  -0.02975  -0.03678  -0.06656   2.07976
   A10        1.84438  -0.00722  -0.02933   0.00604  -0.02328   1.82109
   A11        1.97776   0.00098   0.02908  -0.01877   0.01026   1.98802
   A12        2.17617   0.00556   0.00287   0.04616   0.04906   2.22522
   A13        2.12926  -0.00653  -0.03195  -0.02739  -0.05932   2.06994
    D1        0.00000   0.00000   0.00000   0.00000   0.00000   0.00000
    D2        3.14159   0.00000   0.00000   0.00000   0.00000   3.14159
    D3        3.14159   0.00000   0.00000   0.00000   0.00000   3.14159
    D4        0.00000   0.00000   0.00000   0.00000   0.00000   0.00000
    D5        3.14159   0.00000   0.00000   0.00000   0.00000   3.14159
    D6        0.00000   0.00000   0.00000   0.00000   0.00000   0.00000
    D7        0.00000   0.00000   0.00000   0.00000   0.00000   0.00000
    D8        3.14159   0.00000   0.00000   0.00000   0.00000   3.14159
    D9        3.14159   0.00000   0.00000   0.00000   0.00000   3.14159
   D10        0.00000   0.00000   0.00000   0.00000   0.00000   0.00000
   D11        0.00000   0.00000   0.00000   0.00000   0.00000   0.00000
   D12        3.14159   0.00000   0.00000   0.00000   0.00000   3.14159
   D13        0.00000   0.00000   0.00000   0.00000   0.00000   0.00000
   D14        3.14159   0.00000   0.00000   0.00000   0.00000   3.14159
   D15        0.00000   0.00000   0.00000   0.00000   0.00000   0.00000
   D16        3.14159   0.00000   0.00000   0.00000   0.00000   3.14159
         Item               Value     Threshold  Converged?
 Maximum Force            0.048321     0.000450     NO 
 RMS     Force            0.016193     0.000300     NO 
 Maximum Displacement     0.151132     0.001800     NO 
 RMS     Displacement     0.049608     0.001200     NO 
 Predicted change in Energy=-7.456270D-03
 GradGradGradGradGradGradGradGradGradGradGradGradGradGradGradGradGradGrad

                          Input orientation:                          
 ---------------------------------------------------------------------
 Center     Atomic      Atomic             Coordinates (Angstroms)
 Number     Number       Type             X           Y           Z
 ---------------------------------------------------------------------
      1          1           0       -2.088464    0.000000   -0.789358
      2          6           0       -1.132289    0.000000   -0.283986
      3          1           0        0.483771    0.000000   -1.798708
      4          6           0        0.167405    0.000000   -0.764396
      5          1           0        2.043573    0.000000    0.484457
      6          6           0        0.964256    0.000000    0.397666
      7          7           0        0.223619    0.000000    1.505744
      8          1           0       -1.776088    0.000000    1.739727
      9          7           0       -1.026409    0.000000    1.065104
 ---------------------------------------------------------------------
                    Distance matrix (angstroms):
                    1          2          3          4          5
     1  H    0.000000
     2  C    1.081513   0.000000
     3  H    2.763183   2.214957   0.000000
     4  C    2.256007   1.385641   1.081614   0.000000
     5  H    4.323926   3.267508   2.765109   2.253805   0.000000
     6  C    3.275382   2.204575   2.248316   1.409027   1.082801
     7  N    3.257793   2.245355   3.314677   2.270835   2.086926
     8  H    2.548304   2.123650   4.198510   3.169826   4.020636
     9  N    2.137052   1.353239   3.237602   2.184551   3.124410
                    6          7          8          9
     6  C    0.000000
     7  N    1.332809   0.000000
     8  H    3.051330   2.013349   0.000000
     9  N    2.099577   1.325418   1.008531   0.000000
 Stoichiometry    C3H4N2
 Framework group  CS[SG(C3H4N2)]
 Deg. of freedom    15
 Full point group                 CS      NOp   2
 Largest Abelian subgroup         CS      NOp   2
 Largest concise Abelian subgroup C1      NOp   1
                         Standard orientation:                         
 ---------------------------------------------------------------------
 Center     Atomic      Atomic             Coordinates (Angstroms)
 Number     Number       Type             X           Y           Z
 ---------------------------------------------------------------------
      1          1           0        2.107253    0.722116    0.000000
      2          6           0        1.109974    0.303661    0.000000
      3          1           0        1.255491   -1.906511    0.000000
      4          6           0        0.656723   -1.005752    0.000000
      5          1           0       -1.498929   -1.663628    0.000000
      6          6           0       -0.747071   -0.884420    0.000000
      7          7           0       -1.133678    0.391086    0.000000
      8          1           0       -0.045826    2.085238    0.000000
      9          7           0        0.000000    1.077749    0.000000
 ---------------------------------------------------------------------
 Rotational constants (GHZ):      9.7185364      9.4772885      4.7981982
 Standard basis: 6-31+G(d,p) (6D, 7F)
 There are    86 symmetry adapted basis functions of A'  symmetry.
 There are    29 symmetry adapted basis functions of A"  symmetry.
 Integral buffers will be    131072 words long.
 Raffenetti 2 integral format.
 Two-electron integral symmetry is turned on.
   115 basis functions,   188 primitive gaussians,   115 cartesian basis functions
    18 alpha electrons       18 beta electrons
       nuclear repulsion energy       163.5378566797 Hartrees.
 NAtoms=    9 NActive=    9 NUniq=    9 SFac= 7.50D-01 NAtFMM=   80 NAOKFM=F Big=F
 One-electron integrals computed using PRISM.
 NBasis=   115 RedAO= T  NBF=    86    29
 NBsUse=   115 1.00D-06 NBFU=    86    29
 Initial guess read from the read-write file.
 B after Tr=     0.000000    0.000000    0.000000
         Rot=    1.000000    0.000000    0.000000    0.000000 Ang=   0.00 deg.
 Initial guess orbital symmetries:
       Occupied  (A') (A') (A') (A') (A') (A') (A') (A') (A') (A')
                 (A') (A") (A') (A') (A') (A') (A") (A")
       Virtual   (A') (A") (A') (A') (A") (A') (A') (A") (A') (A")
                 (A') (A") (A') (A') (A') (A') (A") (A') (A") (A')
                 (A') (A') (A') (A') (A') (A') (A') (A') (A') (A')
                 (A') (A") (A') (A") (A') (A") (A') (A') (A') (A')
                 (A') (A") (A') (A") (A') (A') (A') (A') (A') (A')
                 (A") (A') (A') (A") (A") (A') (A") (A") (A') (A')
                 (A') (A') (A') (A') (A") (A') (A") (A') (A") (A')
                 (A") (A') (A") (A") (A') (A') (A') (A') (A') (A")
                 (A') (A") (A") (A') (A') (A') (A') (A') (A') (A')
                 (A') (A') (A') (A') (A') (A') (A')
 Harris functional with IExCor= 1009 diagonalized for initial guess.
 ExpMin= 4.38D-02 ExpMax= 4.17D+03 ExpMxC= 6.27D+02 IAcc=2 IRadAn=         0 AccDes= 0.00D+00
 HarFok:  IExCor= 1009 AccDes= 0.00D+00 IRadAn=         0 IDoV= 1
 ScaDFX=  1.000000  1.000000  1.000000  1.000000
 FoFCou: FMM=F IPFlag=           0 FMFlag=      100000 FMFlg1=           0
         NFxFlg=           0 DoJE=T BraDBF=F KetDBF=T FulRan=T
         Omega=  0.000000  0.000000  1.000000  0.000000  0.000000 ICntrl=     500 IOpCl=  0
         NMat0=    1 NMatS0=    1 NMatT0=    0 NMatD0=    1 NMtDS0=    0 NMtDT0=    0
         I1Cent=           4 NGrid=           0.
 Petite list used in FoFCou.
 Requested convergence on RMS density matrix=1.00D-08 within 128 cycles.
 Requested convergence on MAX density matrix=1.00D-06.
 Requested convergence on             energy=1.00D-06.
 No special actions if energy rises.
 FoFJK:  IHMeth= 1 ICntrl=     0 DoSepK=T KAlg= 1 I1Cent= 0 FoldK=F
 FoFJK:  IHMeth= 1 ICntrl=     0 DoSepK=T KAlg= 1 I1Cent= 0 FoldK=F
 FoFJK:  IHMeth= 1 ICntrl=     0 DoSepK=T KAlg= 1 I1Cent= 0 FoldK=F
 FoFJK:  IHMeth= 1 ICntrl=     0 DoSepK=T KAlg= 1 I1Cent= 0 FoldK=F
 FoFJK:  IHMeth= 1 ICntrl=     0 DoSepK=T KAlg= 1 I1Cent= 0 FoldK=F
 FoFJK:  IHMeth= 1 ICntrl=     0 DoSepK=T KAlg= 1 I1Cent= 0 FoldK=F
 FoFJK:  IHMeth= 1 ICntrl=     0 DoSepK=T KAlg= 1 I1Cent= 0 FoldK=F
 FoFJK:  IHMeth= 1 ICntrl=     0 DoSepK=T KAlg= 1 I1Cent= 0 FoldK=F
 FoFJK:  IHMeth= 1 ICntrl=     0 DoSepK=T KAlg= 1 I1Cent= 0 FoldK=F
 FoFJK:  IHMeth= 1 ICntrl=     0 DoSepK=T KAlg= 1 I1Cent= 0 FoldK=F
 FoFJK:  IHMeth= 1 ICntrl=     0 DoSepK=T KAlg= 1 I1Cent= 0 FoldK=F
 SCF Done:  E(RHSEH1PBE) =  -225.976878318     A.U. after   11 cycles
             Convg  =    0.5387D-08             -V/T =  2.0089
 Calling FoFJK, ICntrl=      2127 FMM=F ISym2X=1 I1Cent= 0 IOpClX= 0 NMat=1 NMatS=1 NMatT=0.
 FoFJK:  IHMeth= 1 ICntrl=  2127 DoSepK=T KAlg= 1 I1Cent= 0 FoldK=F
 ***** Axes restored to original set *****
 -------------------------------------------------------------------
 Center     Atomic                   Forces (Hartrees/Bohr)
 Number     Number              X              Y              Z
 -------------------------------------------------------------------
      1        1           0.000687313    0.000000000    0.000890388
      2        6           0.003846743    0.000000000   -0.002552967
      3        1          -0.000343504    0.000000000    0.001477322
      4        6          -0.004174702    0.000000000    0.001052772
      5        1          -0.001016265    0.000000000   -0.000767120
      6        6           0.001538360    0.000000000    0.003019974
      7        7           0.010371729    0.000000000   -0.000654178
      8        1           0.000574145    0.000000000   -0.001537322
      9        7          -0.011483819    0.000000000   -0.000928868
 -------------------------------------------------------------------
 Cartesian Forces:  Max     0.011483819 RMS     0.003333110

 GradGradGradGradGradGradGradGradGradGradGradGradGradGradGradGradGradGrad
 Berny optimization.
 Using GEDIIS/GDIIS optimizer.
 Internal  Forces:  Max     0.009302711 RMS     0.001879409
 Search for a local minimum.
 Step number   3 out of a maximum of   48
 All quantities printed in internal units (Hartrees-Bohrs-Radians)
 Mixed Optimization -- RFO/linear search
 Update second derivatives using D2CorX and points    1    2    3
 DE= -9.99D-03 DEPred=-7.46D-03 R= 1.34D+00
 SS=  1.41D+00  RLast= 2.40D-01 DXNew= 8.4853D-01 7.1999D-01
 Trust test= 1.34D+00 RLast= 2.40D-01 DXMaxT set to 7.20D-01
 Use linear search instead of GDIIS.
     Eigenvalues ---    0.03203   0.03248   0.03251   0.03273   0.03342
     Eigenvalues ---    0.03372   0.15261   0.16000   0.16003   0.16025
     Eigenvalues ---    0.22059   0.23437   0.46937   0.49520   0.49716
     Eigenvalues ---    0.57252   0.58476   0.60256   0.67172   0.69435
     Eigenvalues ---    0.809531000.000001000.000001000.000001000.00000
     Eigenvalues --- 1000.000001000.000001000.000001000.000001000.00000
     Eigenvalues --- 1000.000001000.000001000.000001000.000001000.00000
     Eigenvalues --- 1000.000001000.000001000.00000
 RFO step:  Lambda=-2.07946919D-04 EMin= 3.20301974D-02
 Quartic linear search produced a step of -0.00509.
 Iteration  1 RMS(Cart)=  0.00391965 RMS(Int)=  0.00000824
 Iteration  2 RMS(Cart)=  0.00000845 RMS(Int)=  0.00000116
 Iteration  3 RMS(Cart)=  0.00000000 RMS(Int)=  0.00000116
 ClnCor:  largest displacement from symmetrization is 5.55D-16 for atom     2.
 Variable       Old X    -DE/DX   Delta X   Delta X   Delta X     New X
                                 (Linear)    (Quad)   (Total)
    R1        2.04376  -0.00102  -0.00036  -0.00086  -0.00122   2.04254
    R2        2.61848  -0.00351  -0.00025  -0.00572  -0.00598   2.61251
    R3        2.55725  -0.00083  -0.00028   0.00037   0.00008   2.55733
    R4        2.04396  -0.00151  -0.00037  -0.00183  -0.00220   2.04175
    R5        2.66268   0.00080  -0.00034   0.00147   0.00113   2.66380
    R6        2.04620  -0.00107  -0.00037  -0.00099  -0.00136   2.04484
    R7        2.51864  -0.00263  -0.00020  -0.00267  -0.00287   2.51577
    R8        2.50468   0.00930  -0.00037   0.01254   0.01217   2.51684
    R9        1.90585  -0.00146  -0.00027  -0.00147  -0.00173   1.90411
    A1        2.30132   0.00016  -0.00033   0.00287   0.00253   2.30386
    A2        2.13533  -0.00081   0.00034  -0.00413  -0.00379   2.13154
    A3        1.84653   0.00065   0.00000   0.00126   0.00126   1.84779
    A4        2.22169  -0.00116   0.00000  -0.00224  -0.00224   2.21945
    A5        1.81782   0.00251   0.00006   0.00547   0.00554   1.82335
    A6        2.24368  -0.00135  -0.00006  -0.00324  -0.00329   2.24039
    A7        2.25212  -0.00046  -0.00022  -0.00193  -0.00214   2.24998
    A8        1.95131  -0.00050  -0.00012  -0.00396  -0.00408   1.94723
    A9        2.07976   0.00096   0.00034   0.00588   0.00622   2.08598
   A10        1.82109  -0.00046   0.00012   0.00269   0.00280   1.82390
   A11        1.98802  -0.00221  -0.00005  -0.00546  -0.00551   1.98251
   A12        2.22522   0.00039  -0.00025  -0.00121  -0.00146   2.22376
   A13        2.06994   0.00182   0.00030   0.00668   0.00698   2.07692
    D1        0.00000   0.00000   0.00000   0.00000   0.00000   0.00000
    D2        3.14159   0.00000   0.00000   0.00000   0.00000   3.14159
    D3        3.14159   0.00000   0.00000   0.00000   0.00000   3.14159
    D4        0.00000   0.00000   0.00000   0.00000   0.00000   0.00000
    D5        3.14159   0.00000   0.00000   0.00000   0.00000   3.14159
    D6        0.00000   0.00000   0.00000   0.00000   0.00000   0.00000
    D7        0.00000   0.00000   0.00000   0.00000   0.00000   0.00000
    D8        3.14159   0.00000   0.00000   0.00000   0.00000   3.14159
    D9        3.14159   0.00000   0.00000   0.00000   0.00000   3.14159
   D10        0.00000   0.00000   0.00000   0.00000   0.00000   0.00000
   D11        0.00000   0.00000   0.00000   0.00000   0.00000   0.00000
   D12        3.14159   0.00000   0.00000   0.00000   0.00000   3.14159
   D13        0.00000   0.00000   0.00000   0.00000   0.00000   0.00000
   D14        3.14159   0.00000   0.00000   0.00000   0.00000   3.14159
   D15        0.00000   0.00000   0.00000   0.00000   0.00000   0.00000
   D16        3.14159   0.00000   0.00000   0.00000   0.00000   3.14159
         Item               Value     Threshold  Converged?
 Maximum Force            0.009303     0.000450     NO 
 RMS     Force            0.001879     0.000300     NO 
 Maximum Displacement     0.010978     0.001800     NO 
 RMS     Displacement     0.003919     0.001200     NO 
 Predicted change in Energy=-1.041651D-04
 GradGradGradGradGradGradGradGradGradGradGradGradGradGradGradGradGradGrad

                          Input orientation:                          
 ---------------------------------------------------------------------
 Center     Atomic      Atomic             Coordinates (Angstroms)
 Number     Number       Type             X           Y           Z
 ---------------------------------------------------------------------
      1          1           0       -2.087336    0.000000   -0.788588
      2          6           0       -1.131414    0.000000   -0.284125
      3          1           0        0.481894    0.000000   -1.794281
      4          6           0        0.166223    0.000000   -0.760974
      5          1           0        2.046718    0.000000    0.479175
      6          6           0        0.967634    0.000000    0.398673
      7          7           0        0.227347    0.000000    1.505157
      8          1           0       -1.781897    0.000000    1.735876
      9          7           0       -1.029793    0.000000    1.065337
 ---------------------------------------------------------------------
                    Distance matrix (angstroms):
                    1          2          3          4          5
     1  H    0.000000
     2  C    1.080865   0.000000
     3  H    2.759052   2.209828   0.000000
     4  C    2.253728   1.382479   1.080450   0.000000
     5  H    4.324075   3.268509   2.759941   2.252605   0.000000
     6  C    3.277565   2.207309   2.246106   1.409625   1.082083
     7  N    3.258684   2.246722   3.309243   2.266955   2.088720
     8  H    2.542875   2.122153   4.193658   3.166928   4.029589
     9  N    2.134346   1.353283   3.234597   2.183087   3.131853
                    6          7          8          9
     6  C    0.000000
     7  N    1.331289   0.000000
     8  H    3.057455   2.022447   0.000000
     9  N    2.105743   1.331857   1.007613   0.000000
 Stoichiometry    C3H4N2
 Framework group  CS[SG(C3H4N2)]
 Deg. of freedom    15
 Full point group                 CS      NOp   2
 Largest Abelian subgroup         CS      NOp   2
 Largest concise Abelian subgroup C1      NOp   1
                         Standard orientation:                         
 ---------------------------------------------------------------------
 Center     Atomic      Atomic             Coordinates (Angstroms)
 Number     Number       Type             X           Y           Z
 ---------------------------------------------------------------------
      1          1           0        2.104862    0.727007    0.000000
      2          6           0        1.109491    0.305692    0.000000
      3          1           0        1.258712   -1.899092    0.000000
      4          6           0        0.658043   -1.001000    0.000000
      5          1           0       -1.491961   -1.673095    0.000000
      6          6           0       -0.747062   -0.888220    0.000000
      7          7           0       -1.135830    0.385040    0.000000
      8          1           0       -0.043636    2.087217    0.000000
      9          7           0        0.000000    1.080549    0.000000
 ---------------------------------------------------------------------
 Rotational constants (GHZ):      9.6834622      9.4980883      4.7949398
 Standard basis: 6-31+G(d,p) (6D, 7F)
 There are    86 symmetry adapted basis functions of A'  symmetry.
 There are    29 symmetry adapted basis functions of A"  symmetry.
 Integral buffers will be    131072 words long.
 Raffenetti 2 integral format.
 Two-electron integral symmetry is turned on.
   115 basis functions,   188 primitive gaussians,   115 cartesian basis functions
    18 alpha electrons       18 beta electrons
       nuclear repulsion energy       163.4724959486 Hartrees.
 NAtoms=    9 NActive=    9 NUniq=    9 SFac= 7.50D-01 NAtFMM=   80 NAOKFM=F Big=F
 One-electron integrals computed using PRISM.
 NBasis=   115 RedAO= T  NBF=    86    29
 NBsUse=   115 1.00D-06 NBFU=    86    29
 Initial guess read from the read-write file.
 B after Tr=     0.000000    0.000000    0.000000
         Rot=    1.000000    0.000000    0.000000    0.000000 Ang=   0.00 deg.
 Initial guess orbital symmetries:
       Occupied  (A') (A') (A') (A') (A') (A') (A') (A') (A') (A')
                 (A') (A") (A') (A') (A') (A') (A") (A")
       Virtual   (A') (A") (A') (A') (A") (A') (A') (A") (A') (A")
                 (A') (A") (A') (A') (A') (A") (A') (A') (A') (A")
                 (A') (A') (A') (A') (A') (A') (A') (A') (A') (A')
                 (A') (A') (A") (A") (A') (A") (A') (A') (A') (A')
                 (A') (A") (A') (A') (A") (A') (A') (A') (A') (A')
                 (A') (A") (A') (A") (A") (A') (A") (A") (A') (A')
                 (A') (A') (A') (A') (A') (A") (A') (A") (A") (A')
                 (A") (A') (A") (A') (A") (A') (A') (A') (A") (A')
                 (A") (A') (A") (A') (A') (A') (A') (A') (A') (A')
                 (A') (A') (A') (A') (A') (A') (A')
 Requested convergence on RMS density matrix=1.00D-08 within 128 cycles.
 Requested convergence on MAX density matrix=1.00D-06.
 Requested convergence on             energy=1.00D-06.
 No special actions if energy rises.
 FoFJK:  IHMeth= 1 ICntrl=     0 DoSepK=T KAlg= 1 I1Cent= 0 FoldK=F
 FoFJK:  IHMeth= 1 ICntrl=     0 DoSepK=T KAlg= 1 I1Cent= 0 FoldK=F
 FoFJK:  IHMeth= 1 ICntrl=     0 DoSepK=T KAlg= 1 I1Cent= 0 FoldK=F
 FoFJK:  IHMeth= 1 ICntrl=     0 DoSepK=T KAlg= 1 I1Cent= 0 FoldK=F
 FoFJK:  IHMeth= 1 ICntrl=     0 DoSepK=T KAlg= 1 I1Cent= 0 FoldK=F
 FoFJK:  IHMeth= 1 ICntrl=     0 DoSepK=T KAlg= 1 I1Cent= 0 FoldK=F
 FoFJK:  IHMeth= 1 ICntrl=     0 DoSepK=T KAlg= 1 I1Cent= 0 FoldK=F
 FoFJK:  IHMeth= 1 ICntrl=     0 DoSepK=T KAlg= 1 I1Cent= 0 FoldK=F
 FoFJK:  IHMeth= 1 ICntrl=     0 DoSepK=T KAlg= 1 I1Cent= 0 FoldK=F
 FoFJK:  IHMeth= 1 ICntrl=     0 DoSepK=T KAlg= 1 I1Cent= 0 FoldK=F
 SCF Done:  E(RHSEH1PBE) =  -225.977012796     A.U. after   10 cycles
             Convg  =    0.2028D-08             -V/T =  2.0089
 Calling FoFJK, ICntrl=      2127 FMM=F ISym2X=1 I1Cent= 0 IOpClX= 0 NMat=1 NMatS=1 NMatT=0.
 FoFJK:  IHMeth= 1 ICntrl=  2127 DoSepK=T KAlg= 1 I1Cent= 0 FoldK=F
 ***** Axes restored to original set *****
 -------------------------------------------------------------------
 Center     Atomic                   Forces (Hartrees/Bohr)
 Number     Number              X              Y              Z
 -------------------------------------------------------------------
      1        1           0.000423202    0.000000000    0.000289535
      2        6           0.002287355    0.000000000   -0.000810824
      3        1          -0.000089002    0.000000000    0.000532707
      4        6          -0.001789490    0.000000000   -0.000835178
      5        1          -0.000639521    0.000000000   -0.000214947
      6        6          -0.001544273    0.000000000    0.001893644
      7        7           0.005364445    0.000000000    0.000822224
      8        1           0.000748498    0.000000000   -0.000413490
      9        7          -0.004761214    0.000000000   -0.001263670
 -------------------------------------------------------------------
 Cartesian Forces:  Max     0.005364445 RMS     0.001624127

 GradGradGradGradGradGradGradGradGradGradGradGradGradGradGradGradGradGrad
 Berny optimization.
 Using GEDIIS/GDIIS optimizer.
 Internal  Forces:  Max     0.003739646 RMS     0.000867826
 Search for a local minimum.
 Step number   4 out of a maximum of   48
 All quantities printed in internal units (Hartrees-Bohrs-Radians)
 Mixed Optimization -- En-DIIS/RFO-DIIS
 Update second derivatives using D2CorX and points    1    2    3    4
 DE= -1.34D-04 DEPred=-1.04D-04 R= 1.29D+00
 SS=  1.41D+00  RLast= 2.06D-02 DXNew= 1.2109D+00 6.1662D-02
 Trust test= 1.29D+00 RLast= 2.06D-02 DXMaxT set to 7.20D-01
 Use linear search instead of GDIIS.
     Eigenvalues ---    0.03203   0.03248   0.03251   0.03273   0.03342
     Eigenvalues ---    0.03373   0.15189   0.15450   0.16003   0.16241
     Eigenvalues ---    0.22066   0.29321   0.38832   0.47140   0.49556
     Eigenvalues ---    0.49764   0.57370   0.60295   0.61369   0.70544
     Eigenvalues ---    0.743691000.000001000.000001000.000001000.00000
     Eigenvalues --- 1000.000001000.000001000.000001000.000001000.00000
     Eigenvalues --- 1000.000001000.000001000.000001000.000001000.00000
     Eigenvalues --- 1000.000001000.000001000.00000
 RFO step:  Lambda=-6.09261952D-05 EMin= 3.20292870D-02
 Quartic linear search produced a step of  0.45032.
 Iteration  1 RMS(Cart)=  0.00250302 RMS(Int)=  0.00000510
 Iteration  2 RMS(Cart)=  0.00000527 RMS(Int)=  0.00000097
 Iteration  3 RMS(Cart)=  0.00000000 RMS(Int)=  0.00000097
 ClnCor:  largest displacement from symmetrization is 5.55D-16 for atom     3.
 Variable       Old X    -DE/DX   Delta X   Delta X   Delta X     New X
                                 (Linear)    (Quad)   (Total)
    R1        2.04254  -0.00051  -0.00055  -0.00072  -0.00127   2.04127
    R2        2.61251  -0.00216  -0.00269  -0.00429  -0.00698   2.60553
    R3        2.55733  -0.00009   0.00004   0.00064   0.00068   2.55801
    R4        2.04175  -0.00053  -0.00099  -0.00065  -0.00164   2.04011
    R5        2.66380   0.00059   0.00051   0.00111   0.00162   2.66543
    R6        2.04484  -0.00065  -0.00061  -0.00113  -0.00175   2.04309
    R7        2.51577  -0.00176  -0.00129  -0.00271  -0.00400   2.51177
    R8        2.51684   0.00374   0.00548   0.00552   0.01100   2.52784
    R9        1.90411  -0.00083  -0.00078  -0.00130  -0.00209   1.90203
    A1        2.30386  -0.00016   0.00114  -0.00044   0.00070   2.30456
    A2        2.13154  -0.00030  -0.00171  -0.00178  -0.00349   2.12805
    A3        1.84779   0.00047   0.00057   0.00222   0.00278   1.85057
    A4        2.21945   0.00001  -0.00101   0.00224   0.00123   2.22067
    A5        1.82335   0.00011   0.00249  -0.00358  -0.00109   1.82227
    A6        2.24039  -0.00012  -0.00148   0.00134  -0.00014   2.24025
    A7        2.24998  -0.00078  -0.00096  -0.00428  -0.00524   2.24473
    A8        1.94723   0.00120  -0.00184   0.00684   0.00500   1.95223
    A9        2.08598  -0.00042   0.00280  -0.00256   0.00025   2.08622
   A10        1.82390  -0.00140   0.00126  -0.00630  -0.00504   1.81886
   A11        1.98251  -0.00038  -0.00248   0.00083  -0.00166   1.98085
   A12        2.22376   0.00038  -0.00066   0.00211   0.00145   2.22522
   A13        2.07692   0.00000   0.00314  -0.00294   0.00021   2.07712
    D1        0.00000   0.00000   0.00000   0.00000   0.00000   0.00000
    D2        3.14159   0.00000   0.00000   0.00000   0.00000   3.14159
    D3        3.14159   0.00000   0.00000   0.00000   0.00000   3.14159
    D4        0.00000   0.00000   0.00000   0.00000   0.00000   0.00000
    D5        3.14159   0.00000   0.00000   0.00000   0.00000   3.14159
    D6        0.00000   0.00000   0.00000   0.00000   0.00000   0.00000
    D7        0.00000   0.00000   0.00000   0.00000   0.00000   0.00000
    D8        3.14159   0.00000   0.00000   0.00000   0.00000   3.14159
    D9        3.14159   0.00000   0.00000   0.00000   0.00000   3.14159
   D10        0.00000   0.00000   0.00000   0.00000   0.00000   0.00000
   D11        0.00000   0.00000   0.00000   0.00000   0.00000   0.00000
   D12        3.14159   0.00000   0.00000   0.00000   0.00000   3.14159
   D13        0.00000   0.00000   0.00000   0.00000   0.00000   0.00000
   D14        3.14159   0.00000   0.00000   0.00000   0.00000   3.14159
   D15        0.00000   0.00000   0.00000   0.00000   0.00000   0.00000
   D16        3.14159   0.00000   0.00000   0.00000   0.00000   3.14159
         Item               Value     Threshold  Converged?
 Maximum Force            0.003740     0.000450     NO 
 RMS     Force            0.000868     0.000300     NO 
 Maximum Displacement     0.007319     0.001800     NO 
 RMS     Displacement     0.002503     0.001200     NO 
 Predicted change in Energy=-4.369156D-05
 GradGradGradGradGradGradGradGradGradGradGradGradGradGradGradGradGradGrad

                          Input orientation:                          
 ---------------------------------------------------------------------
 Center     Atomic      Atomic             Coordinates (Angstroms)
 Number     Number       Type             X           Y           Z
 ---------------------------------------------------------------------
      1          1           0       -2.084954    0.000000   -0.788272
      2          6           0       -1.129172    0.000000   -0.284989
      3          1           0        0.481374    0.000000   -1.792980
      4          6           0        0.164901    0.000000   -0.760828
      5          1           0        2.044279    0.000000    0.475961
      6          6           0        0.965776    0.000000    0.400232
      7          7           0        0.231220    0.000000    1.507992
      8          1           0       -1.783041    0.000000    1.734046
      9          7           0       -1.031007    0.000000    1.065087
 ---------------------------------------------------------------------
                    Distance matrix (angstroms):
                    1          2          3          4          5
     1  H    0.000000
     2  C    1.080192   0.000000
     3  H    2.755989   2.206331   0.000000
     4  C    2.250023   1.378785   1.079580   0.000000
     5  H    4.318432   3.263409   2.755134   2.249824   0.000000
     6  C    3.274064   2.204163   2.246068   1.410482   1.081159
     7  N    3.261516   2.250654   3.310436   2.269788   2.086210
     8  H    2.540323   2.122274   4.191359   3.165261   4.028791
     9  N    2.132076   1.353640   3.233550   2.182696   3.131207
                    6          7          8          9
     6  C    0.000000
     7  N    1.329174   0.000000
     8  H    3.055332   2.026906   0.000000
     9  N    2.104560   1.337677   1.006509   0.000000
 Stoichiometry    C3H4N2
 Framework group  CS[SG(C3H4N2)]
 Deg. of freedom    15
 Full point group                 CS      NOp   2
 Largest Abelian subgroup         CS      NOp   2
 Largest concise Abelian subgroup C1      NOp   1
                         Standard orientation:                         
 ---------------------------------------------------------------------
 Center     Atomic      Atomic             Coordinates (Angstroms)
 Number     Number       Type             X           Y           Z
 ---------------------------------------------------------------------
      1          1           0        2.102668    0.728338    0.000000
      2          6           0        1.108919    0.304929    0.000000
      3          1           0        1.261433   -1.896124    0.000000
      4          6           0        0.660852   -0.999020    0.000000
      5          1           0       -1.484855   -1.675519    0.000000
      6          6           0       -0.745174   -0.886991    0.000000
      7          7           0       -1.140414    0.382060    0.000000
      8          1           0       -0.043929    2.086779    0.000000
      9          7           0        0.000000    1.081229    0.000000
 ---------------------------------------------------------------------
 Rotational constants (GHZ):      9.7002592      9.4777688      4.7938617
 Standard basis: 6-31+G(d,p) (6D, 7F)
 There are    86 symmetry adapted basis functions of A'  symmetry.
 There are    29 symmetry adapted basis functions of A"  symmetry.
 Integral buffers will be    131072 words long.
 Raffenetti 2 integral format.
 Two-electron integral symmetry is turned on.
   115 basis functions,   188 primitive gaussians,   115 cartesian basis functions
    18 alpha electrons       18 beta electrons
       nuclear repulsion energy       163.4502714256 Hartrees.
 NAtoms=    9 NActive=    9 NUniq=    9 SFac= 7.50D-01 NAtFMM=   80 NAOKFM=F Big=F
 One-electron integrals computed using PRISM.
 NBasis=   115 RedAO= T  NBF=    86    29
 NBsUse=   115 1.00D-06 NBFU=    86    29
 Initial guess read from the read-write file.
 B after Tr=     0.000000    0.000000    0.000000
         Rot=    1.000000    0.000000    0.000000    0.000000 Ang=   0.00 deg.
 Initial guess orbital symmetries:
       Occupied  (A') (A') (A') (A') (A') (A') (A') (A') (A') (A')
                 (A') (A') (A") (A') (A') (A') (A") (A")
       Virtual   (A') (A") (A') (A') (A") (A') (A') (A") (A') (A")
                 (A') (A") (A') (A') (A') (A') (A") (A') (A') (A")
                 (A') (A') (A') (A') (A') (A') (A') (A') (A') (A')
                 (A') (A') (A") (A") (A') (A") (A') (A') (A') (A')
                 (A') (A") (A') (A') (A") (A') (A') (A') (A') (A')
                 (A') (A") (A') (A") (A") (A') (A") (A") (A') (A')
                 (A') (A') (A') (A') (A') (A") (A') (A") (A') (A")
                 (A") (A') (A") (A') (A") (A') (A') (A') (A") (A')
                 (A") (A') (A") (A') (A') (A') (A') (A') (A') (A')
                 (A') (A') (A') (A') (A') (A') (A')
 Requested convergence on RMS density matrix=1.00D-08 within 128 cycles.
 Requested convergence on MAX density matrix=1.00D-06.
 Requested convergence on             energy=1.00D-06.
 No special actions if energy rises.
 FoFJK:  IHMeth= 1 ICntrl=     0 DoSepK=T KAlg= 1 I1Cent= 0 FoldK=F
 FoFJK:  IHMeth= 1 ICntrl=     0 DoSepK=T KAlg= 1 I1Cent= 0 FoldK=F
 FoFJK:  IHMeth= 1 ICntrl=     0 DoSepK=T KAlg= 1 I1Cent= 0 FoldK=F
 FoFJK:  IHMeth= 1 ICntrl=     0 DoSepK=T KAlg= 1 I1Cent= 0 FoldK=F
 FoFJK:  IHMeth= 1 ICntrl=     0 DoSepK=T KAlg= 1 I1Cent= 0 FoldK=F
 FoFJK:  IHMeth= 1 ICntrl=     0 DoSepK=T KAlg= 1 I1Cent= 0 FoldK=F
 FoFJK:  IHMeth= 1 ICntrl=     0 DoSepK=T KAlg= 1 I1Cent= 0 FoldK=F
 FoFJK:  IHMeth= 1 ICntrl=     0 DoSepK=T KAlg= 1 I1Cent= 0 FoldK=F
 FoFJK:  IHMeth= 1 ICntrl=     0 DoSepK=T KAlg= 1 I1Cent= 0 FoldK=F
 FoFJK:  IHMeth= 1 ICntrl=     0 DoSepK=T KAlg= 1 I1Cent= 0 FoldK=F
 SCF Done:  E(RHSEH1PBE) =  -225.977053370     A.U. after   10 cycles
             Convg  =    0.1846D-08             -V/T =  2.0089
 Calling FoFJK, ICntrl=      2127 FMM=F ISym2X=1 I1Cent= 0 IOpClX= 0 NMat=1 NMatS=1 NMatT=0.
 FoFJK:  IHMeth= 1 ICntrl=  2127 DoSepK=T KAlg= 1 I1Cent= 0 FoldK=F
 ***** Axes restored to original set *****
 -------------------------------------------------------------------
 Center     Atomic                   Forces (Hartrees/Bohr)
 Number     Number              X              Y              Z
 -------------------------------------------------------------------
      1        1          -0.000014618    0.000000000   -0.000100740
      2        6          -0.000326216    0.000000000    0.001106315
      3        1           0.000151217    0.000000000   -0.000005838
      4        6           0.000534667    0.000000000   -0.000578280
      5        1           0.000154340    0.000000000    0.000018066
      6        6           0.000033663    0.000000000    0.000453043
      7        7           0.000094325    0.000000000   -0.000720036
      8        1           0.000099157    0.000000000    0.000217367
      9        7          -0.000726535    0.000000000   -0.000389898
 -------------------------------------------------------------------
 Cartesian Forces:  Max     0.001106315 RMS     0.000358945

 GradGradGradGradGradGradGradGradGradGradGradGradGradGradGradGradGradGrad
 Berny optimization.
 Using GEDIIS/GDIIS optimizer.
 Internal  Forces:  Max     0.000896721 RMS     0.000227560
 Search for a local minimum.
 Step number   5 out of a maximum of   48
 All quantities printed in internal units (Hartrees-Bohrs-Radians)
 Mixed Optimization -- En-DIIS/RFO-DIIS
 Swaping is turned off.
 Update second derivatives using D2CorX and points    1    2    3    4    5
 DE= -4.06D-05 DEPred=-4.37D-05 R= 9.29D-01
 SS=  1.41D+00  RLast= 1.75D-02 DXNew= 1.2109D+00 5.2518D-02
 Trust test= 9.29D-01 RLast= 1.75D-02 DXMaxT set to 7.20D-01
     Eigenvalues ---    0.03203   0.03248   0.03250   0.03273   0.03342
     Eigenvalues ---    0.03373   0.14892   0.15178   0.16014   0.16554
     Eigenvalues ---    0.20742   0.30979   0.41188   0.47105   0.49556
     Eigenvalues ---    0.49783   0.57392   0.60252   0.60902   0.70543
     Eigenvalues ---    0.735621000.000001000.000001000.000001000.00000
     Eigenvalues --- 1000.000001000.000001000.000001000.000001000.00000
     Eigenvalues --- 1000.000001000.000001000.000001000.000001000.00000
     Eigenvalues --- 1000.000001000.000001000.00000
 En-DIIS/RFO-DIIS IScMMF=        0 using points:     5    4
 RFO step:  Lambda=-2.96688599D-06.
 DIIS coeffs:      0.92850      0.07150
 Iteration  1 RMS(Cart)=  0.00072215 RMS(Int)=  0.00000047
 Iteration  2 RMS(Cart)=  0.00000052 RMS(Int)=  0.00000012
 ClnCor:  largest displacement from symmetrization is 5.56D-14 for atom     6.
 Variable       Old X    -DE/DX   Delta X   Delta X   Delta X     New X
                                  (DIIS)     (GDIIS)  (Total)
    R1        2.04127   0.00006   0.00009   0.00004   0.00013   2.04140
    R2        2.60553   0.00090   0.00050   0.00079   0.00129   2.60682
    R3        2.55801  -0.00046  -0.00005  -0.00048  -0.00053   2.55748
    R4        2.04011   0.00005   0.00012   0.00000   0.00011   2.04022
    R5        2.66543   0.00005  -0.00012   0.00032   0.00021   2.66563
    R6        2.04309   0.00016   0.00012   0.00017   0.00030   2.04339
    R7        2.51177  -0.00031   0.00029  -0.00079  -0.00050   2.51127
    R8        2.52784   0.00012  -0.00079   0.00111   0.00032   2.52817
    R9        1.90203   0.00007   0.00015  -0.00005   0.00009   1.90212
    A1        2.30456  -0.00016  -0.00005  -0.00087  -0.00092   2.30363
    A2        2.12805  -0.00001   0.00025  -0.00035  -0.00010   2.12796
    A3        1.85057   0.00017  -0.00020   0.00122   0.00102   1.85160
    A4        2.22067   0.00023  -0.00009   0.00117   0.00108   2.22175
    A5        1.82227  -0.00019   0.00008  -0.00064  -0.00057   1.82170
    A6        2.24025  -0.00004   0.00001  -0.00053  -0.00052   2.23973
    A7        2.24473   0.00010   0.00038  -0.00016   0.00021   2.24494
    A8        1.95223  -0.00020  -0.00036  -0.00018  -0.00053   1.95170
    A9        2.08622   0.00011  -0.00002   0.00034   0.00032   2.08654
   A10        1.81886   0.00056   0.00036   0.00121   0.00157   1.82043
   A11        1.98085  -0.00034   0.00012  -0.00161  -0.00150   1.97935
   A12        2.22522   0.00040  -0.00010   0.00227   0.00217   2.22738
   A13        2.07712  -0.00006  -0.00001  -0.00066  -0.00067   2.07645
    D1        0.00000   0.00000   0.00000   0.00000   0.00000   0.00000
    D2        3.14159   0.00000   0.00000   0.00000   0.00000   3.14159
    D3        3.14159   0.00000   0.00000   0.00000   0.00000   3.14159
    D4        0.00000   0.00000   0.00000   0.00000   0.00000   0.00000
    D5        3.14159   0.00000   0.00000   0.00000   0.00000   3.14159
    D6        0.00000   0.00000   0.00000   0.00000   0.00000   0.00000
    D7        0.00000   0.00000   0.00000   0.00000   0.00000   0.00000
    D8        3.14159   0.00000   0.00000   0.00000   0.00000   3.14159
    D9        3.14159   0.00000   0.00000   0.00000   0.00000   3.14159
   D10        0.00000   0.00000   0.00000   0.00000   0.00000   0.00000
   D11        0.00000   0.00000   0.00000   0.00000   0.00000   0.00000
   D12        3.14159   0.00000   0.00000   0.00000   0.00000   3.14159
   D13        0.00000   0.00000   0.00000   0.00000   0.00000   0.00000
   D14        3.14159   0.00000   0.00000   0.00000   0.00000   3.14159
   D15        0.00000   0.00000   0.00000   0.00000   0.00000   0.00000
   D16        3.14159   0.00000   0.00000   0.00000   0.00000   3.14159
         Item               Value     Threshold  Converged?
 Maximum Force            0.000897     0.000450     NO 
 RMS     Force            0.000228     0.000300     YES
 Maximum Displacement     0.002610     0.001800     NO 
 RMS     Displacement     0.000722     0.001200     YES
 Predicted change in Energy=-2.417462D-06
 GradGradGradGradGradGradGradGradGradGradGradGradGradGradGradGradGradGrad

                          Input orientation:                          
 ---------------------------------------------------------------------
 Center     Atomic      Atomic             Coordinates (Angstroms)
 Number     Number       Type             X           Y           Z
 ---------------------------------------------------------------------
      1          1           0       -2.084968    0.000000   -0.788390
      2          6           0       -1.129365    0.000000   -0.284614
      3          1           0        0.482289    0.000000   -1.793270
      4          6           0        0.165138    0.000000   -0.761263
      5          1           0        2.044566    0.000000    0.476091
      6          6           0        0.965931    0.000000    0.399986
      7          7           0        0.230793    0.000000    1.507042
      8          1           0       -1.783008    0.000000    1.735428
      9          7           0       -1.032001    0.000000    1.065240
 ---------------------------------------------------------------------
                    Distance matrix (angstroms):
                    1          2          3          4          5
     1  H    0.000000
     2  C    1.080262   0.000000
     3  H    2.756918   2.207594   0.000000
     4  C    2.250270   1.379468   1.079640   0.000000
     5  H    4.318792   3.263819   2.755124   2.250176   0.000000
     6  C    3.274175   2.204301   2.245948   1.410592   1.081317
     7  N    3.260637   2.249459   3.309880   2.269255   2.086296
     8  H    2.541817   2.123162   4.193242   3.166818   4.029423
     9  N    2.131826   1.353361   3.234834   2.183862   3.132469
                    6          7          8          9
     6  C    0.000000
     7  N    1.328909   0.000000
     8  H    3.056152   2.026710   0.000000
     9  N    2.105776   1.337849   1.006560   0.000000
 Stoichiometry    C3H4N2
 Framework group  CS[SG(C3H4N2)]
 Deg. of freedom    15
 Full point group                 CS      NOp   2
 Largest Abelian subgroup         CS      NOp   2
 Largest concise Abelian subgroup C1      NOp   1
                         Standard orientation:                         
 ---------------------------------------------------------------------
 Center     Atomic      Atomic             Coordinates (Angstroms)
 Number     Number       Type             X           Y           Z
 ---------------------------------------------------------------------
      1          1           0        2.102337    0.728692    0.000000
      2          6           0        1.108414    0.305511    0.000000
      3          1           0        1.261236   -1.896787    0.000000
      4          6           0        0.660995   -0.999383    0.000000
[...]
 Frc consts  --     3.7815                 4.6890                 6.9366
 IR Inten    --     6.7772                 6.7894                 2.2498
  Atom  AN      X      Y      Z        X      Y      Z        X      Y      Z
     1   1     0.01  -0.32   0.00     0.30  -0.27   0.00    -0.19  -0.08   0.00
     2   6    -0.18   0.17   0.00     0.05   0.23   0.00     0.02   0.01   0.00
     3   1    -0.13  -0.23   0.00     0.30  -0.02   0.00     0.25  -0.38   0.00
     4   6     0.11  -0.05   0.00    -0.05  -0.21   0.00    -0.02   0.03   0.00
     5   1     0.08  -0.12   0.00     0.36  -0.23   0.00     0.59   0.63   0.00
     6   6    -0.08   0.05   0.00    -0.12   0.20   0.00    -0.05  -0.06   0.00
     7   7    -0.04   0.00   0.00     0.08  -0.13   0.00     0.00   0.00   0.00
     8   1    -0.79  -0.16   0.00     0.61   0.00   0.00     0.00   0.01   0.00
     9   7     0.23  -0.09   0.00    -0.09  -0.03   0.00     0.00   0.00   0.00
                    19                     20                     21
                    A'                     A'                     A'
 Frequencies --  3295.0316              3312.3283              3717.6504
 Red. masses --     1.0949                 1.1078                 1.0821
 Frc consts  --     7.0041                 7.1609                 8.8115
 IR Inten    --     1.3589                 0.1016                91.7205
  Atom  AN      X      Y      Z        X      Y      Z        X      Y      Z
     1   1     0.70   0.29   0.00    -0.56  -0.24   0.00     0.01   0.00   0.00
     2   6    -0.06  -0.02   0.00     0.05   0.03   0.00     0.00   0.00   0.00
     3   1    -0.27   0.39   0.00    -0.41   0.62   0.00     0.00   0.00   0.00
     4   6     0.03  -0.03   0.00     0.04  -0.06   0.00     0.00   0.00   0.00
     5   1     0.30   0.31   0.00     0.17   0.18   0.00     0.00   0.00   0.00
     6   6    -0.03  -0.03   0.00    -0.02  -0.02   0.00     0.00   0.00   0.00
     7   7     0.00   0.00   0.00     0.00   0.00   0.00     0.00   0.00   0.00
     8   1     0.00  -0.01   0.00     0.00   0.01   0.00    -0.05   1.00   0.00
     9   7     0.00   0.00   0.00     0.00   0.00   0.00     0.01  -0.08   0.00

 -------------------
 - Thermochemistry -
 -------------------
 Temperature   298.150 Kelvin.  Pressure   1.00000 Atm.
 Atom     1 has atomic number  1 and mass   1.00783
 Atom     2 has atomic number  6 and mass  12.00000
 Atom     3 has atomic number  1 and mass   1.00783
 Atom     4 has atomic number  6 and mass  12.00000
 Atom     5 has atomic number  1 and mass   1.00783
 Atom     6 has atomic number  6 and mass  12.00000
 Atom     7 has atomic number  7 and mass  14.00307
 Atom     8 has atomic number  1 and mass   1.00783
 Atom     9 has atomic number  7 and mass  14.00307
 Molecular mass:    68.03745 amu.
 Principal axes and moments of inertia in atomic units:
                           1         2         3
     Eigenvalues --   186.21753 190.31120 376.52873
           X            0.89924   0.43745   0.00000
           Y           -0.43745   0.89924   0.00000
           Z            0.00000   0.00000   1.00000
 This molecule is an asymmetric top.
 Rotational symmetry number  1.
 Rotational temperatures (Kelvin)      0.46512     0.45512     0.23003
 Rotational constants (GHZ):           9.69158     9.48311     4.79310
 Zero-point vibrational energy     189334.6 (Joules/Mol)
                                   45.25206 (Kcal/Mol)
 Warning -- explicit consideration of   1 degrees of freedom as
           vibrations may cause significant error
 Vibrational temperatures:    796.67   918.81  1002.50  1091.06  1220.76
          (Kelvin)           1295.84  1325.20  1358.73  1533.32  1540.80
                             1675.69  1741.22  1870.88  2031.80  2096.88
                             2175.35  2288.53  4723.97  4740.81  4765.70
                             5348.86
 
 Zero-point correction=                           0.072114 (Hartree/Particle)
 Thermal correction to Energy=                    0.075818
 Thermal correction to Enthalpy=                  0.076762
 Thermal correction to Gibbs Free Energy=         0.045871
 Sum of electronic and zero-point Energies=           -225.904942
 Sum of electronic and thermal Energies=              -225.901238
 Sum of electronic and thermal Enthalpies=            -225.900294
 Sum of electronic and thermal Free Energies=         -225.931185
 
                     E (Thermal)             CV                S
                      KCal/Mol        Cal/Mol-Kelvin    Cal/Mol-Kelvin
 Total                   47.576             13.096             65.016
 Electronic               0.000              0.000              0.000
 Translational            0.889              2.981             38.570
 Rotational               0.889              2.981             24.105
 Vibrational             45.799              7.134              2.341
 Vibration     1          0.909              1.132              0.537
                       Q            Log10(Q)             Ln(Q)
 Total Bot       0.796111D-21        -21.099026        -48.582303
 Total V=0       0.117739D+13         12.070922         27.794325
 Vib (Bot)       0.872788D-33        -33.059091        -76.121371
 Vib (Bot)    1  0.282406D+00         -0.549125         -1.264408
 Vib (V=0)       0.129079D+01          0.110857          0.255257
 Vib (V=0)    1  0.107424D+01          0.031102          0.071615
 Electronic      0.100000D+01          0.000000          0.000000
 Translational   0.220586D+08          7.343577         16.909211
 Rotational      0.413512D+05          4.616488         10.629856
 ***** Axes restored to original set *****
 -------------------------------------------------------------------
 Center     Atomic                   Forces (Hartrees/Bohr)
 Number     Number              X              Y              Z
 -------------------------------------------------------------------
      1        1           0.000011878    0.000000000   -0.000091889
      2        6          -0.000246582    0.000000000    0.000385756
      3        1           0.000017272    0.000000000    0.000011784
      4        6           0.000075762    0.000000000   -0.000147263
      5        1           0.000028866    0.000000000    0.000036600
      6        6          -0.000232964    0.000000000    0.000244559
      7        7           0.000139068    0.000000000    0.000027123
      8        1           0.000064599    0.000000000    0.000052392
      9        7           0.000142100    0.000000000   -0.000519061
 -------------------------------------------------------------------
 Cartesian Forces:  Max     0.000519061 RMS     0.000158573

 GradGradGradGradGradGradGradGradGradGradGradGradGradGradGradGradGradGrad
 Berny optimization.
 Internal  Forces:  Max     0.000261438 RMS     0.000084966
 Search for a local minimum.
 Step number   1 out of a maximum of    2
 All quantities printed in internal units (Hartrees-Bohrs-Radians)
 Second derivative matrix not updated -- analytic derivatives used.
     Eigenvalues ---    0.00795   0.01172   0.01636   0.02787   0.05866
     Eigenvalues ---    0.06199   0.09330   0.10368   0.11098   0.11976
     Eigenvalues ---    0.22710   0.27157   0.36055   0.37759   0.38258
     Eigenvalues ---    0.38426   0.41512   0.44219   0.49019   0.50676
     Eigenvalues ---    0.584101000.000001000.000001000.000001000.00000
     Eigenvalues --- 1000.000001000.000001000.000001000.000001000.00000
     Eigenvalues --- 1000.000001000.000001000.000001000.000001000.00000
     Eigenvalues --- 1000.000001000.000001000.00000
 Angle between quadratic step and forces=  34.01 degrees.
 Linear search not attempted -- first point.
 Iteration  1 RMS(Cart)=  0.00029998 RMS(Int)=  0.00000011
 Iteration  2 RMS(Cart)=  0.00000011 RMS(Int)=  0.00000001
 ClnCor:  largest displacement from symmetrization is 7.51D-12 for atom     6.
 Variable       Old X    -DE/DX   Delta X   Delta X   Delta X     New X
                                 (Linear)    (Quad)   (Total)
    R1        2.04140   0.00003   0.00000   0.00007   0.00007   2.04147
    R2        2.60682   0.00009   0.00000   0.00041   0.00041   2.60723
    R3        2.55748  -0.00026   0.00000  -0.00072  -0.00072   2.55677
    R4        2.04022  -0.00001   0.00000  -0.00003  -0.00003   2.04020
    R5        2.66563   0.00009   0.00000   0.00019   0.00019   2.66582
    R6        2.04339   0.00003   0.00000   0.00011   0.00011   2.04350
    R7        2.51127  -0.00025   0.00000  -0.00040  -0.00040   2.51087
    R8        2.52817   0.00000   0.00000   0.00011   0.00011   2.52828
    R9        1.90212  -0.00001   0.00000  -0.00001  -0.00001   1.90211
    A1        2.30363  -0.00002   0.00000  -0.00068  -0.00068   2.30296
    A2        2.12796   0.00013   0.00000   0.00088   0.00088   2.12884
    A3        1.85160  -0.00011   0.00000  -0.00020  -0.00020   1.85139
    A4        2.22175   0.00004   0.00000   0.00021   0.00021   2.22196
    A5        1.82170  -0.00005   0.00000  -0.00020  -0.00020   1.82150
    A6        2.23973   0.00002   0.00000   0.00000   0.00000   2.23973
    A7        2.24494  -0.00001   0.00000  -0.00005  -0.00005   2.24489
    A8        1.95170   0.00006   0.00000   0.00023   0.00023   1.95192
    A9        2.08654  -0.00006   0.00000  -0.00017  -0.00017   2.08637
   A10        1.82043  -0.00010   0.00000  -0.00033  -0.00033   1.82010
   A11        1.97935   0.00020   0.00000   0.00051   0.00051   1.97986
   A12        2.22738  -0.00001   0.00000   0.00047   0.00047   2.22786
   A13        2.07645  -0.00019   0.00000  -0.00098  -0.00098   2.07547
    D1        0.00000   0.00000   0.00000   0.00000   0.00000   0.00000
    D2        3.14159   0.00000   0.00000   0.00000   0.00000   3.14159
    D3        3.14159   0.00000   0.00000   0.00000   0.00000   3.14159
    D4        0.00000   0.00000   0.00000   0.00000   0.00000   0.00000
    D5        3.14159   0.00000   0.00000   0.00000   0.00000   3.14159
    D6        0.00000   0.00000   0.00000   0.00000   0.00000   0.00000
    D7        0.00000   0.00000   0.00000   0.00000   0.00000   0.00000
    D8        3.14159   0.00000   0.00000   0.00000   0.00000   3.14159
    D9        3.14159   0.00000   0.00000   0.00000   0.00000   3.14159
   D10        0.00000   0.00000   0.00000   0.00000   0.00000   0.00000
   D11        0.00000   0.00000   0.00000   0.00000   0.00000   0.00000
   D12        3.14159   0.00000   0.00000   0.00000   0.00000   3.14159
   D13        0.00000   0.00000   0.00000   0.00000   0.00000   0.00000
   D14        3.14159   0.00000   0.00000   0.00000   0.00000   3.14159
   D15        0.00000   0.00000   0.00000   0.00000   0.00000   0.00000
   D16        3.14159   0.00000   0.00000   0.00000   0.00000   3.14159
         Item               Value     Threshold  Converged?
 Maximum Force            0.000261     0.000450     YES
 RMS     Force            0.000085     0.000300     YES
 Maximum Displacement     0.001119     0.001800     YES
 RMS     Displacement     0.000300     0.001200     YES
 Predicted change in Energy=-4.298329D-07
 Optimization completed.
    -- Stationary point found.
                           ----------------------------
                           !   Optimized Parameters   !
                           ! (Angstroms and Degrees)  !
 --------------------------                            --------------------------
 ! Name  Definition              Value          Derivative Info.                !
 --------------------------------------------------------------------------------
 ! R1    R(1,2)                  1.0803         -DE/DX =    0.0                 !
 ! R2    R(2,4)                  1.3795         -DE/DX =    0.0001              !
 ! R3    R(2,9)                  1.3534         -DE/DX =   -0.0003              !
 ! R4    R(3,4)                  1.0796         -DE/DX =    0.0                 !
 ! R5    R(4,6)                  1.4106         -DE/DX =    0.0001              !
 ! R6    R(5,6)                  1.0813         -DE/DX =    0.0                 !
 ! R7    R(6,7)                  1.3289         -DE/DX =   -0.0002              !
 ! R8    R(7,9)                  1.3378         -DE/DX =    0.0                 !
 ! R9    R(8,9)                  1.0066         -DE/DX =    0.0                 !
 ! A1    A(1,2,4)              131.9885         -DE/DX =    0.0                 !
 ! A2    A(1,2,9)              121.9229         -DE/DX =    0.0001              !
 ! A3    A(4,2,9)              106.0886         -DE/DX =   -0.0001              !
 ! A4    A(2,4,3)              127.2972         -DE/DX =    0.0                 !
 ! A5    A(2,4,6)              104.3758         -DE/DX =   -0.0001              !
 ! A6    A(3,4,6)              128.327          -DE/DX =    0.0                 !
 ! A7    A(4,6,5)              128.6259         -DE/DX =    0.0                 !
 ! A8    A(4,6,7)              111.824          -DE/DX =    0.0001              !
 ! A9    A(5,6,7)              119.5502         -DE/DX =   -0.0001              !
 ! A10   A(6,7,9)              104.3031         -DE/DX =   -0.0001              !
 ! A11   A(2,9,7)              113.4085         -DE/DX =    0.0002              !
 ! A12   A(2,9,8)              127.6197         -DE/DX =    0.0                 !
 ! A13   A(7,9,8)              118.9718         -DE/DX =   -0.0002              !
 ! D1    D(1,2,4,3)              0.0            -DE/DX =    0.0                 !
 ! D2    D(1,2,4,6)            180.0            -DE/DX =    0.0                 !
 ! D3    D(9,2,4,3)            180.0            -DE/DX =    0.0                 !
 ! D4    D(9,2,4,6)              0.0            -DE/DX =    0.0                 !
 ! D5    D(1,2,9,7)            180.0            -DE/DX =    0.0                 !
 ! D6    D(1,2,9,8)              0.0            -DE/DX =    0.0                 !
 ! D7    D(4,2,9,7)              0.0            -DE/DX =    0.0                 !
 ! D8    D(4,2,9,8)            180.0            -DE/DX =    0.0                 !
 ! D9    D(2,4,6,5)            180.0            -DE/DX =    0.0                 !
 ! D10   D(2,4,6,7)              0.0            -DE/DX =    0.0                 !
 ! D11   D(3,4,6,5)              0.0            -DE/DX =    0.0                 !
 ! D12   D(3,4,6,7)            180.0            -DE/DX =    0.0                 !
 ! D13   D(4,6,7,9)              0.0            -DE/DX =    0.0                 !
 ! D14   D(5,6,7,9)            180.0            -DE/DX =    0.0                 !
 ! D15   D(6,7,9,2)              0.0            -DE/DX =    0.0                 !
 ! D16   D(6,7,9,8)            180.0            -DE/DX =    0.0                 !
 --------------------------------------------------------------------------------
 GradGradGradGradGradGradGradGradGradGradGradGradGradGradGradGradGradGrad

 1\1\GINC-P2223\Freq\RHSEH1PBE\6-31+G(d,p)\C3H4N2\RDJ3\31-Jul-2010\0\\#
 N Geom=AllCheck Guess=TCheck SCRF=Check GenChk RHSEH1PBE/6-31+G(d,p) F
 req\\1H pyrazole C3H4N2 casno=288131 method=57 basis=4\\0,1\H,-2.08496
 79909,0.,-0.7883896158\C,-1.1293653291,0.,-0.2846144285\H,0.482289344,
 0.,-1.7932697498\C,0.1651381854,0.,-0.7612628306\H,2.0445660909,0.,0.4
 760909384\C,0.9659306775,0.,0.3999864242\N,0.2307931476,0.,1.507042039
 4\H,-1.7830076861,0.,1.7354275359\N,-1.0320014392,0.,1.0652396868\\Ver
 sion=AM64L-G09RevA.02\State=1-A'\HF=-225.9770557\RMSD=7.262e-10\RMSF=1
 .586e-04\ZeroPoint=0.0721137\Thermal=0.0758177\Dipole=-0.8209157,0.,-0
 .4727271\DipoleDeriv=-0.0004143,0.,-0.0421875,0.,0.2038269,0.,-0.03201
 2,0.,0.076491,0.1370619,0.,-0.1834731,0.,-0.118465,0.,-0.3275377,0.,0.
 218263,0.0988362,0.,0.0264195,0.,0.1924151,0.,0.0319303,0.,-0.0238651,
 -0.2480855,0.,0.0212243,0.,-0.238726,0.,-0.0388188,0.,-0.0606121,-0.03
 62992,0.,-0.005722,0.,0.1606861,0.,-0.0282557,0.,0.0811242,0.1843554,0
 .,0.0905787,0.,-0.0984029,0.,0.2069406,0.,0.229454,0.0086073,0.,-0.207
 629,0.,-0.2336649,0.,-0.1098943,0.,-0.5805491,0.2172829,0.,-0.0572477,
 0.,0.3201385,0.,-0.0393004,0.,0.23188,-0.3613448,0.,0.3580367,0.,-0.18
 78079,0.,0.336948,0.,-0.172186\Polar=53.6842879,0.,30.709661,0.3370419
 ,0.,52.0418666\PG=CS [SG(C3H4N2)]\NImag=0\\0.30905127,0.,0.02069612,0.
 13746015,0.,0.12395635,-0.30385876,0.,-0.11881483,0.87351914,0.,-0.025
 78766,0.,0.,0.11955752,-0.12830492,0.,-0.12169934,0.09854416,0.,0.6638
 6206,0.00031276,0.,-0.00083130,0.00208165,0.,0.02582542,0.07645166,0.,
 -0.00275500,0.,0.,-0.00182102,0.,0.,0.02180990,0.00043869,0.,-0.000161
 13,-0.00354062,0.,0.00010755,-0.09497088,0.,0.35297194,-0.00687116,0.,
 0.00930723,-0.35562276,0.,0.07803181,-0.08360975,0.,0.08878003,0.63545
 752,0.,0.00123162,0.,0.,-0.06278795,0.,0.,-0.02607129,0.,0.,0.11556011
 ,-0.01511743,0.,0.01279678,0.10454042,0.,-0.14353608,0.08628025,0.,-0.
 34040590,-0.12009979,0.,0.84562662,-0.00018042,0.,0.00025623,-0.000726
 35,0.,-0.00107972,-0.00011416,0.,-0.00041041,-0.00472851,0.,0.00386376
 ,0.37812225,0.,0.00084955,0.,0.,0.00456473,0.,0.,-0.00186742,0.,0.,0.0
 0095641,0.,0.,0.02477102,-0.00103058,0.,0.00108048,-0.00317021,0.,-0.0
 0579656,0.00085148,0.,0.00018093,-0.02175747,0.,0.00673129,0.02194116,
 0.,0.05601995,-0.00456259,0.,0.00469087,-0.05311155,0.,-0.00044787,0.0
 1301140,0.,0.01228990,-0.18467971,0.,-0.11126732,-0.35795043,0.,-0.033
 39324,0.89951563,0.,0.00503223,0.,0.,0.01013049,0.,0.,-0.00279693,0.,0
 .,-0.06506636,0.,0.,-0.03106782,0.,0.,0.13986371,0.00090386,0.,-0.0020
 8501,-0.06812003,0.,0.03562876,-0.01506923,0.,-0.00881091,-0.07774876,
 0.,-0.23960911,-0.02523772,0.,-0.06053614,-0.01180453,0.,0.62453883,0.
 00065588,0.,0.00061670,-0.05856409,0.,-0.05048279,-0.00197991,0.,-0.00
 096019,0.02818843,0.,0.03950319,-0.01373867,0.,0.02855180,-0.18684363,
 0.,0.14967349,0.53272952,0.,0.00641441,0.,0.,0.01800309,0.,0.,0.006378
 01,0.,0.,0.02057144,0.,0.,-0.00754497,0.,0.,-0.07299844,0.,0.,0.106268
 00,0.00225902,0.,-0.00574801,-0.02075388,0.,-0.06757342,-0.00603653,0.
 ,-0.00407667,-0.03289269,0.,-0.07764728,-0.00153878,0.,0.00624555,0.11
 569548,0.,-0.31576815,-0.04756895,0.,0.57876596,-0.00023347,0.,0.00039
 611,0.01016632,0.,-0.00491583,0.00072396,0.,-0.00007931,0.00219275,0.,
 -0.00343211,-0.00040952,0.,0.00141992,-0.00747532,0.,-0.00546031,-0.02
 190509,0.,0.02501900,0.30268579,0.,-0.00150408,0.,0.,-0.00757496,0.,0.
 ,0.00214200,0.,0.,0.00337158,0.,0.,0.00205854,0.,0.,0.00449043,0.,0.,-
 0.01200294,0.,0.,0.01314569,-0.00061463,0.,0.00009119,0.02544024,0.,-0
 .00542346,0.00122292,0.,0.00017927,-0.00227595,0.,-0.00703727,-0.00050
 656,0.,0.00094254,-0.00612299,0.,0.00107680,-0.01130756,0.,0.01583368,
 -0.21074273,0.,0.25547684,0.00568650,0.,-0.03308116,-0.11388360,0.,-0.
 01717025,-0.00687761,0.,-0.00154721,-0.03032680,0.,0.01572905,-0.00027
 418,0.,0.00658714,-0.11790379,0.,0.05286323,-0.27854245,0.,-0.03418267
 ,-0.28574541,0.,0.20490726,0.82786735,0.,-0.00417719,0.,0.,-0.05428423
 ,0.,0.,0.00498175,0.,0.,0.01223444,0.,0.,0.00727996,0.,0.,0.01241268,0
 .,0.,-0.06508858,0.,0.,-0.00412626,0.,0.,0.09076743,0.00400585,0.,-0.0
 0823131,-0.01412525,0.,-0.35556953,0.00272786,0.,0.00001492,0.07865559
 ,0.,-0.05691905,0.00271205,0.,-0.00486804,0.03035969,0.,-0.03443508,-0
 .10802568,0.,-0.13003164,0.19779527,0.,-0.26113960,-0.19410540,0.,0.85
 117933\\-0.00001188,0.,0.00009189,0.00024658,0.,-0.00038576,-0.0000172
 7,0.,-0.00001178,-0.00007576,0.,0.00014726,-0.00002887,0.,-0.00003660,
 0.00023296,0.,-0.00024456,-0.00013907,0.,-0.00002712,-0.00006460,0.,-0
 .00005239,-0.00014210,0.,0.00051906\\\@


 CHARLIE BROWN -- WHICH DO YOU THINK LASTS LONGER IN LIFE, THE GOOD THINGS 
                  OR THE BAD THINGS?
 LINUS --         GOOD THINGS LAST EIGHT SECONDS ..
                  BAD THINGS LAST THREE WEEKS
 CHARLIE BROWN -- WHAT ABOUT IN BETWEEN?
 SNOOPY --        IN BETWEEN YOU SHOULD TAKE A NAP ...
 Job cpu time:  0 days  0 hours  3 minutes 24.2 seconds.
 File lengths (MBytes):  RWF=     18 Int=      0 D2E=      0 Chk=      2 Scr=      1
 Normal termination of Gaussian 09 at Sat Jul 31 15:23:25 2010.
