 Entering Gaussian System, Link 0=g98
 Initial command:
 /usr/local/apps/g98/g98/l1.exe /wrk/rdj3/Gau-13802.inp -scrdir=/wrk/rdj3/
 Entering Link 1 = /usr/local/apps/g98/g98/l1.exe PID=     12012.
  
 Copyright (c) 1988,1990,1992,1993,1995,1998 Gaussian, Inc.
                  All Rights Reserved.
  
 This is part of the Gaussian(R) 98 program.  It is based on
 the Gaussian 94(TM) system (copyright 1995 Gaussian, Inc.),
 the Gaussian 92(TM) system (copyright 1992 Gaussian, Inc.),
 the Gaussian 90(TM) system (copyright 1990 Gaussian, Inc.),
 the Gaussian 88(TM) system (copyright 1988 Gaussian, Inc.),
 the Gaussian 86(TM) system (copyright 1986 Carnegie Mellon
 University), and the Gaussian 82(TM) system (copyright 1983
 Carnegie Mellon University). Gaussian is a federally registered
 trademark of Gaussian, Inc.
  
 This software contains proprietary and confidential information,
 including trade secrets, belonging to Gaussian, Inc.
  
 This software is provided under written license and may be
 used, copied, transmitted, or stored only in accord with that
 written license.
  
 The following legend is applicable only to US Government
 contracts under DFARS:
  
                    RESTRICTED RIGHTS LEGEND
  
 Use, duplication or disclosure by the US Government is subject
 to restrictions as set forth in subparagraph (c)(1)(ii) of the
 Rights in Technical Data and Computer Software clause at DFARS
 252.227-7013.
  
 Gaussian, Inc.
 Carnegie Office Park, Building 6, Pittsburgh, PA 15106 USA
  
 The following legend is applicable only to US Government
 contracts under FAR:
  
                    RESTRICTED RIGHTS LEGEND
  
 Use, reproduction and disclosure by the US Government is subject
 to restrictions as set forth in subparagraph (c) of the
 Commercial Computer Software - Restricted Rights clause at FAR
 52.227-19.
  
 Gaussian, Inc.
 Carnegie Office Park, Building 6, Pittsburgh, PA 15106 USA
  
  
 ---------------------------------------------------------------
 Warning -- This program may not be used in any manner that
 competes with the business of Gaussian, Inc. or will provide
 assistance to any competitor of Gaussian, Inc.  The licensee
 of this program is prohibited from giving any competitor of
 Gaussian, Inc. access to this program.  By using this program,
 the user acknowledges that Gaussian, Inc. is engaged in the
 business of creating and licensing software in the field of
 computational chemistry and represents and warrants to the
 licensee that it is not a competitor of Gaussian, Inc. and that
 it will not use this program in any manner prohibited above.
 ---------------------------------------------------------------
  

 Cite this work as:
 Gaussian 98, Revision A.4,
 M. J. Frisch, G. W. Trucks, H. B. Schlegel, G. E. Scuseria, 
 M. A. Robb, J. R. Cheeseman, V. G. Zakrzewski, J. A. Montgomery, Jr., 
 R. E. Stratmann, J. C. Burant, S. Dapprich, J. M. Millam, 
 A. D. Daniels, K. N. Kudin, M. C. Strain, O. Farkas, J. Tomasi, 
 V. Barone, M. Cossi, R. Cammi, B. Mennucci, C. Pomelli, C. Adamo, 
 S. Clifford, J. Ochterski, G. A. Petersson, P. Y. Ayala, Q. Cui, 
 K. Morokuma, D. K. Malick, A. D. Rabuck, K. Raghavachari, 
 J. B. Foresman, J. Cioslowski, J. V. Ortiz, B. B. Stefanov, G. Liu, 
 A. Liashenko, P. Piskorz, I. Komaromi, R. Gomperts, R. L. Martin, 
 D. J. Fox, T. Keith, M. A. Al-Laham, C. Y. Peng, A. Nanayakkara, 
 C. Gonzalez, M. Challacombe, P. M. W. Gill, B. Johnson, W. Chen, 
 M. W. Wong, J. L. Andres, C. Gonzalez, M. Head-Gordon, 
 E. S. Replogle, and J. A. Pople, 
 Gaussian, Inc., Pittsburgh PA, 1998.

 **********************************************
 Gaussian 98:  IBM-RS6000-G98RevA.4 11-Sep-1998
                   8-Nov-1999 
 **********************************************
 %mem=24000000
 ----------------------
 #QCISD/6-31G* OPT freq
 ----------------------
 1/18=20,38=1/1,3;
 2/9=110,17=6,18=5/2;
 3/5=1,6=6,7=1,11=9,25=1,30=1/1,2,3;
 4//1;
 5/5=2,38=4/2;
 8/6=7,9=120000,10=1,23=2/1,4;
 9/5=8,15=1/13;
 11/28=-7,29=200,42=1/11;
 10/5=6/2;
 6/7=2,8=2,9=2,10=2/1;
 7/12=7/1,2,3,16;
 1/18=20/3(1);
 99//99;
 2/9=110/2;
 3/5=1,6=6,7=1,11=9,25=1,30=1/1,2,3;
 4/5=5,16=2/1;
 5/5=2,38=4/2;
 8/6=7,9=120000,10=1,23=2/1,4;
 9/5=8,15=1/13;
 11/28=-7,29=200,42=1/11;
 10/5=6/2;
 7/12=7/1,2,3,16;
 1/18=20/3(-9);
 2/9=110/2;
 6/7=2,8=2,9=2,10=2/1;
 99//99;
 -------------------------------
 1H pyrazole C3H4N2 casno=288131
 -------------------------------
 Symbolic Z-matrix:
 Charge =  0 Multiplicity = 1
 1                     2.10784   0.73402   0. 
 6                     1.11271   0.3073    0. 
 1                     1.27035  -1.89759   0. 
 6                     0.66802  -0.99869   0. 
 1                    -1.47974  -1.6877    0. 
 6                    -0.744    -0.89172   0. 
 7                    -1.1524    0.37731   0. 
 1                    -0.05199   2.09623   0. 
 7                     0.        1.0875    0. 

 GradGradGradGradGradGradGradGradGradGradGradGradGradGradGradGradGradGrad
 Berny optimization.
 Initialization pass.
                         ----------------------------
                         !    Initial Parameters    !
                         ! (Angstroms and Degrees)  !
 ------------------------                            -------------------------
 ! Name  Definition              Value          Derivative Info.             !
 -----------------------------------------------------------------------------
 ! R1    R(1,2)                  1.0828         estimate D2E/DX2             !
 ! R2    R(2,4)                  1.3796         estimate D2E/DX2             !
 ! R3    R(2,9)                  1.359          estimate D2E/DX2             !
 ! R4    R(3,4)                  1.082          estimate D2E/DX2             !
 ! R5    R(4,6)                  1.4161         estimate D2E/DX2             !
 ! R6    R(5,6)                  1.0839         estimate D2E/DX2             !
 ! R7    R(6,7)                  1.3331         estimate D2E/DX2             !
 ! R8    R(7,9)                  1.3537         estimate D2E/DX2             !
 ! R9    R(8,9)                  1.0101         estimate D2E/DX2             !
 ! A1    A(1,2,4)              132.0136         estimate D2E/DX2             !
 ! A2    A(1,2,9)              121.753          estimate D2E/DX2             !
 ! A3    A(4,2,9)              106.2334         estimate D2E/DX2             !
 ! A4    A(2,4,3)              127.3713         estimate D2E/DX2             !
 ! A5    A(2,4,6)              104.4714         estimate D2E/DX2             !
 ! A6    A(3,4,6)              128.1572         estimate D2E/DX2             !
 ! A7    A(4,6,5)              128.4159         estimate D2E/DX2             !
 ! A8    A(4,6,7)              112.1715         estimate D2E/DX2             !
 ! A9    A(5,6,7)              119.4126         estimate D2E/DX2             !
 ! A10   A(6,7,9)              103.8046         estimate D2E/DX2             !
 ! A11   A(2,9,7)              113.3192         estimate D2E/DX2             !
 ! A12   A(2,9,8)              127.9873         estimate D2E/DX2             !
 ! A13   A(7,9,8)              118.6935         estimate D2E/DX2             !
 ! D1    D(1,2,4,3)              0.             estimate D2E/DX2             !
 ! D2    D(1,2,4,6)            180.             estimate D2E/DX2             !
 ! D3    D(9,2,4,3)            180.             estimate D2E/DX2             !
 ! D4    D(9,2,4,6)              0.             estimate D2E/DX2             !
 ! D5    D(1,2,9,7)            180.             estimate D2E/DX2             !
 ! D6    D(1,2,9,8)              0.             estimate D2E/DX2             !
 ! D7    D(4,2,9,7)              0.             estimate D2E/DX2             !
 ! D8    D(4,2,9,8)            180.             estimate D2E/DX2             !
 ! D9    D(2,4,6,5)            180.             estimate D2E/DX2             !
 ! D10   D(2,4,6,7)              0.             estimate D2E/DX2             !
 ! D11   D(3,4,6,5)              0.             estimate D2E/DX2             !
 ! D12   D(3,4,6,7)            180.             estimate D2E/DX2             !
 ! D13   D(4,6,7,9)              0.             estimate D2E/DX2             !
 ! D14   D(5,6,7,9)            180.             estimate D2E/DX2             !
 ! D15   D(6,7,9,2)              0.             estimate D2E/DX2             !
 ! D16   D(6,7,9,8)            180.             estimate D2E/DX2             !
 -----------------------------------------------------------------------------
 Trust Radius=3.00D-01 FncErr=1.00D-07 GrdErr=1.00D-07
 Number of steps in this run=  48 maximum allowed number of steps= 100.
 GradGradGradGradGradGradGradGradGradGradGradGradGradGradGradGradGradGrad

                          Input orientation:                          
 ---------------------------------------------------------------------
 Center     Atomic     Atomic              Coordinates (Angstroms)
 Number     Number      Type              X           Y           Z
 ---------------------------------------------------------------------
    1          1             0        2.107838    0.734021    0.000000
    2          6             0        1.112707    0.307301    0.000000
    3          1             0        1.270355   -1.897589    0.000000
    4          6             0        0.668022   -0.998687    0.000000
    5          1             0       -1.479743   -1.687696    0.000000
    6          6             0       -0.744000   -0.891720    0.000000
    7          7             0       -1.152404    0.377314    0.000000
    8          1             0       -0.051990    2.096229    0.000000
    9          7             0        0.000000    1.087496    0.000000
 ---------------------------------------------------------------------
                    Distance matrix (angstroms):
                    1          2          3          4          5
     1  H    0.000000
     2  C    1.082763   0.000000
     3  H    2.761657   2.210519   0.000000
     4  C    2.252853   1.379619   1.082049   0.000000
     5  H    4.328447   3.271209   2.758096   2.255577   0.000000
     6  C    3.282684   2.210206   2.251532   1.416068   1.083926
     7  N    3.279698   2.266193   3.323394   2.281957   2.090793
     8  H    2.553521   2.134662   4.207039   3.177565   4.044325
     9  N    2.137271   1.358978   3.244154   2.190528   3.145048
                    6          7          8          9
     6  C    0.000000
     7  N    1.333132   0.000000
     8  H    3.067037   2.040975   0.000000
     9  N    2.114434   1.353659   1.010072   0.000000
 Stoichiometry    C3H4N2
 Framework group  CS[SG(C3H4N2)]
 Deg. of freedom   15
 Full point group                 CS      NOp   2
 Largest Abelian subgroup         CS      NOp   2
 Largest concise Abelian subgroup C1      NOp   1
                         Standard orientation:                         
 ---------------------------------------------------------------------
 Center     Atomic     Atomic              Coordinates (Angstroms)
 Number     Number      Type              X           Y           Z
 ---------------------------------------------------------------------
    1          1             0        2.107838    0.734021    0.000000
    2          6             0        1.112707    0.307301    0.000000
    3          1             0        1.270355   -1.897589    0.000000
    4          6             0        0.668022   -0.998687    0.000000
    5          1             0       -1.479743   -1.687696    0.000000
    6          6             0       -0.744000   -0.891720    0.000000
    7          7             0       -1.152404    0.377314    0.000000
    8          1             0       -0.051990    2.096229    0.000000
    9          7             0        0.000000    1.087496    0.000000
 ---------------------------------------------------------------------
 Rotational constants (GHZ):      9.6299559      9.3768438      4.7508573
 Isotopes: H-1,C-12,H-1,C-12,H-1,C-12,N-14,H-1,N-14
 Standard basis: 6-31G(d) (6D, 7F)
 There are    63 symmetry adapted basis functions of A'  symmetry.
 There are    20 symmetry adapted basis functions of A"  symmetry.
 Crude estimate of integral set expansion from redundant integrals=1.000.
 Integral buffers will be    262144 words long.
 Raffenetti 1 integral format.
 Two-electron integral symmetry is turned on.
    83 basis functions      156 primitive gaussians
    18 alpha electrons       18 beta electrons
       nuclear repulsion energy       162.7060226497 Hartrees.
 One-electron integrals computed using PRISM.
 NBasis=    83 RedAO= T  NBF=    63    20
 NBsUse=    83 1.00D-04 NBFU=    63    20
 Projected INDO Guess.
 Initial guess orbital symmetries:
       Occupied  (A') (A') (A') (A') (A') (A') (A') (A') (A') (A')
                 (A') (A") (A') (A') (A') (A') (A") (A")
       Virtual   (A") (A') (A') (A") (A') (A') (A') (A') (A') (A')
                 (A') (A') (A') (A') (A') (A') (A') (A') (A') (A')
                 (A') (A') (A') (A') (A') (A') (A') (A') (A') (A')
                 (A') (A') (A') (A') (A') (A') (A') (A') (A') (A')
                 (A') (A') (A') (A') (A') (A') (A') (A') (A') (A')
                 (A") (A") (A") (A") (A") (A") (A") (A") (A") (A")
                 (A") (A") (A") (A") (A")
 Requested convergence on RMS density matrix=1.00D-08 within  64 cycles.
 Requested convergence on MAX density matrix=1.00D-06.
 Keep R1 integrals in memory in canonical form, NReq=     6535303.
 SCF Done:  E(RHF) =  -224.790494916     A.U. after   15 cycles
             Convg  =    0.4235D-08             -V/T =  2.0029
             S**2   =   0.0000
 Range of M.O.s used for correlation:     6    83
 NBasis=    83 NAE=    18 NBE=    18 NFC=     5 NFV=     0
 NROrb=     78 NOA=    13 NOB=    13 NVA=    65 NVB=    65
 Estimate disk for full transformation    52918570 words.
 Spin components of T(2) and E(2):
     alpha-alpha T2 =       0.3398758833D-01 E2=     -0.9649509802D-01
     alpha-beta  T2 =       0.1787463086D+00 E2=     -0.5197559523D+00
     beta-beta   T2 =       0.3398758833D-01 E2=     -0.9649509802D-01
 ANorm=    0.1116566830D+01
 E2=       -0.7127461484D+00 EUMP2=       -0.22550324106410D+03
 Iterations=  50 Convergence= 0.100D-07
 Iteration Nr.   1
 **********************
 MP4(R+Q)=  0.17926230D-01
 E3=       -0.12543188D-01        EUMP3=      -0.22551578425D+03
 E4(DQ)=   -0.45663272D-03        UMP4(DQ)=   -0.22551624088D+03
 E4(SDQ)=  -0.78718604D-02        UMP4(SDQ)=  -0.22552365611D+03
 DE(CORR)= -0.70736311D+00        E(CORR)=    -0.22549785802D+03
 NORM(A)=   0.11162211D+01
 Iteration Nr.   2
 **********************
 DE(CORR)= -0.73100944D+00        E(CORR)=    -0.22552150436D+03
 NORM(A)=   0.11274575D+01
 Iteration Nr.   3
 **********************
 DE(CORR)= -0.73235298D+00        E(CORR)=    -0.22552284790D+03
 NORM(A)=   0.11296524D+01
 Iteration Nr.   4
 **********************
 DE(CORR)= -0.73437554D+00        E(CORR)=    -0.22552487045D+03
 NORM(A)=   0.11303748D+01
 Iteration Nr.   5
 **********************
 DE(CORR)= -0.73459882D+00        E(CORR)=    -0.22552509373D+03
 NORM(A)=   0.11306532D+01
 Iteration Nr.   6
 **********************
 DE(CORR)= -0.73463274D+00        E(CORR)=    -0.22552512765D+03
 NORM(A)=   0.11306907D+01
 Iteration Nr.   7
 **********************
 DE(CORR)= -0.73463697D+00        E(CORR)=    -0.22552513189D+03
 NORM(A)=   0.11307092D+01
 Iteration Nr.   8
 **********************
 DE(CORR)= -0.73463087D+00        E(CORR)=    -0.22552512579D+03
 NORM(A)=   0.11307149D+01
 Iteration Nr.   9
 **********************
 DE(CORR)= -0.73463354D+00        E(CORR)=    -0.22552512846D+03
 NORM(A)=   0.11307171D+01
 Iteration Nr.  10
 **********************
 DE(CORR)= -0.73463368D+00        E(CORR)=    -0.22552512860D+03
 NORM(A)=   0.11307186D+01
 Iteration Nr.  11
 **********************
 DE(CORR)= -0.73463490D+00        E(CORR)=    -0.22552512981D+03
 NORM(A)=   0.11307194D+01
 Iteration Nr.  12
 **********************
 DE(CORR)= -0.73463511D+00        E(CORR)=    -0.22552513003D+03
 NORM(A)=   0.11307199D+01
 Iteration Nr.  13
 **********************
 DE(CORR)= -0.73463533D+00        E(CORR)=    -0.22552513025D+03
 NORM(A)=   0.11307201D+01
 Iteration Nr.  14
 **********************
 DE(CORR)= -0.73463536D+00        E(CORR)=    -0.22552513028D+03
 NORM(A)=   0.11307202D+01
 Iteration Nr.  15
 **********************
 DE(CORR)= -0.73463537D+00        E(CORR)=    -0.22552513028D+03
 NORM(A)=   0.11307202D+01
 Iteration Nr.  16
 **********************
 DE(CORR)= -0.73463537D+00        E(CORR)=    -0.22552513028D+03
 NORM(A)=   0.11307202D+01
 Iteration Nr.  17
 **********************
 DE(CORR)= -0.73463536D+00        E(CORR)=    -0.22552513028D+03
 NORM(A)=   0.11307202D+01
 Iteration Nr.  18
 **********************
 DE(CORR)= -0.73463537D+00        E(CORR)=    -0.22552513028D+03
 NORM(A)=   0.11307202D+01
 Iteration Nr.  19
 **********************
 DE(CORR)= -0.73463537D+00        E(CORR)=    -0.22552513028D+03
 NORM(A)=   0.11307202D+01
 Largest amplitude= 8.03D-02

 Z-AMPLITUDE ITERATIONS

 Iteration Nr.   1
 **********************
 DE(Z)  -0.71153530D+00          E(Z)=    -0.22550203021D+03
 NORM(A)=   0.11307182D+01
 Iteration Nr.   2
 **********************
 DE(Z)  -0.71153530D+00          E(Z)=    -0.22550203021D+03
 NORM(A)=   0.11307201D+01
 Iteration Nr.   3
 **********************
 DE(Z)  -0.71153529D+00          E(Z)=    -0.22550203021D+03
 NORM(A)=   0.11307200D+01
 Iteration Nr.   4
 **********************
 DE(Z)  -0.71153529D+00          E(Z)=    -0.22550203021D+03
 NORM(A)=   0.11307204D+01
 Iteration Nr.   5
 **********************
 DE(Z)  -0.71153530D+00          E(Z)=    -0.22550203021D+03
 NORM(A)=   0.11220189D+01
 Iteration Nr.   6
 **********************
 DE(Z)  -0.71149538D+00          E(Z)=    -0.22550199030D+03
 NORM(A)=   0.11219518D+01
 Iteration Nr.   7
 **********************
 DE(Z)  -0.71150421D+00          E(Z)=    -0.22550199912D+03
 NORM(A)=   0.11219356D+01
 Iteration Nr.   8
 **********************
 DE(Z)  -0.71149661D+00          E(Z)=    -0.22550199153D+03
 NORM(A)=   0.11219238D+01
 Iteration Nr.   9
 **********************
 DE(Z)  -0.71149886D+00          E(Z)=    -0.22550199377D+03
 NORM(A)=   0.11219190D+01
 Iteration Nr.  10
 **********************
 DE(Z)  -0.71149806D+00          E(Z)=    -0.22550199298D+03
 NORM(A)=   0.11219187D+01
 Iteration Nr.  11
 **********************
 DE(Z)  -0.71149795D+00          E(Z)=    -0.22550199286D+03
 NORM(A)=   0.11219186D+01
 Iteration Nr.  12
 **********************
 DE(Z)  -0.71149798D+00          E(Z)=    -0.22550199289D+03
 NORM(A)=   0.11219186D+01
 Iteration Nr.  13
 **********************
 DE(Z)  -0.71149799D+00          E(Z)=    -0.22550199291D+03
 NORM(A)=   0.11219186D+01
 Iteration Nr.  14
 **********************
 DE(Z)  -0.71149801D+00          E(Z)=    -0.22550199293D+03
 NORM(A)=   0.11219186D+01
 Iteration Nr.  15
 **********************
 DE(Z)  -0.71149801D+00          E(Z)=    -0.22550199292D+03
 NORM(A)=   0.11219186D+01
 Iteration Nr.  16
 **********************
 DE(Z)  -0.71149801D+00          E(Z)=    -0.22550199292D+03
 NORM(A)=   0.11219186D+01
 Iteration Nr.  17
 **********************
 DE(Z)  -0.71149801D+00          E(Z)=    -0.22550199292D+03
 NORM(A)=   0.11219185D+01
 Discarding MO integrals.
          Differentiating once with respect to electric field.
                with respect to dipole field.
          Differentiating once with respect to nuclear coordinates.
          Store integrals in memory, NReq=     6518293.
          There are   1 degrees of freedom in the 1st order CPHF.
   1 vectors were produced by pass  0.
 AX will form   1 AO Fock derivatives at one time.
   1 vectors were produced by pass  1.
   1 vectors were produced by pass  2.
   1 vectors were produced by pass  3.
   1 vectors were produced by pass  4.
   1 vectors were produced by pass  5.
   1 vectors were produced by pass  6.
   1 vectors were produced by pass  7.
   1 vectors were produced by pass  8.
   1 vectors were produced by pass  9.
   1 vectors were produced by pass 10.
   1 vectors were produced by pass 11.
   1 vectors were produced by pass 12.
   1 vectors were produced by pass 13.
   1 vectors were produced by pass 14.
 Inv2:  IOpt= 1 Iter= 1 AM= 5.71D-16 Conv= 1.00D-12.
 Inverted reduced A of dimension  15 with in-core refinement.

 **********************************************************************

            Population analysis using the SCF density.

 **********************************************************************

 Orbital Symmetries:
       Occupied  (A') (A') (A') (A') (A') (A') (A') (A') (A') (A')
                 (A') (A') (A") (A') (A') (A') (A") (A")
       Virtual   (A") (A') (A") (A') (A') (A') (A') (A') (A') (A')
                 (A') (A') (A") (A') (A") (A') (A') (A") (A') (A')
                 (A") (A') (A') (A") (A') (A') (A') (A') (A') (A')
                 (A') (A') (A') (A") (A") (A") (A') (A') (A") (A")
                 (A') (A') (A') (A') (A') (A') (A") (A") (A') (A')
                 (A") (A") (A") (A') (A') (A') (A') (A') (A') (A')
                 (A') (A') (A') (A') (A')
  The electronic state is 1-A'.
 Alpha  occ. eigenvalues --  -15.64107 -15.58673 -11.27851 -11.25102 -11.22131
 Alpha  occ. eigenvalues --   -1.36561  -1.09089  -1.04509  -0.81853  -0.79332
 Alpha  occ. eigenvalues --   -0.73694  -0.60387  -0.59798  -0.58677  -0.55787
 Alpha  occ. eigenvalues --   -0.45336  -0.35812  -0.33986
 Alpha virt. eigenvalues --    0.17536   0.22466   0.24403   0.27929   0.30239
 Alpha virt. eigenvalues --    0.31373   0.40410   0.40824   0.45547   0.57970
 Alpha virt. eigenvalues --    0.65135   0.74146   0.77416   0.78129   0.82694
 Alpha virt. eigenvalues --    0.83019   0.87434   0.89371   0.90300   0.95296
 Alpha virt. eigenvalues --    0.99592   1.04835   1.07030   1.08983   1.09595
 Alpha virt. eigenvalues --    1.11755   1.16250   1.18064   1.21334   1.26521
 Alpha virt. eigenvalues --    1.39478   1.46048   1.56690   1.59516   1.62865
 Alpha virt. eigenvalues --    1.65395   1.71377   1.76033   1.83007   1.85706
 Alpha virt. eigenvalues --    2.07792   2.16358   2.24631   2.37918   2.41030
 Alpha virt. eigenvalues --    2.43943   2.52700   2.55973   2.58317   2.63326
 Alpha virt. eigenvalues --    2.65474   2.74052   2.92490   2.93480   2.96371
 Alpha virt. eigenvalues --    3.04030   3.07990   3.30941   3.33140   3.41404
 Alpha virt. eigenvalues --    4.17537   4.38245   4.51024   4.66292   4.84191
          Condensed to atoms (all electrons):
              1          2          3          4          5          6
  1  H    0.436219   0.380612   0.000583  -0.017245  -0.000051   0.002747
  2  C    0.380612   4.852516  -0.025461   0.602636   0.003056  -0.073329
  3  H    0.000583  -0.025461   0.450755   0.375739   0.000286  -0.019911
  4  C   -0.017245   0.602636   0.375739   5.012840  -0.033707   0.528824
  5  H   -0.000051   0.003056   0.000286  -0.033707   0.459530   0.395375
  6  C    0.002747  -0.073329  -0.019911   0.528824   0.395375   4.774244
  7  N    0.001965  -0.118030   0.003318  -0.053349  -0.035205   0.524284
  8  H    0.000063  -0.024809  -0.000065   0.002856  -0.000085   0.005313
  9  N   -0.032462   0.327724   0.003291  -0.068710   0.004453  -0.173380
              7          8          9
  1  H    0.001965   0.000063  -0.032462
  2  C   -0.118030  -0.024809   0.327724
  3  H    0.003318  -0.000065   0.003291
  4  C   -0.053349   0.002856  -0.068710
  5  H   -0.035205  -0.000085   0.004453
  6  C    0.524284   0.005313  -0.173380
  7  N    6.712030  -0.027615   0.294492
  8  H   -0.027615   0.301259   0.334548
  9  N    0.294492   0.334548   6.823105
 Total atomic charges:
              1
  1  H    0.227568
  2  C    0.075084
  3  H    0.211464
  4  C   -0.349884
  5  H    0.206349
  6  C    0.035832
  7  N   -0.301890
  8  H    0.408536
  9  N   -0.513060
 Sum of Mulliken charges=   0.00000
 Atomic charges with hydrogens summed into heavy atoms:
              1
  1  H    0.000000
  2  C    0.302652
  3  H    0.000000
  4  C   -0.138420
  5  H    0.000000
  6  C    0.242181
  7  N   -0.301890
  8  H    0.000000
  9  N   -0.104524
 Sum of Mulliken charges=   0.00000
 Electronic spatial extent (au):  <R**2>=   286.7173
 Charge=     0.0000 electrons
 Dipole moment (Debye):
    X=     2.3718    Y=     0.7411    Z=     0.0000  Tot=     2.4849
 Quadrupole moment (Debye-Ang):
   XX=   -29.3596   YY=   -21.7667   ZZ=   -32.1483
   XY=     2.8762   XZ=     0.0000   YZ=     0.0000
 Octapole moment (Debye-Ang**2):
  XXX=    10.4456  YYY=    12.1237  ZZZ=     0.0000  XYY=     0.2688
  XXY=    -2.3359  XXZ=     0.0000  XZZ=    -0.8664  YZZ=     2.0372
  YYZ=     0.0000  XYZ=     0.0000
 Hexadecapole moment (Debye-Ang**3):
 XXXX=  -172.1503 YYYY=  -129.0678 ZZZZ=   -32.2043 XXXY=    11.3944
 XXXZ=     0.0000 YYYX=    -1.1383 YYYZ=     0.0000 ZZZX=     0.0000
 ZZZY=     0.0000 XXYY=   -50.6388 XXZZ=   -37.8776 YYZZ=   -36.6642
 XXYZ=     0.0000 YYXZ=     0.0000 ZZXY=     0.2001
 N-N= 1.627060226497D+02 E-N=-8.504774207074D+02  KE= 2.241380353936D+02
 Symmetry A'   KE= 2.163559481027D+02
 Symmetry A"   KE= 7.782087290934D+00
 ***** Axes restored to original set *****
 -------------------------------------------------------------------
 Center     Atomic                   Forces (Hartrees/Bohr)
 Number     Number              X              Y              Z
 -------------------------------------------------------------------
    1          1           0.000020169   -0.000020777    0.000000000
    2          6          -0.000093645    0.000141555    0.000000000
    3          1           0.000010447    0.000015339    0.000000000
    4          6           0.000016356   -0.000077900    0.000000000
    5          1          -0.000013936   -0.000000276    0.000000000
    6          6          -0.000044453    0.000014637    0.000000000
    7          7           0.000056160   -0.000013013    0.000000000
    8          1          -0.000002193    0.000009482    0.000000000
    9          7           0.000051095   -0.000069045    0.000000000
 -------------------------------------------------------------------
 Cartesian Forces:  Max     0.000141555 RMS     0.000042820

 GradGradGradGradGradGradGradGradGradGradGradGradGradGradGradGradGradGrad
 Berny optimization.
 Internal  Forces:  Max     0.000091724 RMS     0.000022714
 Search for a local minimum.
 Step number   1 out of a maximum of  48
 All quantities printed in internal units (Hartrees-Bohrs-Radians)
 Second derivative matrix not updated -- first step.
     Eigenvalues ---    0.02023   0.02097   0.02129   0.02182   0.02269
     Eigenvalues ---    0.02309   0.16000   0.16000   0.16000   0.16000
     Eigenvalues ---    0.22000   0.22913   0.35524   0.35663   0.35748
     Eigenvalues ---    0.39891   0.45961   0.45970   0.49831   0.52783
     Eigenvalues ---    0.569581000.000001000.000001000.000001000.00000
     Eigenvalues --- 1000.000001000.000001000.000001000.000001000.00000
     Eigenvalues --- 1000.000001000.000001000.000001000.000001000.00000
     Eigenvalues --- 1000.000001000.000001000.00000
 RFO step:  Lambda=-5.39666286D-08.
 Linear search not attempted -- first point.
 Iteration  1 RMS(Cart)=  0.00007485 RMS(Int)=  0.00000001
 Iteration  2 RMS(Cart)=  0.00000001 RMS(Int)=  0.00000000
 Variable       Old X    -DE/DX   Delta X   Delta X   Delta X     New X
                                 (Linear)    (Quad)   (Total)
    R1        2.04613   0.00001   0.00000   0.00003   0.00003   2.04615
    R2        2.60710   0.00006   0.00000   0.00013   0.00013   2.60723
    R3        2.56810  -0.00009   0.00000  -0.00018  -0.00018   2.56791
    R4        2.04478  -0.00001   0.00000  -0.00002  -0.00002   2.04476
    R5        2.67598   0.00002   0.00000   0.00008   0.00008   2.67606
    R6        2.04832   0.00001   0.00000   0.00003   0.00003   2.04835
    R7        2.51925  -0.00002   0.00000  -0.00004  -0.00004   2.51922
    R8        2.55805  -0.00002   0.00000  -0.00005  -0.00005   2.55799
    R9        1.90876   0.00001   0.00000   0.00002   0.00002   1.90878
    A1        2.30407  -0.00003   0.00000  -0.00020  -0.00020   2.30388
    A2        2.12499   0.00002   0.00000   0.00015   0.00015   2.12514
    A3        1.85412   0.00001   0.00000   0.00005   0.00005   1.85417
    A4        2.22305  -0.00001   0.00000  -0.00009  -0.00009   2.22296
    A5        1.82337  -0.00002   0.00000  -0.00004  -0.00004   1.82333
    A6        2.23677   0.00003   0.00000   0.00013   0.00013   2.23690
    A7        2.24128   0.00003   0.00000   0.00011   0.00011   2.24139
    A8        1.95776  -0.00003   0.00000  -0.00009  -0.00009   1.95767
    A9        2.08414   0.00000   0.00000  -0.00002  -0.00002   2.08413
   A10        1.81173   0.00003   0.00000   0.00011   0.00011   1.81185
   A11        1.97779   0.00000   0.00000  -0.00002  -0.00002   1.97777
   A12        2.23380   0.00000   0.00000   0.00002   0.00002   2.23382
   A13        2.07159   0.00000   0.00000   0.00000   0.00000   2.07159
    D1        0.00000   0.00000   0.00000   0.00000   0.00000   0.00000
    D2        3.14159   0.00000   0.00000   0.00000   0.00000   3.14159
    D3        3.14159   0.00000   0.00000   0.00000   0.00000   3.14159
    D4        0.00000   0.00000   0.00000   0.00000   0.00000   0.00000
    D5        3.14159   0.00000   0.00000   0.00000   0.00000   3.14159
    D6        0.00000   0.00000   0.00000   0.00000   0.00000   0.00000
    D7        0.00000   0.00000   0.00000   0.00000   0.00000   0.00000
    D8        3.14159   0.00000   0.00000   0.00000   0.00000   3.14159
    D9        3.14159   0.00000   0.00000   0.00000   0.00000   3.14159
   D10        0.00000   0.00000   0.00000   0.00000   0.00000   0.00000
   D11        0.00000   0.00000   0.00000   0.00000   0.00000   0.00000
   D12        3.14159   0.00000   0.00000   0.00000   0.00000   3.14159
   D13        0.00000   0.00000   0.00000   0.00000   0.00000   0.00000
   D14        3.14159   0.00000   0.00000   0.00000   0.00000   3.14159
   D15        0.00000   0.00000   0.00000   0.00000   0.00000   0.00000
   D16        3.14159   0.00000   0.00000   0.00000   0.00000   3.14159
         Item               Value     Threshold  Converged?
 Maximum Force            0.000092     0.000450     YES
 RMS     Force            0.000023     0.000300     YES
 Maximum Displacement     0.000243     0.001800     YES
 RMS     Displacement     0.000075     0.001200     YES
 Predicted change in Energy=-2.698334D-08
 Optimization completed.
    -- Stationary point found.
                         ----------------------------
                         !   Optimized Parameters   !
                         ! (Angstroms and Degrees)  !
 ------------------------                            -------------------------
 ! Name  Definition              Value          Derivative Info.             !
 -----------------------------------------------------------------------------
 ! R1    R(1,2)                  1.0828         -DE/DX =    0.               !
 ! R2    R(2,4)                  1.3796         -DE/DX =    0.0001           !
 ! R3    R(2,9)                  1.359          -DE/DX =   -0.0001           !
 ! R4    R(3,4)                  1.082          -DE/DX =    0.               !
 ! R5    R(4,6)                  1.4161         -DE/DX =    0.               !
 ! R6    R(5,6)                  1.0839         -DE/DX =    0.               !
 ! R7    R(6,7)                  1.3331         -DE/DX =    0.               !
 ! R8    R(7,9)                  1.3537         -DE/DX =    0.               !
 ! R9    R(8,9)                  1.0101         -DE/DX =    0.               !
 ! A1    A(1,2,4)              132.0136         -DE/DX =    0.               !
 ! A2    A(1,2,9)              121.753          -DE/DX =    0.               !
 ! A3    A(4,2,9)              106.2334         -DE/DX =    0.               !
 ! A4    A(2,4,3)              127.3713         -DE/DX =    0.               !
 ! A5    A(2,4,6)              104.4714         -DE/DX =    0.               !
 ! A6    A(3,4,6)              128.1572         -DE/DX =    0.               !
 ! A7    A(4,6,5)              128.4159         -DE/DX =    0.               !
 ! A8    A(4,6,7)              112.1715         -DE/DX =    0.               !
 ! A9    A(5,6,7)              119.4126         -DE/DX =    0.               !
 ! A10   A(6,7,9)              103.8046         -DE/DX =    0.               !
 ! A11   A(2,9,7)              113.3192         -DE/DX =    0.               !
 ! A12   A(2,9,8)              127.9873         -DE/DX =    0.               !
 ! A13   A(7,9,8)              118.6935         -DE/DX =    0.               !
 ! D1    D(1,2,4,3)              0.             -DE/DX =    0.               !
 ! D2    D(1,2,4,6)            180.             -DE/DX =    0.               !
 ! D3    D(9,2,4,3)            180.             -DE/DX =    0.               !
 ! D4    D(9,2,4,6)              0.             -DE/DX =    0.               !
 ! D5    D(1,2,9,7)            180.             -DE/DX =    0.               !
 ! D6    D(1,2,9,8)              0.             -DE/DX =    0.               !
 ! D7    D(4,2,9,7)              0.             -DE/DX =    0.               !
 ! D8    D(4,2,9,8)            180.             -DE/DX =    0.               !
 ! D9    D(2,4,6,5)            180.             -DE/DX =    0.               !
 ! D10   D(2,4,6,7)              0.             -DE/DX =    0.               !
 ! D11   D(3,4,6,5)              0.             -DE/DX =    0.               !
 ! D12   D(3,4,6,7)            180.             -DE/DX =    0.               !
 ! D13   D(4,6,7,9)              0.             -DE/DX =    0.               !
 ! D14   D(5,6,7,9)            180.             -DE/DX =    0.               !
 ! D15   D(6,7,9,2)              0.             -DE/DX =    0.               !
 ! D16   D(6,7,9,8)            180.             -DE/DX =    0.               !
 -----------------------------------------------------------------------------
 GradGradGradGradGradGradGradGradGradGradGradGradGradGradGradGradGradGrad

 1\1\GINC-FERRUM\FOpt\RQCISD-FC\6-31G(d)\C3H4N2\RDJ3\08-Nov-1999\0\\#QC
 ISD/6-31G* OPT FREQ\\1H pyrazole C3H4N2 casno=288131\\0,1\H,2.10783772
 08,0.7340213508,0.\C,1.1127067862,0.3073011983,0.\H,1.2703551242,-1.89
 75887775,0.\C,0.6680219864,-0.9986868698,0.\H,-1.479742908,-1.68769619
 9,0.\C,-0.74400003,-0.8917200862,0.\N,-1.1524042245,0.3773138512,0.\H,
 -0.0519904879,2.0962290198,0.\N,-0.0000003333,1.0874960278,0.\\Version
 =IBM-RS6000-G98RevA.4\State=1-A'\HF=-224.7904949\MP2=-225.5032411\MP3=
 -225.5157843\MP4D=-225.5341671\MP4DQ=-225.5162409\MP4SDQ=-225.5236561\
 QCISD=-225.5251303\RMSD=4.235e-09\RMSF=4.282e-05\Dipole=0.8620283,0.33
 42858,0.\PG=CS [SG(C3H4N2)]\\@


 IF YOU GIVE A BOY AND A PIG EVERYTHING THEY WANT,
 YOU'LL GET A BAD BOY AND A GOOD PIG.
 Job cpu time:  0 days  0 hours 15 minutes 27.0 seconds.
 File lengths (MBytes):  RWF=  400 Int=    0 D2E=    0 Chk=    3 Scr=    1
 Normal termination of Gaussian 98.
 Link1:  Proceeding to internal job step number  2.
 ------------------------------------------------------
 #N Geom=AllCheck Guess=TCheck RQCISD(FC)/6-31G(d) Freq
 ------------------------------------------------------
 1/10=4,29=7,30=1,38=11/1,3,6;
 2//2;
 3/5=1,6=6,7=1,11=1,25=1,30=1/1,2,3;
 4/5=101,7=1/1;
 5/5=2/2;
 8/6=7,9=120000,10=1,23=2/1,4;
 9/5=8,15=1/13;
 11/28=-7,29=200,42=1/11;
 10/5=6/2;
 6/7=2,8=2,9=2,10=2,22=-1/1;
 7/12=7/1,2,3,16;
 1/38=10/6(3);
 7/8=1,25=1,44=-1/16;
 1/10=4,30=1,38=10/3;
 99//99;
 3/5=1,6=6,7=1,11=1,25=1,30=1/1,2,3;
 4/5=5,7=1,16=2/1;
 5/5=2,38=4/2;
 8/6=7,9=120000,10=1,23=2/1,4;
 9/5=8,15=1/13;
 11/28=-7,29=200,42=1/11;
 10/5=6/2;
 6/7=2,8=2,9=2,10=2,22=-1/1;
 7/7=1,12=7/1,2,3,16;
 1/38=10/6(-9);
 7/8=1,25=1,44=-1/16;
 1/10=4,30=1,38=10/3;
 99//99;
 -------------------------------
 1H pyrazole C3H4N2 casno=288131
 -------------------------------
 Redundant internal coordinates taken from checkpointfile:
 /wrk/rdj3/Gau-12012.chk
 Charge =  0 Multiplicity = 1
 H,0,2.1078377208,0.7340213508,0.
 C,0,1.1127067862,0.3073011983,0.
 H,0,1.2703551242,-1.8975887775,0.
 C,0,0.6680219864,-0.9986868698,0.
 H,0,-1.479742908,-1.687696199,0.
 C,0,-0.74400003,-0.8917200862,0.
 N,0,-1.1524042245,0.3773138512,0.
 H,0,-0.0519904879,2.0962290198,0.
 N,0,-0.0000003333,1.0874960278,0.
 Recover connectivity data from disk.

 GradGradGradGradGradGradGradGradGradGradGradGradGradGradGradGradGradGrad
 Berny optimization.
 Initialization pass.
                         ----------------------------
                         !    Initial Parameters    !
                         ! (Angstroms and Degrees)  !
 ------------------------                            -------------------------
 ! Name  Definition              Value          Derivative Info.             !
 -----------------------------------------------------------------------------
 ! R1    R(1,2)                  1.0828         calculate D2E/DX2 analyticall!
 ! R2    R(2,4)                  1.3796         calculate D2E/DX2 analyticall!
 ! R3    R(2,9)                  1.359          calculate D2E/DX2 analyticall!
 ! R4    R(3,4)                  1.082          calculate D2E/DX2 analyticall!
 ! R5    R(4,6)                  1.4161         calculate D2E/DX2 analyticall!
 ! R6    R(5,6)                  1.0839         calculate D2E/DX2 analyticall!
 ! R7    R(6,7)                  1.3331         calculate D2E/DX2 analyticall!
 ! R8    R(7,9)                  1.3537         calculate D2E/DX2 analyticall!
 ! R9    R(8,9)                  1.0101         calculate D2E/DX2 analyticall!
 ! A1    A(1,2,4)              132.0136         calculate D2E/DX2 analyticall!
 ! A2    A(1,2,9)              121.753          calculate D2E/DX2 analyticall!
 ! A3    A(4,2,9)              106.2334         calculate D2E/DX2 analyticall!
 ! A4    A(2,4,3)              127.3713         calculate D2E/DX2 analyticall!
 ! A5    A(2,4,6)              104.4714         calculate D2E/DX2 analyticall!
 ! A6    A(3,4,6)              128.1572         calculate D2E/DX2 analyticall!
 ! A7    A(4,6,5)              128.4159         calculate D2E/DX2 analyticall!
 ! A8    A(4,6,7)              112.1715         calculate D2E/DX2 analyticall!
 ! A9    A(5,6,7)              119.4126         calculate D2E/DX2 analyticall!
 ! A10   A(6,7,9)              103.8046         calculate D2E/DX2 analyticall!
 ! A11   A(2,9,7)              113.3192         calculate D2E/DX2 analyticall!
 ! A12   A(2,9,8)              127.9873         calculate D2E/DX2 analyticall!
 ! A13   A(7,9,8)              118.6935         calculate D2E/DX2 analyticall!
 ! D1    D(1,2,4,3)              0.             calculate D2E/DX2 analyticall!
 ! D2    D(1,2,4,6)            180.             calculate D2E/DX2 analyticall!
 ! D3    D(9,2,4,3)            180.             calculate D2E/DX2 analyticall!
 ! D4    D(9,2,4,6)              0.             calculate D2E/DX2 analyticall!
 ! D5    D(1,2,9,7)            180.             calculate D2E/DX2 analyticall!
 ! D6    D(1,2,9,8)              0.             calculate D2E/DX2 analyticall!
 ! D7    D(4,2,9,7)              0.             calculate D2E/DX2 analyticall!
 ! D8    D(4,2,9,8)            180.             calculate D2E/DX2 analyticall!
 ! D9    D(2,4,6,5)            180.             calculate D2E/DX2 analyticall!
 ! D10   D(2,4,6,7)              0.             calculate D2E/DX2 analyticall!
 ! D11   D(3,4,6,5)              0.             calculate D2E/DX2 analyticall!
 ! D12   D(3,4,6,7)            180.             calculate D2E/DX2 analyticall!
 ! D13   D(4,6,7,9)              0.             calculate D2E/DX2 analyticall!
 ! D14   D(5,6,7,9)            180.             calculate D2E/DX2 analyticall!
 ! D15   D(6,7,9,2)              0.             calculate D2E/DX2 analyticall!
 ! D16   D(6,7,9,8)            180.             calculate D2E/DX2 analyticall!
 -----------------------------------------------------------------------------
 Trust Radius=3.00D-01 FncErr=1.00D-07 GrdErr=1.00D-07
 Number of steps in this run=  48 maximum allowed number of steps= 100.
 GradGradGradGradGradGradGradGradGradGradGradGradGradGradGradGradGradGrad

 Numerical evaluation of force-constants.
 Nuclear Step-Size= 0.001000 Angstroms.
                          Input orientation:                          
 ---------------------------------------------------------------------
 Center     Atomic     Atomic              Coordinates (Angstroms)
 Number     Number      Type              X           Y           Z
 ---------------------------------------------------------------------
    1          1             0        2.107838    0.734021    0.000000
    2          6             0        1.112707    0.307301    0.000000
    3          1             0        1.270355   -1.897589    0.000000
    4          6             0        0.668022   -0.998687    0.000000
    5          1             0       -1.479743   -1.687696    0.000000
    6          6             0       -0.744000   -0.891720    0.000000
    7          7             0       -1.152404    0.377314    0.000000
    8          1             0       -0.051990    2.096229    0.000000
    9          7             0        0.000000    1.087496    0.000000
 ---------------------------------------------------------------------
                    Distance matrix (angstroms):
                    1          2          3          4          5
     1  H    0.000000
     2  C    1.082763   0.000000
     3  H    2.761657   2.210519   0.000000
     4  C    2.252853   1.379619   1.082049   0.000000
     5  H    4.328447   3.271209   2.758096   2.255577   0.000000
     6  C    3.282684   2.210206   2.251532   1.416068   1.083926
     7  N    3.279698   2.266193   3.323394   2.281957   2.090793
     8  H    2.553521   2.134662   4.207039   3.177565   4.044325
     9  N    2.137271   1.358978   3.244154   2.190528   3.145048
                    6          7          8          9
     6  C    0.000000
     7  N    1.333132   0.000000
     8  H    3.067037   2.040975   0.000000
     9  N    2.114434   1.353659   1.010072   0.000000
                           Interatomic angles:
       H1-C2-H3=109.1204       H1-C2-C4=132.0136       H1-C4-H3=106.4496
       C2-C4-H3=127.3713       H1-H3-H5=103.2887       C2-H3-H5= 81.5459
       H1-C4-H5=147.5117       C2-C4-H5=126.5899       H3-C4-H5=106.0387
       H1-C2-C6=170.3565       H1-H3-C6= 81.1179       H3-C2-C6= 61.2362
       H1-C4-C6=125.3932       C2-C4-C6=104.4714       H3-C4-C6=128.1572
       C2-C6-H5=165.6016       H3-C6-H5=106.2128       C4-C6-H5=128.4159
       H1-C2-N7=155.0196       H3-C2-N7= 95.8601       H1-C4-N7= 92.6409
       C4-C2-N7= 72.9669       H3-C4-N7=160.9096       C2-N7-H5= 97.237 
       H3-H5-N7= 85.3571       C4-H5-N7= 63.2062       C2-C6-N7= 74.9859
       H3-C6-N7=134.3746       C4-C6-N7=112.1715       H5-C6-N7=119.4126
       H1-C2-H8= 99.8565       H3-H1-H8=104.5866       H3-C2-H8=151.0232
       C4-H1-H8= 82.5144       C4-C2-H8=128.13         C6-C2-H8= 89.787 
       H1-H8-N7= 90.3868       C2-H8-N7= 65.693        C4-N7-H8= 94.4579
       H5-N7-H8=156.3809       C6-N7-H8=129.5341       H1-C2-N9=121.753 
       H3-H1-N9= 81.8665       H3-C2-N9=129.1266       H1-N9-C4= 62.7246
       C4-C2-N9=106.2334       H3-C4-N9=163.9306       H5-C4-N9= 90.0307
       H1-N9-C6=101.0819       C2-N9-C6= 75.5646       H3-C6-N9= 95.9337
       C4-C6-N9= 73.7306       H5-C6-N9=157.8535       H1-N9-N7=138.8364
       C2-N9-N7=113.3192       C4-N9-N7= 76.1118       H5-N7-N9=130.6513
       C6-N7-N9=103.8046       H1-N9-H8=102.4701       C2-N9-H8=127.9873
       C4-N9-H8=165.1947       C6-N9-H8=156.448        N7-N9-H8=118.6935
 Stoichiometry    C3H4N2
 Framework group  CS[SG(C3H4N2)]
 Deg. of freedom   15
 Full point group                 CS      NOp   2
 Largest Abelian subgroup         CS      NOp   2
 Largest concise Abelian subgroup C1      NOp   1
                         Standard orientation:                         
 ---------------------------------------------------------------------
 Center     Atomic     Atomic              Coordinates (Angstroms)
 Number     Number      Type              X           Y           Z
 ---------------------------------------------------------------------
    1          1             0        2.107838    0.734021    0.000000
    2          6             0        1.112707    0.307301    0.000000
    3          1             0        1.270355   -1.897589    0.000000
    4          6             0        0.668022   -0.998687    0.000000
    5          1             0       -1.479743   -1.687696    0.000000
    6          6             0       -0.744000   -0.891720    0.000000
    7          7             0       -1.152404    0.377314    0.000000
    8          1             0       -0.051990    2.096229    0.000000
    9          7             0        0.000000    1.087496    0.000000
 ---------------------------------------------------------------------
 Rotational constants (GHZ):      9.6299559      9.3768438      4.7508573
 Isotopes: H-1,C-12,H-1,C-12,H-1,C-12,N-14,H-1,N-14
 Standard basis: 6-31G(d) (6D, 7F)
 There are    63 symmetry adapted basis functions of A'  symmetry.
 There are    20 symmetry adapted basis functions of A"  symmetry.
 Crude estimate of integral set expansion from redundant integrals=1.000.
 Integral buffers will be    262144 words long.
 Raffenetti 1 integral format.
 Two-electron integral symmetry is turned on.
    83 basis functions      156 primitive gaussians
    18 alpha electrons       18 beta electrons
       nuclear repulsion energy       162.7060226497 Hartrees.
 One-electron integrals computed using PRISM.
 NBasis=    83 RedAO= T  NBF=    63    20
 NBsUse=    83 1.00D-04 NBFU=    63    20
 Initial guess read from the checkpoint file:
 /wrk/rdj3/Gau-12012.chk
 Initial guess orbital symmetries:
       Occupied  (A') (A') (A') (A') (A') (A') (A') (A') (A') (A')
                 (A') (A') (A") (A') (A') (A') (A") (A")
       Virtual   (A") (A') (A") (A') (A') (A') (A') (A') (A') (A')
                 (A') (A') (A") (A') (A") (A') (A') (A") (A') (A')
                 (A") (A') (A') (A") (A') (A') (A') (A') (A') (A')
                 (A') (A') (A') (A") (A") (A") (A') (A') (A") (A")
                 (A') (A') (A') (A') (A') (A') (A") (A") (A') (A')
                 (A") (A") (A") (A') (A') (A') (A') (A') (A') (A')
                 (A') (A') (A') (A') (A')
 Requested convergence on RMS density matrix=1.00D-08 within  64 cycles.
 Requested convergence on MAX density matrix=1.00D-06.
 Keep R1 integrals in memory in canonical form, NReq=     6535303.
 SCF Done:  E(RHF) =  -224.790494916     A.U. after    1 cycles
             Convg  =    0.7723D-09             -V/T =  2.0029
             S**2   =   0.0000
 Range of M.O.s used for correlation:     6    83
 NBasis=    83 NAE=    18 NBE=    18 NFC=     5 NFV=     0
 NROrb=     78 NOA=    13 NOB=    13 NVA=    65 NVB=    65
 Estimate disk for full transformation    52918570 words.
 Spin components of T(2) and E(2):
     alpha-alpha T2 =       0.3398758803D-01 E2=     -0.9649509748D-01
     alpha-beta  T2 =       0.1787463077D+00 E2=     -0.5197559509D+00
     beta-beta   T2 =       0.3398758803D-01 E2=     -0.9649509748D-01
 ANorm=    0.1116566829D+01
 E2=       -0.7127461459D+00 EUMP2=       -0.22550324106160D+03
 Iterations=  50 Convergence= 0.100D-07
 Iteration Nr.   1
 **********************
 MP4(R+Q)=  0.17926230D-01
 E3=       -0.12543189D-01        EUMP3=      -0.22551578425D+03
 E4(DQ)=   -0.45663274D-03        UMP4(DQ)=   -0.22551624088D+03
 E4(SDQ)=  -0.78718606D-02        UMP4(SDQ)=  -0.22552365611D+03
 DE(CORR)= -0.70736310D+00        E(CORR)=    -0.22549785802D+03
 NORM(A)=   0.11162211D+01
 Iteration Nr.   2
 **********************
 DE(CORR)= -0.73100944D+00        E(CORR)=    -0.22552150436D+03
 NORM(A)=   0.11274575D+01
 Iteration Nr.   3
 **********************
 DE(CORR)= -0.73235298D+00        E(CORR)=    -0.22552284789D+03
 NORM(A)=   0.11296524D+01
 Iteration Nr.   4
 **********************
 DE(CORR)= -0.73437554D+00        E(CORR)=    -0.22552487045D+03
 NORM(A)=   0.11303748D+01
 Iteration Nr.   5
 **********************
 DE(CORR)= -0.73459881D+00        E(CORR)=    -0.22552509373D+03
 NORM(A)=   0.11306532D+01
 Iteration Nr.   6
 **********************
 DE(CORR)= -0.73463273D+00        E(CORR)=    -0.22552512765D+03
 NORM(A)=   0.11306907D+01
 Iteration Nr.   7
 **********************
 DE(CORR)= -0.73463697D+00        E(CORR)=    -0.22552513188D+03
 NORM(A)=   0.11307092D+01
 Iteration Nr.   8
 **********************
 DE(CORR)= -0.73463087D+00        E(CORR)=    -0.22552512579D+03
 NORM(A)=   0.11307149D+01
 Iteration Nr.   9
 **********************
 DE(CORR)= -0.73463354D+00        E(CORR)=    -0.22552512846D+03
 NORM(A)=   0.11307171D+01
 Iteration Nr.  10
 **********************
 DE(CORR)= -0.73463368D+00        E(CORR)=    -0.22552512860D+03
 NORM(A)=   0.11307186D+01
 Iteration Nr.  11
 **********************
 DE(CORR)= -0.73463489D+00        E(CORR)=    -0.22552512981D+03
 NORM(A)=   0.11307194D+01
 Iteration Nr.  12
 **********************
 DE(CORR)= -0.73463511D+00        E(CORR)=    -0.22552513002D+03
 NORM(A)=   0.11307199D+01
 Iteration Nr.  13
 **********************
 DE(CORR)= -0.73463533D+00        E(CORR)=    -0.22552513025D+03
 NORM(A)=   0.11307201D+01
 Iteration Nr.  14
 **********************
 DE(CORR)= -0.73463536D+00        E(CORR)=    -0.22552513028D+03
 NORM(A)=   0.11307202D+01
 Iteration Nr.  15
 **********************
 DE(CORR)= -0.73463536D+00        E(CORR)=    -0.22552513028D+03
 NORM(A)=   0.11307202D+01
 Iteration Nr.  16
 **********************
 DE(CORR)= -0.73463536D+00        E(CORR)=    -0.22552513028D+03
 NORM(A)=   0.11307202D+01
 Iteration Nr.  17
 **********************
 DE(CORR)= -0.73463536D+00        E(CORR)=    -0.22552513028D+03
 NORM(A)=   0.11307202D+01
 Iteration Nr.  18
 **********************
 DE(CORR)= -0.73463536D+00        E(CORR)=    -0.22552513028D+03
 NORM(A)=   0.11307202D+01
 Iteration Nr.  19
 **********************
 DE(CORR)= -0.73463537D+00        E(CORR)=    -0.22552513028D+03
 NORM(A)=   0.11307202D+01
 Largest amplitude= 8.03D-02

 Z-AMPLITUDE ITERATIONS

 Iteration Nr.   1
 **********************
 DE(Z)  -0.71153529D+00          E(Z)=    -0.22550203021D+03
 NORM(A)=   0.11307031D+01
 Iteration Nr.   2
 **********************
 DE(Z)  -0.71153532D+00          E(Z)=    -0.22550203024D+03
 NORM(A)=   0.11307242D+01
 Iteration Nr.   3
 **********************
 DE(Z)  -0.71153531D+00          E(Z)=    -0.22550203023D+03
 NORM(A)=   0.11307193D+01
 Iteration Nr.   4
 **********************
 DE(Z)  -0.71153529D+00          E(Z)=    -0.22550203021D+03
 NORM(A)=   0.11307205D+01
 Iteration Nr.   5
 **********************
 DE(Z)  -0.71153530D+00          E(Z)=    -0.22550203021D+03
 NORM(A)=   0.11219443D+01
 Iteration Nr.   6
 **********************
 DE(Z)  -0.71149990D+00          E(Z)=    -0.22550199482D+03
 NORM(A)=   0.11219317D+01
 Iteration Nr.   7
 **********************
 DE(Z)  -0.71149954D+00          E(Z)=    -0.22550199446D+03
 NORM(A)=   0.11219204D+01
 Iteration Nr.   8
 **********************
 DE(Z)  -0.71149757D+00          E(Z)=    -0.22550199248D+03
 NORM(A)=   0.11219189D+01
 Iteration Nr.   9
 **********************
 DE(Z)  -0.71149823D+00          E(Z)=    -0.22550199315D+03
 NORM(A)=   0.11219186D+01
 Iteration Nr.  10
 **********************
 DE(Z)  -0.71149795D+00          E(Z)=    -0.22550199286D+03
 NORM(A)=   0.11219185D+01
 Iteration Nr.  11
 **********************
 DE(Z)  -0.71149801D+00          E(Z)=    -0.22550199292D+03
 NORM(A)=   0.11219185D+01
 Iteration Nr.  12
 **********************
 DE(Z)  -0.71149800D+00          E(Z)=    -0.22550199291D+03
 NORM(A)=   0.11219185D+01
 Iteration Nr.  13
 **********************
 DE(Z)  -0.71149801D+00          E(Z)=    -0.22550199292D+03
 NORM(A)=   0.11219185D+01
 Iteration Nr.  14
 **********************
 DE(Z)  -0.71149801D+00          E(Z)=    -0.22550199292D+03
 NORM(A)=   0.11219185D+01
 Discarding MO integrals.
          Differentiating once with respect to electric field.
                with respect to dipole field.
          Differentiating once with respect to nuclear coordinates.
          Store integrals in memory, NReq=     6518293.
          There are   1 degrees of freedom in the 1st order CPHF.
   1 vectors were produced by pass  0.
 AX will form   1 AO Fock derivatives at one time.
   1 vectors were produced by pass  1.
   1 vectors were produced by pass  2.
   1 vectors were produced by pass  3.
   1 vectors were produced by pass  4.
   1 vectors were produced by pass  5.
   1 vectors were produced by pass  6.
   1 vectors were produced by pass  7.
   1 vectors were produced by pass  8.
   1 vectors were produced by pass  9.
   1 vectors were produced by pass 10.
   1 vectors were produced by pass 11.
   1 vectors were produced by pass 12.
   1 vectors were produced by pass 13.
   1 vectors were produced by pass 14.
 Inv2:  IOpt= 1 Iter= 1 AM= 3.64D-16 Conv= 1.00D-12.
 Inverted reduced A of dimension  15 with in-core refinement.

 **********************************************************************

            Population analysis using the QCI/CC density.

 **********************************************************************

 Orbital Symmetries:
       Occupied  (A') (A') (A') (A') (A') (A') (A') (A') (A') (A')
                 (A') (A') (A") (A') (A') (A') (A") (A")
       Virtual   (A") (A') (A") (A') (A') (A') (A') (A') (A') (A')
                 (A') (A') (A") (A') (A") (A') (A') (A") (A') (A')
                 (A") (A') (A') (A") (A') (A') (A') (A') (A') (A')
                 (A') (A') (A') (A") (A") (A") (A') (A') (A") (A")
                 (A') (A') (A') (A') (A') (A') (A") (A") (A') (A')
                 (A") (A") (A") (A') (A') (A') (A') (A') (A') (A')
                 (A') (A') (A') (A') (A')
  The electronic state is 1-A'.
 Alpha  occ. eigenvalues --  -15.64107 -15.58673 -11.27851 -11.25102 -11.22131
 Alpha  occ. eigenvalues --   -1.36561  -1.09089  -1.04509  -0.81853  -0.79332
 Alpha  occ. eigenvalues --   -0.73694  -0.60387  -0.59798  -0.58677  -0.55787
 Alpha  occ. eigenvalues --   -0.45336  -0.35812  -0.33986
 Alpha virt. eigenvalues --    0.17536   0.22466   0.24403   0.27929   0.30239
 Alpha virt. eigenvalues --    0.31373   0.40410   0.40824   0.45547   0.57970
 Alpha virt. eigenvalues --    0.65135   0.74146   0.77416   0.78129   0.82694
 Alpha virt. eigenvalues --    0.83019   0.87434   0.89371   0.90300   0.95296
 Alpha virt. eigenvalues --    0.99592   1.04835   1.07030   1.08983   1.09595
 Alpha virt. eigenvalues --    1.11755   1.16250   1.18064   1.21334   1.26521
 Alpha virt. eigenvalues --    1.39478   1.46048   1.56690   1.59516   1.62865
 Alpha virt. eigenvalues --    1.65395   1.71377   1.76033   1.83007   1.85706
 Alpha virt. eigenvalues --    2.07792   2.16358   2.24631   2.37918   2.41030
 Alpha virt. eigenvalues --    2.43943   2.52700   2.55973   2.58317   2.63326
 Alpha virt. eigenvalues --    2.65474   2.74052   2.92490   2.93480   2.96371
 Alpha virt. eigenvalues --    3.04030   3.07990   3.30941   3.33140   3.41404
 Alpha virt. eigenvalues --    4.17537   4.38245   4.51024   4.66292   4.84191
          Condensed to atoms (all electrons):
              1          2          3          4          5          6
  1  H    0.501359   0.354571   0.000207  -0.023080  -0.000080   0.003155
  2  C    0.354571   5.109014  -0.033869   0.466752   0.003683  -0.044346
  3  H    0.000207  -0.033869   0.518661   0.350450  -0.000326  -0.026158
  4  C   -0.023080   0.466752   0.350450   5.189399  -0.039096   0.421739
  5  H   -0.000080   0.003683  -0.000326  -0.039096   0.519888   0.370132
  6  C    0.003155  -0.044346  -0.026158   0.421739   0.370132   4.992373
  7  N    0.003133  -0.116696   0.004495  -0.037278  -0.039064   0.435071
  8  H   -0.000248  -0.030610  -0.000085   0.003927  -0.000128   0.005961
  9  N   -0.035874   0.246630   0.004208  -0.048621   0.005496  -0.161352
              7          8          9
  1  H    0.003133  -0.000248  -0.035874
  2  C   -0.116696  -0.030610   0.246630
  3  H    0.004495  -0.000085   0.004208
  4  C   -0.037278   0.003927  -0.048621
  5  H   -0.039064  -0.000128   0.005496
  6  C    0.435071   0.005961  -0.161352
  7  N    6.786634  -0.029548   0.255052
  8  H   -0.029548   0.348636   0.320252
  9  N    0.255052   0.320252   6.857127
 Total atomic charges:
              1
  1  H    0.196858
  2  C    0.044871
  3  H    0.182418
  4  C   -0.284193
  5  H    0.179495
  6  C    0.003425
  7  N   -0.261798
  8  H    0.381842
  9  N   -0.442919
 Sum of Mulliken charges=   0.00000
 Atomic charges with hydrogens summed into heavy atoms:
              1
  1  H    0.000000
  2  C    0.241729
  3  H    0.000000
  4  C   -0.101775
  5  H    0.000000
  6  C    0.182919
  7  N   -0.261798
  8  H    0.000000
  9  N   -0.061076
 Sum of Mulliken charges=   0.00000
 Electronic spatial extent (au):  <R**2>=   286.7355
 Charge=     0.0000 electrons
 Dipole moment (Debye):
    X=     2.1911    Y=     0.8497    Z=     0.0000  Tot=     2.3501
 Quadrupole moment (Debye-Ang):
   XX=   -29.6026   YY=   -21.9676   ZZ=   -31.7289
   XY=     2.5932   XZ=     0.0000   YZ=     0.0000
 Octapole moment (Debye-Ang**2):
  XXX=     9.5274  YYY=    12.2391  ZZZ=     0.0000  XYY=     0.3615
  XXY=    -2.3410  XXZ=     0.0000  XZZ=    -0.9243  YZZ=     1.9848
  YYZ=     0.0000  XYZ=     0.0000
 Hexadecapole moment (Debye-Ang**3):
 XXXX=  -174.6709 YYYY=  -132.0969 ZZZZ=   -31.3271 XXXY=    10.3849
 XXXZ=     0.0000 YYYX=    -1.4435 YYYZ=     0.0000 ZZZX=     0.0000
 ZZZY=     0.0000 XXYY=   -51.7363 XXZZ=   -37.6262 YYZZ=   -36.4151
 XXYZ=     0.0000 YYXZ=     0.0000 ZZXY=    -0.0429
 N-N= 1.627060226497D+02 E-N=-8.513687698978D+02  KE= 2.251548919261D+02
 Symmetry A'   KE= 2.169441833784D+02
 Symmetry A"   KE= 8.210708547676D+00
 ***** Axes restored to original set *****
 -------------------------------------------------------------------
 Center     Atomic                   Forces (Hartrees/Bohr)
 Number     Number              X              Y              Z
 -------------------------------------------------------------------
    1          1           0.000020171   -0.000020777    0.000000000
    2          6          -0.000093652    0.000141556    0.000000000
    3          1           0.000010446    0.000015339    0.000000000
    4          6           0.000016361   -0.000077905    0.000000000
    5          1          -0.000013937   -0.000000278    0.000000000
    6          6          -0.000044454    0.000014645    0.000000000
    7          7           0.000056162   -0.000013018    0.000000000
    8          1          -0.000002192    0.000009480    0.000000000
    9          7           0.000051095   -0.000069042    0.000000000
 -------------------------------------------------------------------
 Cartesian Forces:  Max     0.000141556 RMS     0.000042822
 D2Numr ... symmetry will be used.
 Standard basis: 6-31G(d) (6D, 7F)
 Integral buffers will be    262144 words long.
 Raffenetti 1 integral format.
 Two-electron integral symmetry is turned off.
    83 basis functions      156 primitive gaussians
    18 alpha electrons       18 beta electrons
       nuclear repulsion energy       162.7016251195 Hartrees.
 One-electron integrals computed using PRISM.
 NBasis=    83 RedAO= T  NBF=    83
 NBsUse=    83 1.00D-04 NBFU=    83
 Initial guess read from the read-write file:
 Requested convergence on RMS density matrix=1.00D-08 within  64 cycles.
 Requested convergence on MAX density matrix=1.00D-06.
 Keep R1 integrals in memory in canonical form, NReq=     6535233.
 SCF Done:  E(RHF) =  -224.790476538     A.U. after    7 cycles
             Convg  =    0.5957D-08             -V/T =  2.0029
             S**2   =   0.0000
 Range of M.O.s used for correlation:     6    83
 NBasis=    83 NAE=    18 NBE=    18 NFC=     5 NFV=     0
 NROrb=     78 NOA=    13 NOB=    13 NVA=    65 NVB=    65
 Estimate disk for full transformation    59025893 words.
 Spin components of T(2) and E(2):
     alpha-alpha T2 =       0.3398898829D-01 E2=     -0.9649626167D-01
     alpha-beta  T2 =       0.1787596026D+00 E2=     -0.5197694805D+00
     beta-beta   T2 =       0.3398898829D-01 E2=     -0.9649626167D-01
 ANorm=    0.1116574037D+01
 E2=       -0.7127620039D+00 EUMP2=       -0.22550323854146D+03
 Iterations=  50 Convergence= 0.100D-07
 Iteration Nr.   1
 **********************
 MP4(R+Q)=  0.17926830D-01
 E3=       -0.12541833D-01        EUMP3=      -0.22551578037D+03
 E4(DQ)=   -0.45866223D-03        UMP4(DQ)=   -0.22551623904D+03
 E4(SDQ)=  -0.78746961D-02        UMP4(SDQ)=  -0.22552365507D+03
 DE(CORR)= -0.70737701D+00        E(CORR)=    -0.22549785354D+03
 NORM(A)=   0.11162292D+01
 Iteration Nr.   2
 **********************
 DE(CORR)= -0.73102634D+00        E(CORR)=    -0.22552150288D+03
 NORM(A)=   0.11274676D+01
 Iteration Nr.   3
 **********************
 DE(CORR)= -0.73237025D+00        E(CORR)=    -0.22552284679D+03
 NORM(A)=   0.11296630D+01
 Iteration Nr.   4
 **********************
 DE(CORR)= -0.73439328D+00        E(CORR)=    -0.22552486982D+03
 NORM(A)=   0.11303856D+01
 Iteration Nr.   5
 **********************
 DE(CORR)= -0.73461662D+00        E(CORR)=    -0.22552509316D+03
 NORM(A)=   0.11306640D+01
 Iteration Nr.   6
 **********************
 DE(CORR)= -0.73465055D+00        E(CORR)=    -0.22552512709D+03
 NORM(A)=   0.11307015D+01
 Iteration Nr.   7
 **********************
 DE(CORR)= -0.73465479D+00        E(CORR)=    -0.22552513132D+03
 NORM(A)=   0.11307200D+01
 Iteration Nr.   8
 **********************
 DE(CORR)= -0.73464869D+00        E(CORR)=    -0.22552512523D+03
 NORM(A)=   0.11307257D+01
 Iteration Nr.   9
 **********************
 DE(CORR)= -0.73465136D+00        E(CORR)=    -0.22552512789D+03
 NORM(A)=   0.11307280D+01
 Iteration Nr.  10
 **********************
 DE(CORR)= -0.73465150D+00        E(CORR)=    -0.22552512804D+03
 NORM(A)=   0.11307294D+01
 Iteration Nr.  11
 **********************
 DE(CORR)= -0.73465271D+00        E(CORR)=    -0.22552512925D+03
 NORM(A)=   0.11307302D+01
 Iteration Nr.  12
 **********************
 DE(CORR)= -0.73465292D+00        E(CORR)=    -0.22552512946D+03
 NORM(A)=   0.11307307D+01
 Iteration Nr.  13
 **********************
 DE(CORR)= -0.73465315D+00        E(CORR)=    -0.22552512969D+03
 NORM(A)=   0.11307309D+01
 Iteration Nr.  14
 **********************
 DE(CORR)= -0.73465318D+00        E(CORR)=    -0.22552512971D+03
 NORM(A)=   0.11307310D+01
 Iteration Nr.  15
 **********************
 DE(CORR)= -0.73465318D+00        E(CORR)=    -0.22552512972D+03
 NORM(A)=   0.11307310D+01
 Iteration Nr.  16
 **********************
 DE(CORR)= -0.73465318D+00        E(CORR)=    -0.22552512972D+03
 NORM(A)=   0.11307310D+01
 Iteration Nr.  17
 **********************
 DE(CORR)= -0.73465318D+00        E(CORR)=    -0.22552512972D+03
 NORM(A)=   0.11307311D+01
 Iteration Nr.  18
 **********************
 DE(CORR)= -0.73465318D+00        E(CORR)=    -0.22552512972D+03
 NORM(A)=   0.11307310D+01
 Iteration Nr.  19
 **********************
 DE(CORR)= -0.73465318D+00        E(CORR)=    -0.22552512972D+03
 NORM(A)=   0.11307311D+01
 Iteration Nr.  20
 **********************
 DE(CORR)= -0.73465318D+00        E(CORR)=    -0.22552512972D+03
 NORM(A)=   0.11307311D+01
 Largest amplitude= 8.03D-02

 Z-AMPLITUDE ITERATIONS

 Iteration Nr.   1
 **********************
 DE(Z)  -0.71155157D+00          E(Z)=    -0.22550202811D+03
 NORM(A)=   0.11307306D+01
 Iteration Nr.   2
 **********************
 DE(Z)  -0.71155158D+00          E(Z)=    -0.22550202811D+03
 NORM(A)=   0.11307310D+01
 Iteration Nr.   3
 **********************
 DE(Z)  -0.71155157D+00          E(Z)=    -0.22550202811D+03
 NORM(A)=   0.11307311D+01
 Iteration Nr.   4
 **********************
 DE(Z)  -0.71155157D+00          E(Z)=    -0.22550202811D+03
 NORM(A)=   0.11307313D+01
 Iteration Nr.   5
 **********************
 DE(Z)  -0.71155158D+00          E(Z)=    -0.22550202811D+03
 NORM(A)=   0.11220686D+01
 Iteration Nr.   6
 **********************
 DE(Z)  -0.71149535D+00          E(Z)=    -0.22550197189D+03
 NORM(A)=   0.11219785D+01
 Iteration Nr.   7
 **********************
 DE(Z)  -0.71152655D+00          E(Z)=    -0.22550200308D+03
 NORM(A)=   0.11219623D+01
 Iteration Nr.   8
 **********************
 DE(Z)  -0.71151263D+00          E(Z)=    -0.22550198917D+03
 NORM(A)=   0.11219379D+01
 Iteration Nr.   9
 **********************
 DE(Z)  -0.71151506D+00          E(Z)=    -0.22550199160D+03
 NORM(A)=   0.11219303D+01
 Iteration Nr.  10
 **********************
 DE(Z)  -0.71151449D+00          E(Z)=    -0.22550199103D+03
 NORM(A)=   0.11219288D+01
 Iteration Nr.  11
 **********************
 DE(Z)  -0.71151417D+00          E(Z)=    -0.22550199071D+03
 NORM(A)=   0.11219285D+01
 Iteration Nr.  12
 **********************
 DE(Z)  -0.71151415D+00          E(Z)=    -0.22550199069D+03
 NORM(A)=   0.11219285D+01
 Iteration Nr.  13
 **********************
 DE(Z)  -0.71151418D+00          E(Z)=    -0.22550199072D+03
 NORM(A)=   0.11219285D+01
 Iteration Nr.  14
 **********************
 DE(Z)  -0.71151420D+00          E(Z)=    -0.22550199074D+03
 NORM(A)=   0.11219285D+01
 Iteration Nr.  15
 **********************
 DE(Z)  -0.71151420D+00          E(Z)=    -0.22550199074D+03
 NORM(A)=   0.11219285D+01
 Iteration Nr.  16
 **********************
 DE(Z)  -0.71151420D+00          E(Z)=    -0.22550199074D+03
 NORM(A)=   0.11219285D+01
 Iteration Nr.  17
 **********************
 DE(Z)  -0.71151420D+00          E(Z)=    -0.22550199074D+03
 NORM(A)=   0.11219285D+01
 Iteration Nr.  18
 **********************
 DE(Z)  -0.71151420D+00          E(Z)=    -0.22550199074D+03
 NORM(A)=   0.11219285D+01
 Discarding MO integrals.
          Differentiating once with respect to electric field.
                with respect to dipole field.
          Differentiating once with respect to nuclear coordinates.
          Store integrals in memory, NReq=     6518248.
          There are   1 degrees of freedom in the 1st order CPHF.
   1 vectors were produced by pass  0.
 AX will form   1 AO Fock derivatives at one time.
   1 vectors were produced by pass  1.
   1 vectors were produced by pass  2.
   1 vectors were produced by pass  3.
   1 vectors were produced by pass  4.
   1 vectors were produced by pass  5.
   1 vectors were produced by pass  6.
   1 vectors were produced by pass  7.
   1 vectors were produced by pass  8.
   1 vectors were produced by pass  9.
   1 vectors were produced by pass 10.
   1 vectors were produced by pass 11.
   1 vectors were produced by pass 12.
   1 vectors were produced by pass 13.
   1 vectors were produced by pass 14.
 Inv2:  IOpt= 1 Iter= 1 AM= 3.57D-16 Conv= 1.00D-12.
 Inverted reduced A of dimension  15 with in-core refinement.

 **********************************************************************

            Population analysis using the QCI/CC density.

 **********************************************************************

  The electronic state is 1-A'.
 Alpha  occ. eigenvalues --  -15.64108 -15.58674 -11.27860 -11.25102 -11.22131
 Alpha  occ. eigenvalues --   -1.36562  -1.09088  -1.04508  -0.81849  -0.79330
 Alpha  occ. eigenvalues --   -0.73681  -0.60385  -0.59798  -0.58674  -0.55780
 Alpha  occ. eigenvalues --   -0.45337  -0.35812  -0.33986
 Alpha virt. eigenvalues --    0.17536   0.22464   0.24403   0.27911   0.30236
 Alpha virt. eigenvalues --    0.31373   0.40411   0.40824   0.45548   0.57967
 Alpha virt. eigenvalues --    0.65133   0.74146   0.77415   0.78128   0.82693
 Alpha virt. eigenvalues --    0.83019   0.87436   0.89371   0.90298   0.95295
 Alpha virt. eigenvalues --    0.99591   1.04817   1.07022   1.08983   1.09595
 Alpha virt. eigenvalues --    1.11740   1.16249   1.18062   1.21334   1.26520
 Alpha virt. eigenvalues --    1.39477   1.46020   1.56692   1.59517   1.62865
 Alpha virt. eigenvalues --    1.65396   1.71377   1.75996   1.83008   1.85706
 Alpha virt. eigenvalues --    2.07791   2.16357   2.24627   2.37903   2.41030
 Alpha virt. eigenvalues --    2.43933   2.52700   2.55972   2.58309   2.63326
 Alpha virt. eigenvalues --    2.65477   2.74052   2.92490   2.93475   2.96368
 Alpha virt. eigenvalues --    3.04032   3.07989   3.30942   3.33120   3.41388
 Alpha virt. eigenvalues --    4.17535   4.38242   4.51018   4.66280   4.84184
          Condensed to atoms (all electrons):
              1          2          3          4          5          6
  1  H    0.501399   0.354431   0.000208  -0.023039  -0.000080   0.003150
  2  C    0.354431   5.109250  -0.033868   0.466745   0.003684  -0.044355
  3  H    0.000208  -0.033868   0.518663   0.350450  -0.000326  -0.026158
  4  C   -0.023039   0.466745   0.350450   5.189371  -0.039097   0.421749
  5  H   -0.000080   0.003684  -0.000326  -0.039097   0.519887   0.370133
  6  C    0.003150  -0.044355  -0.026158   0.421749   0.370133   4.992380
  7  N    0.003127  -0.116696   0.004495  -0.037274  -0.039065   0.435064
  8  H   -0.000249  -0.030607  -0.000085   0.003927  -0.000128   0.005962
  9  N   -0.035820   0.246596   0.004208  -0.048646   0.005496  -0.161347
              7          8          9
  1  H    0.003127  -0.000249  -0.035820
  2  C   -0.116696  -0.030607   0.246596
  3  H    0.004495  -0.000085   0.004208
  4  C   -0.037274   0.003927  -0.048646
  5  H   -0.039065  -0.000128   0.005496
  6  C    0.435064   0.005962  -0.161347
  7  N    6.786641  -0.029550   0.255053
  8  H   -0.029550   0.348632   0.320251
  9  N    0.255053   0.320251   6.857099
 Total atomic charges:
              1
  1  H    0.196872
  2  C    0.044820
  3  H    0.182414
  4  C   -0.284185
  5  H    0.179497
  6  C    0.003423
  7  N   -0.261795
  8  H    0.381846
  9  N   -0.442892
 Sum of Mulliken charges=   0.00000
 Atomic charges with hydrogens summed into heavy atoms:
              1
  1  H    0.000000
  2  C    0.241693
  3  H    0.000000
  4  C   -0.101771
  5  H    0.000000
  6  C    0.182919
  7  N   -0.261795
  8  H    0.000000
  9  N   -0.061046
 Sum of Mulliken charges=   0.00000
 Electronic spatial extent (au):  <R**2>=   286.7513
 Charge=     0.0000 electrons
 Dipole moment (Debye):
    X=     2.1911    Y=     0.8495    Z=     0.0000  Tot=     2.3500
 Quadrupole moment (Debye-Ang):
   XX=   -29.6015   YY=   -21.9687   ZZ=   -31.7299
   XY=     2.5931   XZ=     0.0000   YZ=     0.0000
 Octapole moment (Debye-Ang**2):
  XXX=     9.5279  YYY=    12.2369  ZZZ=     0.0000  XYY=     0.3586
  XXY=    -2.3404  XXZ=     0.0000  XZZ=    -0.9272  YZZ=     1.9841
  YYZ=     0.0000  XYZ=     0.0000
 Hexadecapole moment (Debye-Ang**3):
 XXXX=  -174.6794 YYYY=  -132.1001 ZZZZ=   -31.3285 XXXY=    10.3865
 XXXZ=     0.0000 YYYX=    -1.4495 YYYZ=     0.0000 ZZZX=     0.0000
 ZZZY=     0.0000 XXYY=   -51.7427 XXZZ=   -37.6338 YYZZ=   -36.4160
 XXYZ=     0.0000 YYXZ=     0.0000 ZZXY=    -0.0450
 N-N= 1.627016251195D+02 E-N=-8.513590544895D+02  KE= 2.251536006191D+02
 -------------------------------------------------------------------
 Center     Atomic                   Forces (Hartrees/Bohr)
 Number     Number              X              Y              Z
 -------------------------------------------------------------------
    1          1          -0.000602092   -0.000242275    0.000000000
    2          6           0.000496692    0.000345702    0.000000000
    3          1           0.000010651    0.000016115    0.000000000
    4          6           0.000011773   -0.000081704    0.000000000
    5          1          -0.000014320   -0.000000208    0.000000000
    6          6          -0.000043689    0.000012355    0.000000000
    7          7           0.000059666   -0.000018065    0.000000000
    8          1          -0.000001684    0.000008808    0.000000000
    9          7           0.000083003   -0.000040727    0.000000000
 -------------------------------------------------------------------
 Cartesian Forces:  Max     0.000602092 RMS     0.000173140
 Re-enter D2Numr: IAtom=  1 IXYZ=1 IStep= 1.
 Standard basis: 6-31G(d) (6D, 7F)
 Integral buffers will be    262144 words long.
 Raffenetti 1 integral format.
 Two-electron integral symmetry is turned off.
    83 basis functions      156 primitive gaussians
    18 alpha electrons       18 beta electrons
       nuclear repulsion energy       162.7104251522 Hartrees.
 One-electron integrals computed using PRISM.
 NBasis=    83 RedAO= T  NBF=    83
 NBsUse=    83 1.00D-04 NBFU=    83
 Initial guess read from the read-write file:
 Requested convergence on RMS density matrix=1.00D-08 within  64 cycles.
 Requested convergence on MAX density matrix=1.00D-06.
 Keep R1 integrals in memory in canonical form, NReq=     6535233.
 SCF Done:  E(RHF) =  -224.790512080     A.U. after    7 cycles
             Convg  =    0.5990D-08             -V/T =  2.0029
             S**2   =   0.0000
 Range of M.O.s used for correlation:     6    83
 NBasis=    83 NAE=    18 NBE=    18 NFC=     5 NFV=     0
 NROrb=     78 NOA=    13 NOB=    13 NVA=    65 NVB=    65
 Estimate disk for full transformation    59025893 words.
 Spin components of T(2) and E(2):
     alpha-alpha T2 =       0.3398618917D-01 E2=     -0.9649393517D-01
     alpha-beta  T2 =       0.1787330364D+00 E2=     -0.5197424397D+00
     beta-beta   T2 =       0.3398618917D-01 E2=     -0.9649393517D-01
 ANorm=    0.1116559633D+01
 E2=       -0.7127303100D+00 EUMP2=       -0.22550324238976D+03
 Iterations=  50 Convergence= 0.100D-07
 Iteration Nr.   1
 **********************
 MP4(R+Q)=  0.17925632D-01
 E3=       -0.12544544D-01        EUMP3=      -0.22551578693D+03
 E4(DQ)=   -0.45460676D-03        UMP4(DQ)=   -0.22551624154D+03
 E4(SDQ)=  -0.78690320D-02        UMP4(SDQ)=  -0.22552365597D+03
 DE(CORR)= -0.70734922D+00        E(CORR)=    -0.22549786130D+03
 NORM(A)=   0.11162130D+01
 Iteration Nr.   2
 **********************
 DE(CORR)= -0.73099258D+00        E(CORR)=    -0.22552150465D+03
 NORM(A)=   0.11274474D+01
 Iteration Nr.   3
 **********************
 DE(CORR)= -0.73233574D+00        E(CORR)=    -0.22552284782D+03
 NORM(A)=   0.11296417D+01
 Iteration Nr.   4
 **********************
 DE(CORR)= -0.73435782D+00        E(CORR)=    -0.22552486990D+03
 NORM(A)=   0.11303641D+01
 Iteration Nr.   5
 **********************
 DE(CORR)= -0.73458104D+00        E(CORR)=    -0.22552509312D+03
 NORM(A)=   0.11306424D+01
 Iteration Nr.   6
 **********************
 DE(CORR)= -0.73461495D+00        E(CORR)=    -0.22552512703D+03
 NORM(A)=   0.11306799D+01
 Iteration Nr.   7
 **********************
 DE(CORR)= -0.73461918D+00        E(CORR)=    -0.22552513126D+03
 NORM(A)=   0.11306984D+01
 Iteration Nr.   8
 **********************
 DE(CORR)= -0.73461309D+00        E(CORR)=    -0.22552512517D+03
 NORM(A)=   0.11307041D+01
 Iteration Nr.   9
 **********************
 DE(CORR)= -0.73461576D+00        E(CORR)=    -0.22552512784D+03
 NORM(A)=   0.11307064D+01
 Iteration Nr.  10
 **********************
 DE(CORR)= -0.73461590D+00        E(CORR)=    -0.22552512798D+03
 NORM(A)=   0.11307078D+01
 Iteration Nr.  11
 **********************
 DE(CORR)= -0.73461711D+00        E(CORR)=    -0.22552512919D+03
 NORM(A)=   0.11307086D+01
 Iteration Nr.  12
 **********************
 DE(CORR)= -0.73461732D+00        E(CORR)=    -0.22552512940D+03
 NORM(A)=   0.11307091D+01
 Iteration Nr.  13
 **********************
 DE(CORR)= -0.73461755D+00        E(CORR)=    -0.22552512963D+03
 NORM(A)=   0.11307093D+01
 Iteration Nr.  14
 **********************
 DE(CORR)= -0.73461757D+00        E(CORR)=    -0.22552512965D+03
 NORM(A)=   0.11307094D+01
 Iteration Nr.  15
 **********************
 DE(CORR)= -0.73461758D+00        E(CORR)=    -0.22552512966D+03
 NORM(A)=   0.11307094D+01
 Iteration Nr.  16
 **********************
 DE(CORR)= -0.73461758D+00        E(CORR)=    -0.22552512966D+03
 NORM(A)=   0.11307094D+01
 Iteration Nr.  17
 **********************
 DE(CORR)= -0.73461758D+00        E(CORR)=    -0.22552512966D+03
 NORM(A)=   0.11307094D+01
 Iteration Nr.  18
 **********************
 DE(CORR)= -0.73461758D+00        E(CORR)=    -0.22552512966D+03
 NORM(A)=   0.11307094D+01
 Iteration Nr.  19
 **********************
 DE(CORR)= -0.73461758D+00        E(CORR)=    -0.22552512966D+03
 NORM(A)=   0.11307095D+01
 Largest amplitude= 8.03D-02

 Z-AMPLITUDE ITERATIONS

 Iteration Nr.   1
 **********************
 DE(Z)  -0.71151904D+00          E(Z)=    -0.22550203112D+03
 NORM(A)=   0.11307195D+01
 Iteration Nr.   2
 **********************
 DE(Z)  -0.71151902D+00          E(Z)=    -0.22550203110D+03
 NORM(A)=   0.11306991D+01
 Iteration Nr.   3
 **********************
 DE(Z)  -0.71151899D+00          E(Z)=    -0.22550203107D+03
 NORM(A)=   0.11307037D+01
 Iteration Nr.   4
 **********************
 DE(Z)  -0.71151902D+00          E(Z)=    -0.22550203110D+03
 NORM(A)=   0.11307081D+01
 Iteration Nr.   5
 **********************
 DE(Z)  -0.71151903D+00          E(Z)=    -0.22550203111D+03
 NORM(A)=   0.11219354D+01
 Iteration Nr.   6
 **********************
 DE(Z)  -0.71148348D+00          E(Z)=    -0.22550199556D+03
 NORM(A)=   0.11219199D+01
 Iteration Nr.   7
 **********************
 DE(Z)  -0.71148229D+00          E(Z)=    -0.22550199437D+03
 NORM(A)=   0.11219106D+01
 Iteration Nr.   8
 **********************
 DE(Z)  -0.71148211D+00          E(Z)=    -0.22550199419D+03
 NORM(A)=   0.11219089D+01
 Iteration Nr.   9
 **********************
 DE(Z)  -0.71148177D+00          E(Z)=    -0.22550199385D+03
 NORM(A)=   0.11219086D+01
 Iteration Nr.  10
 **********************
 DE(Z)  -0.71148178D+00          E(Z)=    -0.22550199386D+03
 NORM(A)=   0.11219086D+01
 Iteration Nr.  11
 **********************
 DE(Z)  -0.71148182D+00          E(Z)=    -0.22550199390D+03
 NORM(A)=   0.11219087D+01
 Iteration Nr.  12
 **********************
 DE(Z)  -0.71148183D+00          E(Z)=    -0.22550199391D+03
 NORM(A)=   0.11219087D+01
 Iteration Nr.  13
 **********************
 DE(Z)  -0.71148183D+00          E(Z)=    -0.22550199391D+03
 NORM(A)=   0.11219086D+01
 Iteration Nr.  14
 **********************
 DE(Z)  -0.71148184D+00          E(Z)=    -0.22550199392D+03
 NORM(A)=   0.11219086D+01
 Iteration Nr.  15
 **********************
 DE(Z)  -0.71148183D+00          E(Z)=    -0.22550199391D+03
 NORM(A)=   0.11219086D+01
 Discarding MO integrals.
          Differentiating once with respect to electric field.
                with respect to dipole field.
          Differentiating once with respect to nuclear coordinates.
          Store integrals in memory, NReq=     6518248.
          There are   1 degrees of freedom in the 1st order CPHF.
   1 vectors were produced by pass  0.
 AX will form   1 AO Fock derivatives at one time.
   1 vectors were produced by pass  1.
   1 vectors were produced by pass  2.
   1 vectors were produced by pass  3.
   1 vectors were produced by pass  4.
   1 vectors were produced by pass  5.
   1 vectors were produced by pass  6.
   1 vectors were produced by pass  7.
   1 vectors were produced by pass  8.
   1 vectors were produced by pass  9.
   1 vectors were produced by pass 10.
   1 vectors were produced by pass 11.
   1 vectors were produced by pass 12.
   1 vectors were produced by pass 13.
   1 vectors were produced by pass 14.
 Inv2:  IOpt= 1 Iter= 1 AM= 3.87D-16 Conv= 1.00D-12.
 Inverted reduced A of dimension  15 with in-core refinement.

 **********************************************************************

            Population analysis using the QCI/CC density.

 **********************************************************************

  The electronic state is 1-A'.
 Alpha  occ. eigenvalues --  -15.64106 -15.58673 -11.27841 -11.25101 -11.22131
 Alpha  occ. eigenvalues --   -1.36561  -1.09091  -1.04510  -0.81857  -0.79334
[...]
                    A'                     A'                     A'
 Frequencies --  1531.2851              1614.7023              3273.9651
 Red. masses --     2.6578                 3.2083                 1.0930
 Frc consts  --     3.6719                 4.9285                 6.9030
 IR Inten    --    10.7955                 7.5184                 4.7439
 Raman Activ --     0.0000                 0.0000                 0.0000
 Depolar     --     0.0000                 0.0000                 0.0000
 Atom AN      X      Y      Z        X      Y      Z        X      Y      Z
   1   1    -0.01  -0.30   0.00     0.31  -0.30   0.00    -0.17  -0.07   0.00
   2   6    -0.18   0.15   0.00     0.04   0.25   0.00     0.01   0.01   0.00
   3   1    -0.16  -0.23   0.00     0.30  -0.03   0.00     0.22  -0.34   0.00
   4   6     0.11  -0.03   0.00    -0.04  -0.21   0.00    -0.02   0.03   0.00
   5   1     0.06  -0.10   0.00     0.38  -0.26   0.00     0.60   0.65   0.00
   6   6    -0.08   0.04   0.00    -0.13   0.20   0.00    -0.05  -0.06   0.00
   7   7    -0.04   0.00   0.00     0.08  -0.12   0.00     0.00   0.00   0.00
   8   1    -0.81  -0.16   0.00     0.56  -0.01   0.00     0.00   0.01   0.00
   9   7     0.23  -0.08   0.00    -0.07  -0.03   0.00     0.00   0.00   0.00
                    19                     20                     21
                    A'                     A'                     A'
 Frequencies --  3286.3134              3304.9140              3695.4735
 Red. masses --     1.0949                 1.1084                 1.0821
 Frc consts  --     6.9672                 7.1330                 8.7069
 IR Inten    --     3.2537                 0.7952                82.7687
 Raman Activ --     0.0000                 0.0000                 0.0000
 Depolar     --     0.0000                 0.0000                 0.0000
 Atom AN      X      Y      Z        X      Y      Z        X      Y      Z
   1   1     0.72   0.31   0.00    -0.54  -0.23   0.00     0.02   0.00   0.00
   2   6    -0.06  -0.03   0.00     0.05   0.03   0.00     0.00   0.00   0.00
   3   1    -0.27   0.40   0.00    -0.43   0.64   0.00     0.00   0.00   0.00
   4   6     0.03  -0.03   0.00     0.04  -0.06   0.00     0.00   0.00   0.00
   5   1     0.26   0.28   0.00     0.16   0.16   0.00     0.00   0.00   0.00
   6   6    -0.02  -0.03   0.00    -0.02  -0.01   0.00     0.00   0.00   0.00
   7   7     0.00   0.00   0.00     0.00   0.00   0.00     0.00   0.00   0.00
   8   1    -0.01  -0.01   0.00     0.00   0.01   0.00    -0.06   1.00   0.00
   9   7     0.00   0.00   0.00     0.00   0.00   0.00     0.01  -0.08   0.00

 -------------------
 - Thermochemistry -
 -------------------
 Temperature   298.150 Kelvin.  Pressure   1.00000 Atm.
 Atom  1 has atomic number  1 and mass   1.00783
 Atom  2 has atomic number  6 and mass  12.00000
 Atom  3 has atomic number  1 and mass   1.00783
 Atom  4 has atomic number  6 and mass  12.00000
 Atom  5 has atomic number  1 and mass   1.00783
 Atom  6 has atomic number  6 and mass  12.00000
 Atom  7 has atomic number  7 and mass  14.00307
 Atom  8 has atomic number  1 and mass   1.00783
 Atom  9 has atomic number  7 and mass  14.00307
 Molecular mass:    68.03745 amu.
 Principal axes and moments of inertia in atomic units:
                           1         2         3
     EIGENVALUES --   187.40908 192.46787 379.87695
           X            0.93397   0.35735   0.00000
           Y           -0.35735   0.93397   0.00000
           Z            0.00000   0.00000   1.00000
 THIS MOLECULE IS AN ASYMMETRIC TOP.
 ROTATIONAL SYMMETRY NUMBER  1.
 ROTATIONAL TEMPERATURES (KELVIN)      0.46216     0.45001     0.22800
 ROTATIONAL CONSTANTS (GHZ)            9.62996     9.37684     4.75086
 Zero-point vibrational energy     188833.8 (Joules/Mol)
                                   45.13236 (Kcal/Mol)
 WARNING-- EXPLICIT CONSIDERATION OF   1 DEGREES OF FREEDOM AS
           VIBRATIONS MAY CAUSE SIGNIFICANT ERROR
 VIBRATIONAL TEMPERATURES:    697.65   901.55   996.21  1085.68  1176.11
          (KELVIN)           1249.28  1338.04  1365.29  1543.88  1560.27
                             1685.25  1734.77  1890.45  2048.33  2112.94
                             2203.17  2323.18  4710.48  4728.24  4755.01
                             5316.93
 
 Zero-point correction=                           0.071923 (Hartree/Particle)
 Thermal correction to Energy=                    0.075692
 Thermal correction to Enthalpy=                  0.076637
 Thermal correction to Gibbs Free Energy=         0.045632
 Sum of electronic and zero-point Energies=           -225.453207
 Sum of electronic and thermal Energies=              -225.449438
 Sum of electronic and thermal Enthalpies=            -225.448494
 Sum of electronic and thermal Free Energies=         -225.479498
 
                     E (Thermal)             CV                S
                      KCAL/MOL        CAL/MOL-KELVIN    CAL/MOL-KELVIN
 TOTAL                   47.498             13.320             65.254
 ELECTRONIC               0.000              0.000              0.000
 TRANSLATIONAL            0.889              2.981             38.570
 ROTATIONAL               0.889              2.981             24.131
 VIBRATIONAL             45.720              7.359              2.553
 VIBRATION  1             0.841              1.284              0.697
                       Q            LOG10(Q)             LN(Q)
 TOTAL BOT       0.102502D-20        -20.989270        -48.329579
 TOTAL V=0       0.123819D+13         12.092786         27.844668
 VIB (BOT)       0.110893D-32        -32.955097        -75.881916
 VIB (BOT)  1    0.343466D+00         -0.464116         -1.068666
 VIB (V=0)       0.133955D+01          0.126958          0.292332
 VIB (V=0)  1    0.110660D+01          0.043992          0.101296
 ELECTRONIC      0.100000D+01          0.000000          0.000000
 TRANSLATIONAL   0.220588D+08          7.343582         16.909224
 ROTATIONAL      0.419030D+05          4.622245         10.643113
 ***** Axes restored to original set *****
 -------------------------------------------------------------------
 Center     Atomic                   Forces (Hartrees/Bohr)
 Number     Number              X              Y              Z
 -------------------------------------------------------------------
    1          1           0.000020171   -0.000020777    0.000000000
    2          6          -0.000093652    0.000141556    0.000000000
    3          1           0.000010446    0.000015339    0.000000000
    4          6           0.000016361   -0.000077905    0.000000000
    5          1          -0.000013937   -0.000000278    0.000000000
    6          6          -0.000044454    0.000014645    0.000000000
    7          7           0.000056162   -0.000013018    0.000000000
    8          1          -0.000002192    0.000009480    0.000000000
    9          7           0.000051095   -0.000069042    0.000000000
 -------------------------------------------------------------------
 Cartesian Forces:  Max     0.000141556 RMS     0.000042822

 GradGradGradGradGradGradGradGradGradGradGradGradGradGradGradGradGradGrad
 Berny optimization.
 Internal  Forces:  Max     0.000091727 RMS     0.000022715
 Search for a local minimum.
 Step number   1 out of a maximum of  48
 All quantities printed in internal units (Hartrees-Bohrs-Radians)
 Second derivative matrix not updated -- analytic derivatives used.
     Eigenvalues ---    0.00622   0.01044   0.01598   0.02786   0.05712
     Eigenvalues ---    0.06074   0.09884   0.10883   0.11591   0.12386
     Eigenvalues ---    0.23020   0.27349   0.35718   0.37580   0.38025
     Eigenvalues ---    0.38290   0.41754   0.43982   0.48570   0.51777
     Eigenvalues ---    0.585621000.000001000.000001000.000001000.00000
     Eigenvalues --- 1000.000001000.000001000.000001000.000001000.00000
     Eigenvalues --- 1000.000001000.000001000.000001000.000001000.00000
     Eigenvalues --- 1000.000001000.000001000.00000
 Angle between quadratic step and forces=  37.91 degrees.
 Linear search not attempted -- first point.
 Iteration  1 RMS(Cart)=  0.00011539 RMS(Int)=  0.00000002
 Iteration  2 RMS(Cart)=  0.00000002 RMS(Int)=  0.00000000
 Variable       Old X    -DE/DX   Delta X   Delta X   Delta X     New X
                                 (Linear)    (Quad)   (Total)
    R1        2.04613   0.00001   0.00000   0.00003   0.00003   2.04615
    R2        2.60710   0.00006   0.00000   0.00014   0.00014   2.60725
    R3        2.56810  -0.00009   0.00000  -0.00024  -0.00024   2.56786
    R4        2.04478  -0.00001   0.00000  -0.00002  -0.00002   2.04476
    R5        2.67598   0.00002   0.00000   0.00007   0.00007   2.67605
    R6        2.04832   0.00001   0.00000   0.00002   0.00002   2.04835
    R7        2.51925  -0.00002   0.00000  -0.00003  -0.00003   2.51922
    R8        2.55805  -0.00002   0.00000  -0.00006  -0.00006   2.55798
    R9        1.90876   0.00001   0.00000   0.00002   0.00002   1.90878
    A1        2.30407  -0.00003   0.00000  -0.00034  -0.00034   2.30374
    A2        2.12499   0.00002   0.00000   0.00028   0.00028   2.12527
    A3        1.85412   0.00001   0.00000   0.00006   0.00006   1.85418
    A4        2.22305  -0.00001   0.00000  -0.00017  -0.00017   2.22288
    A5        1.82337  -0.00002   0.00000  -0.00008  -0.00008   1.82330
    A6        2.23677   0.00003   0.00000   0.00024   0.00024   2.23701
    A7        2.24128   0.00003   0.00000   0.00014   0.00014   2.24142
    A8        1.95776  -0.00003   0.00000  -0.00007  -0.00007   1.95769
    A9        2.08414   0.00000   0.00000  -0.00007  -0.00007   2.08407
   A10        1.81173   0.00003   0.00000   0.00009   0.00009   1.81182
   A11        1.97779   0.00000   0.00000   0.00000   0.00000   1.97779
   A12        2.23380   0.00000   0.00000   0.00003   0.00003   2.23383
   A13        2.07159   0.00000   0.00000  -0.00003  -0.00003   2.07156
    D1        0.00000   0.00000   0.00000   0.00000   0.00000   0.00000
    D2        3.14159   0.00000   0.00000   0.00000   0.00000   3.14159
    D3        3.14159   0.00000   0.00000   0.00000   0.00000   3.14159
    D4        0.00000   0.00000   0.00000   0.00000   0.00000   0.00000
    D5        3.14159   0.00000   0.00000   0.00000   0.00000   3.14159
    D6        0.00000   0.00000   0.00000   0.00000   0.00000   0.00000
    D7        0.00000   0.00000   0.00000   0.00000   0.00000   0.00000
    D8        3.14159   0.00000   0.00000   0.00000   0.00000   3.14159
    D9        3.14159   0.00000   0.00000   0.00000   0.00000   3.14159
   D10        0.00000   0.00000   0.00000   0.00000   0.00000   0.00000
   D11        0.00000   0.00000   0.00000   0.00000   0.00000   0.00000
   D12        3.14159   0.00000   0.00000   0.00000   0.00000   3.14159
   D13        0.00000   0.00000   0.00000   0.00000   0.00000   0.00000
   D14        3.14159   0.00000   0.00000   0.00000   0.00000   3.14159
   D15        0.00000   0.00000   0.00000   0.00000   0.00000   0.00000
   D16        3.14159   0.00000   0.00000   0.00000   0.00000   3.14159
         Item               Value     Threshold  Converged?
 Maximum Force            0.000092     0.000450     YES
 RMS     Force            0.000023     0.000300     YES
 Maximum Displacement     0.000404     0.001800     YES
 RMS     Displacement     0.000115     0.001200     YES
 Predicted change in Energy=-3.550370D-08
 Optimization completed.
    -- Stationary point found.
                         ----------------------------
                         !   Optimized Parameters   !
                         ! (Angstroms and Degrees)  !
 ------------------------                            -------------------------
 ! Name  Definition              Value          Derivative Info.             !
 -----------------------------------------------------------------------------
 ! R1    R(1,2)                  1.0828         -DE/DX =    0.               !
 ! R2    R(2,4)                  1.3796         -DE/DX =    0.0001           !
 ! R3    R(2,9)                  1.359          -DE/DX =   -0.0001           !
 ! R4    R(3,4)                  1.082          -DE/DX =    0.               !
 ! R5    R(4,6)                  1.4161         -DE/DX =    0.               !
 ! R6    R(5,6)                  1.0839         -DE/DX =    0.               !
 ! R7    R(6,7)                  1.3331         -DE/DX =    0.               !
 ! R8    R(7,9)                  1.3537         -DE/DX =    0.               !
 ! R9    R(8,9)                  1.0101         -DE/DX =    0.               !
 ! A1    A(1,2,4)              132.0136         -DE/DX =    0.               !
 ! A2    A(1,2,9)              121.753          -DE/DX =    0.               !
 ! A3    A(4,2,9)              106.2334         -DE/DX =    0.               !
 ! A4    A(2,4,3)              127.3713         -DE/DX =    0.               !
 ! A5    A(2,4,6)              104.4714         -DE/DX =    0.               !
 ! A6    A(3,4,6)              128.1572         -DE/DX =    0.               !
 ! A7    A(4,6,5)              128.4159         -DE/DX =    0.               !
 ! A8    A(4,6,7)              112.1715         -DE/DX =    0.               !
 ! A9    A(5,6,7)              119.4126         -DE/DX =    0.               !
 ! A10   A(6,7,9)              103.8046         -DE/DX =    0.               !
 ! A11   A(2,9,7)              113.3192         -DE/DX =    0.               !
 ! A12   A(2,9,8)              127.9873         -DE/DX =    0.               !
 ! A13   A(7,9,8)              118.6935         -DE/DX =    0.               !
 ! D1    D(1,2,4,3)              0.             -DE/DX =    0.               !
 ! D2    D(1,2,4,6)            180.             -DE/DX =    0.               !
 ! D3    D(9,2,4,3)            180.             -DE/DX =    0.               !
 ! D4    D(9,2,4,6)              0.             -DE/DX =    0.               !
 ! D5    D(1,2,9,7)            180.             -DE/DX =    0.               !
 ! D6    D(1,2,9,8)              0.             -DE/DX =    0.               !
 ! D7    D(4,2,9,7)              0.             -DE/DX =    0.               !
 ! D8    D(4,2,9,8)            180.             -DE/DX =    0.               !
 ! D9    D(2,4,6,5)            180.             -DE/DX =    0.               !
 ! D10   D(2,4,6,7)              0.             -DE/DX =    0.               !
 ! D11   D(3,4,6,5)              0.             -DE/DX =    0.               !
 ! D12   D(3,4,6,7)            180.             -DE/DX =    0.               !
 ! D13   D(4,6,7,9)              0.             -DE/DX =    0.               !
 ! D14   D(5,6,7,9)            180.             -DE/DX =    0.               !
 ! D15   D(6,7,9,2)              0.             -DE/DX =    0.               !
 ! D16   D(6,7,9,8)            180.             -DE/DX =    0.               !
 -----------------------------------------------------------------------------
 GradGradGradGradGradGradGradGradGradGradGradGradGradGradGradGradGradGrad

 1\1\GINC-FERRUM\Freq\RQCISD-FC\6-31G(d)\C3H4N2\RDJ3\09-Nov-1999\0\\#N 
 GEOM=ALLCHECK GUESS=TCHECK RQCISD(FC)/6-31G(D) FREQ\\1H pyrazole C3H4N
 2 casno=288131\\0,1\H,2.1078377208,0.7340213508,0.\C,1.1127067862,0.30
 73011983,0.\H,1.2703551242,-1.8975887775,0.\C,0.6680219864,-0.99868686
 98,0.\H,-1.479742908,-1.687696199,0.\C,-0.74400003,-0.8917200862,0.\N,
 -1.1524042245,0.3773138512,0.\H,-0.0519904879,2.0962290198,0.\N,-0.000
 0003333,1.0874960278,0.\\Version=IBM-RS6000-G98RevA.4\State=1-A'\HF=-2
 24.7904949\MP2=-225.5032411\MP3=-225.5157843\MP4D=-225.5341671\MP4DQ=-
 225.5162409\MP4SDQ=-225.5236561\QCISD=-225.5251303\RMSD=7.723e-10\RMSF
 =4.282e-05\Dipole=0.8620282,0.334286,0.\DipoleDeriv=-0.0003856,-0.0437
 162,0.,-0.0544683,0.0648902,0.,0.,0.,0.1764961,0.029256,-0.1782368,0.,
 0.0313303,0.4091682,0.,0.,0.,-0.054133,0.0478126,0.0701521,0.,0.063873
 ,0.0112005,0.,0.,0.,0.1692157,-0.18246,-0.1992138,0.,-0.1307804,-0.154
 6311,0.,0.,0.,-0.2351737,0.007026,-0.0763877,0.,-0.0622552,0.0152651,0
 .,0.,0.,0.138119,0.3849927,0.1514821,0.,0.0220924,0.04815,0.,0.,0.,-0.
 04109,-0.4432699,0.3080177,0.,0.2045142,-0.0596708,0.,0.,0.,-0.2410335
 ,0.1818107,-0.0097585,0.,-0.0179539,0.2577953,0.,0.,0.,0.3395604,-0.02
 50386,-0.0226118,0.,-0.0569126,-0.5925732,0.,0.,0.,-0.2520246\PG=CS [S
 G(C3H4N2)]\NImag=0\\0.33009224,0.11764467,0.10326934,0.,0.,0.02015706,
 -0.31320859,-0.11828976,0.,0.84807353,-0.10847004,-0.11349431,0.,0.122
 81886,0.71104854,0.,0.,-0.02350261,0.,0.,0.10918263,-0.00010210,0.0007
 3456,0.,0.01247239,-0.01181059,0.,0.15140592,-0.00041380,0.00021047,0.
 ,0.01866022,-0.00992314,0.,-0.15289489,0.27887951,0.,0.,-0.00219154,0.
 ,0.,-0.00436860,0.,0.,0.02054883,0.00244496,-0.02316224,0.,-0.14418257
 ,-0.06936078,0.,-0.15426107,0.14031935,0.,0.64694812,0.00201143,0.0040
 8703,0.,-0.09934371,-0.37172044,0.,0.14278808,-0.27078006,0.,-0.124318
 54,0.84947007,0.,0.,-0.00081808,0.,0.,-0.05361244,0.,0.,-0.02174861,0.
 ,0.,0.10128450,0.00020343,-0.00148852,0.,-0.00633645,0.00126168,0.,0.0
 0019064,0.00049754,0.,-0.00635179,-0.02113213,0.,0.20415443,-0.0000363
 0,0.00070684,0.,0.00311868,-0.00084415,0.,-0.00067830,-0.00021177,0.,0
 .00546636,0.00907289,0.,0.15956781,0.23011460,0.,0.,0.00075708,0.,0.,0
 .00506900,0.,0.,-0.00123861,0.,0.,-0.00106098,0.,0.,0.02417974,-0.0004
 0907,-0.00236231,0.,-0.03142170,-0.09167800,0.,-0.00168277,-0.00354557
 ,0.,-0.30700589,0.02645945,0.,-0.20663401,-0.14421670,0.,0.72502186,0.
 00123079,-0.00675257,0.,-0.01898443,0.01893177,0.,0.02503248,0.0064117
 9,0.,-0.01013249,-0.11964073,0.,-0.15337604,-0.21334498,0.,0.12694880,
 0.81067923,0.,0.,0.00573587,0.,0.,0.00641865,0.,0.,-0.00540185,0.,0.,-
 0.05634602,0.,0.,-0.02892171,0.,0.,0.13192135,-0.00186515,0.00419194,0
 .,-0.09402792,0.01049711,0.,-0.00715362,-0.00224895,0.,-0.03193746,0.0
 1578882,0.,0.01238739,-0.02307193,0.,-0.13977502,0.07264813,0.,0.50428
 191,0.00263965,-0.00314129,0.,-0.01403168,-0.03475034,0.,0.00249252,0.
 00062468,0.,0.09068184,-0.01342940,0.,0.00924206,-0.01814880,0.,0.1095
 7575,-0.37352849,0.,-0.04094074,0.59667281,0.,0.,0.00667237,0.,0.,0.01
 627256,0.,0.,0.00678862,0.,0.,0.01905898,0.,0.,-0.00818825,0.,0.,-0.07
 019552,0.,0.,0.10292312,-0.00026454,-0.00066073,0.,0.01128303,0.025302
 20,0.,0.00101444,0.00112169,0.,-0.00634925,0.00448866,0.,0.00092999,-0
 .00167823,0.,-0.00865759,-0.00559561,0.,0.00913070,-0.03526988,0.,0.06
 945500,0.00035574,-0.00003292,0.,-0.00517447,-0.00647068,0.,-0.0002726
 0,-0.00009668,0.,0.00396731,0.00129561,0.,0.00039159,-0.00037561,0.,-0
 .00576142,0.00131551,0.,0.00264648,-0.01243538,0.,-0.02247110,0.484068
 44,0.,0.,-0.00125880,0.,0.,-0.00968399,0.,0.,0.00243587,0.,0.,0.003328
 93,0.,0.,0.00234223,0.,0.,0.00428125,0.,0.,-0.01332135,0.,0.,0.0116359
 3,-0.01688921,0.02339052,0.,-0.28266829,0.12148418,0.,-0.00188366,-0.0
 0149689,0.,0.00068811,0.05322798,0.,0.00145430,0.00152179,0.,-0.029420
 81,-0.03776270,0.,-0.25106671,-0.12438106,0.,-0.07653741,0.02631267,0.
 ,0.65635355,-0.01497631,0.01514013,0.,0.11122040,-0.19279187,0.,-0.005
 39141,-0.00511873,0.,-0.01344015,-0.08832265,0.,0.00502964,-0.00697206
 ,0.,-0.01542330,-0.12409287,0.,-0.03950124,-0.14184885,0.,0.03475633,-
 0.46727369,0.,-0.06229020,1.01128890,0.,0.,-0.00554795,0.,0.,-0.045773
 55,0.,0.,0.00517966,0.,0.,0.00991684,0.,0.,0.00706197,0.,0.,0.01251512
 ,0.,0.,-0.06002825,0.,0.,0.00023244,0.,0.,0.07644933\\-0.00002017,0.00
 002078,0.,0.00009365,-0.00014156,0.,-0.00001045,-0.00001534,0.,-0.0000
 1636,0.00007791,0.,0.00001394,0.00000028,0.,0.00004445,-0.00001464,0.,
 -0.00005616,0.00001302,0.,0.00000219,-0.00000948,0.,-0.00005109,0.0000
 6904,0.\\\@


 HE WHO LOVES TO READ, AND KNOWS HOW TO REFLECT,
 HAS LAID BY A PERPETUAL FEAST FOR HIS OLD AGE.
 -- UNCLE ESEK, "SCRIBNER'S MONTHLY", SEPT. 1880
 Job cpu time:  0 days 19 hours 11 minutes 14.8 seconds.
 File lengths (MBytes):  RWF=  484 Int=    0 D2E=    0 Chk=    4 Scr=    1
 Normal termination of Gaussian 98.
