 Entering Gaussian System, Link 0=g98
 Initial command:
 /usr/local/apps/g98/g98/l1.exe /wrk/rdj3/Gau-19479.inp -scrdir=/wrk/rdj3/
 Entering Link 1 = /usr/local/apps/g98/g98/l1.exe PID=     19480.
  
 Copyright (c) 1988,1990,1992,1993,1995,1998 Gaussian, Inc.
                  All Rights Reserved.
  
 This is part of the Gaussian(R) 98 program.  It is based on
 the Gaussian 94(TM) system (copyright 1995 Gaussian, Inc.),
 the Gaussian 92(TM) system (copyright 1992 Gaussian, Inc.),
 the Gaussian 90(TM) system (copyright 1990 Gaussian, Inc.),
 the Gaussian 88(TM) system (copyright 1988 Gaussian, Inc.),
 the Gaussian 86(TM) system (copyright 1986 Carnegie Mellon
 University), and the Gaussian 82(TM) system (copyright 1983
 Carnegie Mellon University). Gaussian is a federally registered
 trademark of Gaussian, Inc.
  
 This software contains proprietary and confidential information,
 including trade secrets, belonging to Gaussian, Inc.
  
 This software is provided under written license and may be
 used, copied, transmitted, or stored only in accord with that
 written license.
  
 The following legend is applicable only to US Government
 contracts under DFARS:
  
                    RESTRICTED RIGHTS LEGEND
  
 Use, duplication or disclosure by the US Government is subject
 to restrictions as set forth in subparagraph (c)(1)(ii) of the
 Rights in Technical Data and Computer Software clause at DFARS
 252.227-7013.
  
 Gaussian, Inc.
 Carnegie Office Park, Building 6, Pittsburgh, PA 15106 USA
  
 The following legend is applicable only to US Government
 contracts under FAR:
  
                    RESTRICTED RIGHTS LEGEND
  
 Use, reproduction and disclosure by the US Government is subject
 to restrictions as set forth in subparagraph (c) of the
 Commercial Computer Software - Restricted Rights clause at FAR
 52.227-19.
  
 Gaussian, Inc.
 Carnegie Office Park, Building 6, Pittsburgh, PA 15106 USA
  
  
 ---------------------------------------------------------------
 Warning -- This program may not be used in any manner that
 competes with the business of Gaussian, Inc. or will provide
 assistance to any competitor of Gaussian, Inc.  The licensee
 of this program is prohibited from giving any competitor of
 Gaussian, Inc. access to this program.  By using this program,
 the user acknowledges that Gaussian, Inc. is engaged in the
 business of creating and licensing software in the field of
 computational chemistry and represents and warrants to the
 licensee that it is not a competitor of Gaussian, Inc. and that
 it will not use this program in any manner prohibited above.
 ---------------------------------------------------------------
  

 Cite this work as:
 Gaussian 98, Revision A.4,
 M. J. Frisch, G. W. Trucks, H. B. Schlegel, G. E. Scuseria, 
 M. A. Robb, J. R. Cheeseman, V. G. Zakrzewski, J. A. Montgomery, Jr., 
 R. E. Stratmann, J. C. Burant, S. Dapprich, J. M. Millam, 
 A. D. Daniels, K. N. Kudin, M. C. Strain, O. Farkas, J. Tomasi, 
 V. Barone, M. Cossi, R. Cammi, B. Mennucci, C. Pomelli, C. Adamo, 
 S. Clifford, J. Ochterski, G. A. Petersson, P. Y. Ayala, Q. Cui, 
 K. Morokuma, D. K. Malick, A. D. Rabuck, K. Raghavachari, 
 J. B. Foresman, J. Cioslowski, J. V. Ortiz, B. B. Stefanov, G. Liu, 
 A. Liashenko, P. Piskorz, I. Komaromi, R. Gomperts, R. L. Martin, 
 D. J. Fox, T. Keith, M. A. Al-Laham, C. Y. Peng, A. Nanayakkara, 
 C. Gonzalez, M. Challacombe, P. M. W. Gill, B. Johnson, W. Chen, 
 M. W. Wong, J. L. Andres, C. Gonzalez, M. Head-Gordon, 
 E. S. Replogle, and J. A. Pople, 
 Gaussian, Inc., Pittsburgh PA, 1998.

 *********************************************
 Gaussian 98:  x86-Linux-G98RevA.4 11-Sep-1998
                  26-Oct-1999 
 *********************************************
 %mem=24000000
 ---------------------
 #QCISD/3-21G opt freq
 ---------------------
 1/18=20,38=1/1,3;
 2/9=110,17=6,18=5/2;
 3/5=5,11=9,25=1,30=1/1,2,3;
 4//1;
 5/5=2,38=4/2;
 8/6=7,9=120000,10=1/1,4;
 9/5=8,15=1/13;
 11/28=-7,29=200,42=1/11;
 10/5=6/2;
 6/7=2,8=2,9=2,10=2/1;
 7/12=7/1,2,3,16;
 1/18=20/3(1);
 99//99;
 2/9=110/2;
 3/5=5,11=9,25=1,30=1/1,2,3;
 4/5=5,16=2/1;
 5/5=2,38=4/2;
 8/6=7,9=120000,10=1/1,4;
 9/5=8,15=1/13;
 11/28=-7,29=200,42=1/11;
 10/5=6/2;
 7/12=7/1,2,3,16;
 1/18=20/3(-9);
 2/9=110/2;
 6/7=2,8=2,9=2,10=2/1;
 99//99;
 -------------------------------
 1H pyrazole C3H4N2 casno=288131
 -------------------------------
 Symbolic Z-matrix:
 Charge =  0 Multiplicity = 1
 H                    -1.9125    0.       -0.75938 
 C                    -1.08438   0.       -0.21875 
 H                     0.43438   0.       -1.63125 
 C                     0.15      0.       -0.68438 
 H                     1.9125    0.        0.37188 
 C                     0.92188   0.        0.375 
 N                     0.18125   0.        1.41875 
 H                    -1.74063   0.        1.63125 
 N                    -1.00313   0.        1.05313 

 GradGradGradGradGradGradGradGradGradGradGradGradGradGradGradGradGradGrad
 Berny optimization.
 Initialization pass.
                         ----------------------------
                         !    Initial Parameters    !
                         ! (Angstroms and Degrees)  !
 ------------------------                            -------------------------
 ! Name  Definition              Value          Derivative Info.             !
 -----------------------------------------------------------------------------
 ! R1    R(1,2)                  0.989          estimate D2E/DX2             !
 ! R2    R(2,4)                  1.3193         estimate D2E/DX2             !
 ! R3    R(2,9)                  1.2745         estimate D2E/DX2             !
 ! R4    R(3,4)                  0.9887         estimate D2E/DX2             !
 ! R5    R(4,6)                  1.3108         estimate D2E/DX2             !
 ! R6    R(5,6)                  0.9906         estimate D2E/DX2             !
 ! R7    R(6,7)                  1.2798         estimate D2E/DX2             !
 ! R8    R(7,9)                  1.2395         estimate D2E/DX2             !
 ! R9    R(8,9)                  0.9371         estimate D2E/DX2             !
 ! A1    A(1,2,4)              126.195          estimate D2E/DX2             !
 ! A2    A(1,2,9)              126.7929         estimate D2E/DX2             !
 ! A3    A(4,2,9)              107.012          estimate D2E/DX2             !
 ! A4    A(2,4,3)              127.3838         estimate D2E/DX2             !
 ! A5    A(2,4,6)              105.4104         estimate D2E/DX2             !
 ! A6    A(3,4,6)              127.2058         estimate D2E/DX2             !
 ! A7    A(4,6,5)              125.8968         estimate D2E/DX2             !
 ! A8    A(4,6,7)              108.5636         estimate D2E/DX2             !
 ! A9    A(5,6,7)              125.5395         estimate D2E/DX2             !
 ! A10   A(6,7,9)              108.203          estimate D2E/DX2             !
 ! A11   A(2,9,7)              110.811          estimate D2E/DX2             !
 ! A12   A(2,9,8)              124.4376         estimate D2E/DX2             !
 ! A13   A(7,9,8)              124.7513         estimate D2E/DX2             !
 ! D1    D(1,2,4,3)              0.             estimate D2E/DX2             !
 ! D2    D(1,2,4,6)            180.             estimate D2E/DX2             !
 ! D3    D(9,2,4,3)            180.             estimate D2E/DX2             !
 ! D4    D(9,2,4,6)              0.             estimate D2E/DX2             !
 ! D5    D(1,2,9,7)            180.             estimate D2E/DX2             !
 ! D6    D(1,2,9,8)              0.             estimate D2E/DX2             !
 ! D7    D(4,2,9,7)              0.             estimate D2E/DX2             !
 ! D8    D(4,2,9,8)            180.             estimate D2E/DX2             !
 ! D9    D(2,4,6,5)            180.             estimate D2E/DX2             !
 ! D10   D(2,4,6,7)              0.             estimate D2E/DX2             !
 ! D11   D(3,4,6,5)              0.             estimate D2E/DX2             !
 ! D12   D(3,4,6,7)            180.             estimate D2E/DX2             !
 ! D13   D(4,6,7,9)              0.             estimate D2E/DX2             !
 ! D14   D(5,6,7,9)            180.             estimate D2E/DX2             !
 ! D15   D(6,7,9,2)              0.             estimate D2E/DX2             !
 ! D16   D(6,7,9,8)            180.             estimate D2E/DX2             !
 -----------------------------------------------------------------------------
 Trust Radius=3.00D-01 FncErr=1.00D-07 GrdErr=1.00D-07
 Number of steps in this run=  48 maximum allowed number of steps= 100.
 GradGradGradGradGradGradGradGradGradGradGradGradGradGradGradGradGradGrad

                          Input orientation:                          
 ---------------------------------------------------------------------
 Center     Atomic     Atomic              Coordinates (Angstroms)
 Number     Number      Type              X           Y           Z
 ---------------------------------------------------------------------
    1          1             0       -1.912500    0.000000   -0.759375
    2          6             0       -1.084375    0.000000   -0.218750
    3          1             0        0.434375    0.000000   -1.631250
    4          6             0        0.150000    0.000000   -0.684375
    5          1             0        1.912500    0.000000    0.371875
    6          6             0        0.921875    0.000000    0.375000
    7          7             0        0.181250    0.000000    1.418750
    8          1             0       -1.740625    0.000000    1.631250
    9          7             0       -1.003125    0.000000    1.053125
 ---------------------------------------------------------------------
                    Distance matrix (angstroms):
                    1          2          3          4          5
     1  H    0.000000
     2  C    0.988972   0.000000
     3  H    2.503595   2.074068   0.000000
     4  C    2.063863   1.319276   0.988656   0.000000
     5  H    3.988778   3.054521   2.489450   2.054768   0.000000
     6  C    3.052947   2.092266   2.064630   1.310750   0.990630
     7  N    3.021261   2.069592   3.060486   2.103357   2.023159
     8  H    2.396796   1.962948   3.921037   2.989412   3.864110
     9  N    2.027836   1.274468   3.045041   2.085331   2.994156
                    6          7          8          9
     6  C    0.000000
     7  N    1.279820   0.000000
     8  H    2.943989   1.933587   0.000000
     9  N    2.040950   1.239526   0.937088   0.000000
 Stoichiometry    C3H4N2
 Framework group  CS[SG(C3H4N2)]
 Deg. of freedom   15
 Full point group                 CS      NOp   2
 Largest Abelian subgroup         CS      NOp   2
 Largest concise Abelian subgroup C1      NOp   1
                         Standard orientation:                         
 ---------------------------------------------------------------------
 Center     Atomic     Atomic              Coordinates (Angstroms)
 Number     Number      Type              X           Y           Z
 ---------------------------------------------------------------------
    1          1             0        1.974407    0.585689    0.000000
    2          6             0        1.028833    0.295936    0.000000
    3          1             0        1.140941   -1.775099    0.000000
    4          6             0        0.595873   -0.950271    0.000000
    5          1             0       -1.344123   -1.627388    0.000000
    6          6             0       -0.712074   -0.864589    0.000000
    7          7             0       -1.039336    0.372682    0.000000
    8          1             0        0.028336    1.984773    0.000000
    9          7             0        0.000000    1.048113    0.000000
 ---------------------------------------------------------------------
 Rotational constants (GHZ):     11.1878032     10.4520048      5.4036973
 Isotopes: H-1,C-12,H-1,C-12,H-1,C-12,N-14,H-1,N-14
 Standard basis: 3-21G (6D, 7F)
 There are    43 symmetry adapted basis functions of A'  symmetry.
 There are    10 symmetry adapted basis functions of A"  symmetry.
 Crude estimate of integral set expansion from redundant integrals=1.000.
 Integral buffers will be    262144 words long.
 Raffenetti 1 integral format.
 Two-electron integral symmetry is turned on.
    53 basis functions       87 primitive gaussians
    18 alpha electrons       18 beta electrons
       nuclear repulsion energy       173.7391879471 Hartrees.
 One-electron integrals computed using PRISM.
 NBasis=    53 RedAO= T  NBF=    43    10
 NBsUse=    53 1.00D-04 NBFU=    43    10
 Projected INDO Guess.
 Initial guess orbital symmetries:
       Occupied  (A') (A') (A') (A') (A') (A') (A') (A') (A') (A')
                 (A') (A") (A') (A') (A') (A") (A') (A")
       Virtual   (A") (A') (A') (A") (A') (A') (A') (A') (A') (A')
                 (A') (A') (A') (A') (A') (A') (A') (A') (A') (A')
                 (A') (A') (A') (A') (A') (A') (A') (A') (A') (A')
                 (A") (A") (A") (A") (A")
 Requested convergence on RMS density matrix=1.00D-08 within  64 cycles.
 Requested convergence on MAX density matrix=1.00D-06.
 Keep R1 integrals in memory in canonical form, NReq=     1438530.
 SCF Done:  E(RHF) =  -223.462889754     A.U. after   14 cycles
             Convg  =    0.5803D-08             -V/T =  1.9939
             S**2   =   0.0000
 Range of M.O.s used for correlation:     6    53
 NBasis=    53 NAE=    18 NBE=    18 NFC=     5 NFV=     0
 NROrb=     48 NOA=    13 NOB=    13 NVA=    35 NVB=    35
 Estimate disk for full transformation    28629610 words.
 Spin components of T(2) and E(2):
     alpha-alpha T2 =       0.2098124726D-01 E2=     -0.5831868862D-01
     alpha-beta  T2 =       0.1184840087D+00 E2=     -0.3372374445D+00
     beta-beta   T2 =       0.2098124726D-01 E2=     -0.5831868862D-01
 ANorm=    0.1077240225D+01
 E2=       -0.4538748217D+00 EUMP2=       -0.22391676457619D+03
 Iterations=  50 Convergence= 0.100D-07
 Iteration Nr.   1
 **********************
 MP4(R+Q)=  0.54440744D-02
 E3=       -0.12258362D-01        EUMP3=      -0.22392902294D+03
 E4(DQ)=   -0.57982842D-02        UMP4(DQ)=   -0.22393482122D+03
 E4(SDQ)=  -0.10100913D-01        UMP4(SDQ)=  -0.22393912385D+03
 DE(CORR)= -0.46068911D+00        E(CORR)=    -0.22392357886D+03
 NORM(A)=   0.10816860D+01
 Iteration Nr.   2
 **********************
 DE(CORR)= -0.47463207D+00        E(CORR)=    -0.22393752182D+03
 NORM(A)=   0.10899086D+01
 Iteration Nr.   3
 **********************
 DE(CORR)= -0.47720816D+00        E(CORR)=    -0.22394009792D+03
 NORM(A)=   0.10913856D+01
 Iteration Nr.   4
 **********************
 DE(CORR)= -0.47843650D+00        E(CORR)=    -0.22394132625D+03
 NORM(A)=   0.10917366D+01
 Iteration Nr.   5
 **********************
 DE(CORR)= -0.47854179D+00        E(CORR)=    -0.22394143155D+03
 NORM(A)=   0.10918203D+01
 Iteration Nr.   6
 **********************
 DE(CORR)= -0.47855444D+00        E(CORR)=    -0.22394144419D+03
 NORM(A)=   0.10918259D+01
 Iteration Nr.   7
 **********************
 DE(CORR)= -0.47855456D+00        E(CORR)=    -0.22394144431D+03
 NORM(A)=   0.10918309D+01
 Iteration Nr.   8
 **********************
 DE(CORR)= -0.47855285D+00        E(CORR)=    -0.22394144261D+03
 NORM(A)=   0.10918317D+01
 Iteration Nr.   9
 **********************
 DE(CORR)= -0.47855368D+00        E(CORR)=    -0.22394144343D+03
 NORM(A)=   0.10918326D+01
 Iteration Nr.  10
 **********************
 DE(CORR)= -0.47855391D+00        E(CORR)=    -0.22394144366D+03
 NORM(A)=   0.10918331D+01
 Iteration Nr.  11
 **********************
 DE(CORR)= -0.47855423D+00        E(CORR)=    -0.22394144399D+03
 NORM(A)=   0.10918333D+01
 Iteration Nr.  12
 **********************
 DE(CORR)= -0.47855433D+00        E(CORR)=    -0.22394144408D+03
 NORM(A)=   0.10918335D+01
 Iteration Nr.  13
 **********************
 DE(CORR)= -0.47855437D+00        E(CORR)=    -0.22394144412D+03
 NORM(A)=   0.10918335D+01
 Iteration Nr.  14
 **********************
 DE(CORR)= -0.47855437D+00        E(CORR)=    -0.22394144413D+03
 NORM(A)=   0.10918335D+01
 Iteration Nr.  15
 **********************
 DE(CORR)= -0.47855437D+00        E(CORR)=    -0.22394144413D+03
 NORM(A)=   0.10918335D+01
 Iteration Nr.  16
 **********************
 DE(CORR)= -0.47855437D+00        E(CORR)=    -0.22394144413D+03
 NORM(A)=   0.10918335D+01
 Largest amplitude= 9.39D-02

 Z-AMPLITUDE ITERATIONS

 Iteration Nr.   1
 **********************
 DE(Z)  -0.46987206D+00          E(Z)=    -0.22393276181D+03
 NORM(A)=   0.10918263D+01
 Iteration Nr.   2
 **********************
 DE(Z)  -0.46987146D+00          E(Z)=    -0.22393276122D+03
 NORM(A)=   0.10918286D+01
 Iteration Nr.   3
 **********************
 DE(Z)  -0.46987162D+00          E(Z)=    -0.22393276137D+03
 NORM(A)=   0.10918304D+01
 Iteration Nr.   4
 **********************
 DE(Z)  -0.46987178D+00          E(Z)=    -0.22393276153D+03
 NORM(A)=   0.10918233D+01
 Iteration Nr.   5
 **********************
 DE(Z)  -0.46987114D+00          E(Z)=    -0.22393276089D+03
 NORM(A)=   0.10875188D+01
 Iteration Nr.   6
 **********************
 DE(Z)  -0.46947612D+00          E(Z)=    -0.22393236587D+03
 NORM(A)=   0.10875186D+01
 Iteration Nr.   7
 **********************
 DE(Z)  -0.46947617D+00          E(Z)=    -0.22393236593D+03
 NORM(A)=   0.10875187D+01
 Iteration Nr.   8
 **********************
 DE(Z)  -0.46947613D+00          E(Z)=    -0.22393236588D+03
 NORM(A)=   0.10875186D+01
 Iteration Nr.   9
 **********************
 DE(Z)  -0.46947614D+00          E(Z)=    -0.22393236589D+03
 NORM(A)=   0.10875186D+01
 Iteration Nr.  10
 **********************
 DE(Z)  -0.46947614D+00          E(Z)=    -0.22393236589D+03
 NORM(A)=   0.10875186D+01
 Iteration Nr.  11
 **********************
 DE(Z)  -0.46947614D+00          E(Z)=    -0.22393236589D+03
 NORM(A)=   0.10875186D+01
 Iteration Nr.  12
 **********************
 DE(Z)  -0.46947614D+00          E(Z)=    -0.22393236589D+03
 NORM(A)=   0.10875186D+01
 Discarding MO integrals.
          Differentiating once with respect to electric field.
                with respect to dipole field.
          Differentiating once with respect to nuclear coordinates.
          Store integrals in memory, NReq=     1434943.
          There are   1 degrees of freedom in the 1st order CPHF.
   1 vectors were produced by pass  0.
 AX will form   1 AO Fock derivatives at one time.
   1 vectors were produced by pass  1.
   1 vectors were produced by pass  2.
   1 vectors were produced by pass  3.
   1 vectors were produced by pass  4.
   1 vectors were produced by pass  5.
   1 vectors were produced by pass  6.
   1 vectors were produced by pass  7.
   1 vectors were produced by pass  8.
   1 vectors were produced by pass  9.
   1 vectors were produced by pass 10.
   1 vectors were produced by pass 11.
   1 vectors were produced by pass 12.
 Inv2:  IOpt= 1 Iter= 1 AM= 2.95D-16 Conv= 1.00D-12.
 Inverted reduced A of dimension  13 with in-core refinement.

 **********************************************************************

            Population analysis using the SCF density.

 **********************************************************************

 Orbital Symmetries:
       Occupied  (A') (A') (A') (A') (A') (A') (A') (A') (A') (A')
                 (A') (A") (A') (A') (A') (A') (A") (A")
       Virtual   (A") (A') (A") (A') (A') (A') (A') (A') (A') (A')
                 (A') (A") (A') (A') (A") (A') (A") (A') (A') (A')
                 (A') (A') (A") (A") (A') (A') (A') (A') (A') (A')
                 (A') (A') (A') (A') (A')
  The electronic state is 1-A'.
 Alpha  occ. eigenvalues --  -15.56764 -15.48874 -11.18516 -11.15921 -11.12779
 Alpha  occ. eigenvalues --   -1.47900  -1.13911  -1.09090  -0.87161  -0.83719
 Alpha  occ. eigenvalues --   -0.77867  -0.66080  -0.65980  -0.61159  -0.57575
 Alpha  occ. eigenvalues --   -0.42985  -0.38368  -0.34538
 Alpha virt. eigenvalues --    0.21666   0.27761   0.28240   0.34134   0.36119
 Alpha virt. eigenvalues --    0.38828   0.45943   0.48771   0.56628   0.70209
 Alpha virt. eigenvalues --    0.77680   0.97816   0.99074   1.00858   1.03775
 Alpha virt. eigenvalues --    1.04842   1.11105   1.15674   1.19299   1.29382
 Alpha virt. eigenvalues --    1.33959   1.39229   1.39890   1.51913   1.52651
 Alpha virt. eigenvalues --    1.54182   1.57371   1.60654   1.72007   1.75769
 Alpha virt. eigenvalues --    1.91736   2.09954   2.15214   2.97142   3.20489
          Condensed to atoms (all electrons):
              1          2          3          4          5          6
  1  H    0.395645   0.391523  -0.000869  -0.028172  -0.000020   0.006058
  2  C    0.391523   5.202879  -0.031835   0.447946   0.005194  -0.138225
  3  H   -0.000869  -0.031835   0.409870   0.398865  -0.000847  -0.021956
  4  C   -0.028172   0.447946   0.398865   5.486959  -0.048836   0.373192
  5  H   -0.000020   0.005194  -0.000847  -0.048836   0.403640   0.409399
  6  C    0.006058  -0.138225  -0.021956   0.373192   0.409399   5.024896
  7  N    0.002346  -0.214362   0.006175  -0.085079  -0.032432   0.466638
  8  H   -0.000477  -0.034496  -0.000012   0.005338  -0.000021   0.003032
  9  N   -0.043058   0.120449   0.004888  -0.012529   0.002049  -0.272765
              7          8          9
  1  H    0.002346  -0.000477  -0.043058
  2  C   -0.214362  -0.034496   0.120449
  3  H    0.006175  -0.000012   0.004888
  4  C   -0.085079   0.005338  -0.012529
  5  H   -0.032432  -0.000021   0.002049
  6  C    0.466638   0.003032  -0.272765
  7  N    6.980411  -0.026420   0.262174
  8  H   -0.026420   0.307454   0.357940
  9  N    0.262174   0.357940   7.246658
 Total atomic charges:
              1
  1  H    0.277024
  2  C    0.250928
  3  H    0.235723
  4  C   -0.537684
  5  H    0.261875
  6  C    0.149730
  7  N   -0.359451
  8  H    0.387662
  9  N   -0.665806
 Sum of Mulliken charges=   0.00000
 Atomic charges with hydrogens summed into heavy atoms:
              1
  1  H    0.000000
  2  C    0.527951
  3  H    0.000000
  4  C   -0.301961
  5  H    0.000000
  6  C    0.411605
  7  N   -0.359451
  8  H    0.000000
  9  N   -0.278144
 Sum of Mulliken charges=   0.00000
 Electronic spatial extent (au):  <R**2>=   259.4055
 Charge=     0.0000 electrons
 Dipole moment (Debye):
    X=     2.3187    Y=     0.9767    Z=     0.0000  Tot=     2.5160
 Quadrupole moment (Debye-Ang):
   XX=   -30.0349   YY=   -22.0352   ZZ=   -31.3902
   XY=     2.7831   XZ=     0.0000   YZ=     0.0000
 Octapole moment (Debye-Ang**2):
  XXX=     8.9134  YYY=    11.4364  ZZZ=     0.0000  XYY=     0.5028
  XXY=    -2.2631  XXZ=     0.0000  XZZ=    -1.0816  YZZ=     2.4380
  YYZ=     0.0000  XYZ=     0.0000
 Hexadecapole moment (Debye-Ang**3):
 XXXX=  -146.3189 YYYY=  -116.3730 ZZZZ=   -29.7133 XXXY=     7.3522
 XXXZ=     0.0000 YYYX=     0.1263 YYYZ=     0.0000 ZZZX=     0.0000
 ZZZY=     0.0000 XXYY=   -45.4850 XXZZ=   -32.0971 YYZZ=   -32.4088
 XXYZ=     0.0000 YYXZ=     0.0000 ZZXY=    -0.3476
 N-N= 1.737391879471D+02 E-N=-8.704640694611D+02  KE= 2.248436260134D+02
 Symmetry A'   KE= 2.169698689270D+02
 Symmetry A"   KE= 7.873757086378D+00
 ***** Axes restored to original set *****
 -------------------------------------------------------------------
 Center     Atomic                   Forces (Hartrees/Bohr)
 Number     Number              X              Y              Z
 -------------------------------------------------------------------
    1          1          -0.077334897    0.000000000   -0.041047226
    2          6          -0.035179241    0.000000000   -0.076262688
    3          1           0.022618636    0.000000000   -0.083585285
    4          6          -0.012304569    0.000000000   -0.059895819
    5          1           0.083929330    0.000000000    0.010523931
    6          6           0.037482358    0.000000000    0.016534449
    7          7           0.117988680    0.000000000    0.169086996
    8          1          -0.058314550    0.000000000    0.060569751
    9          7          -0.078885748    0.000000000    0.004075893
 -------------------------------------------------------------------
 Cartesian Forces:  Max     0.169086996 RMS     0.057930338

 GradGradGradGradGradGradGradGradGradGradGradGradGradGradGradGradGradGrad
 Berny optimization.
 Internal  Forces:  Max     0.167634097 RMS     0.056327308
 Search for a local minimum.
 Step number   1 out of a maximum of  48
 All quantities printed in internal units (Hartrees-Bohrs-Radians)
 Second derivative matrix not updated -- first step.
     Eigenvalues ---    0.03204   0.03245   0.03263   0.03273   0.03342
     Eigenvalues ---    0.03375   0.16000   0.16000   0.16000   0.16000
     Eigenvalues ---    0.22000   0.22938   0.49374   0.49681   0.49740
     Eigenvalues ---    0.56490   0.56686   0.60708   0.68179   0.73042
     Eigenvalues ---    0.827791000.000001000.000001000.000001000.00000
     Eigenvalues --- 1000.000001000.000001000.000001000.000001000.00000
     Eigenvalues --- 1000.000001000.000001000.000001000.000001000.00000
     Eigenvalues --- 1000.000001000.000001000.00000
 RFO step:  Lambda=-1.49957550D-01.
 Linear search not attempted -- first point.
 Maximum step size (   0.300) exceeded in Quadratic search.
    -- Step size scaled by   0.678
 Iteration  1 RMS(Cart)=  0.06362098 RMS(Int)=  0.00058757
 Iteration  2 RMS(Cart)=  0.00070714 RMS(Int)=  0.00002861
 Iteration  3 RMS(Cart)=  0.00000033 RMS(Int)=  0.00002861
 Variable       Old X    -DE/DX   Delta X   Delta X   Delta X     New X
                                 (Linear)    (Quad)   (Total)
    R1        1.86889   0.08720   0.00000   0.09142   0.09142   1.96030
    R2        2.49307   0.09784   0.00000   0.08306   0.08301   2.57607
    R3        2.40839   0.13850   0.00000   0.10683   0.10681   2.51520
    R4        1.86829   0.08656   0.00000   0.09067   0.09067   1.95896
    R5        2.47696   0.15038   0.00000   0.12439   0.12439   2.60135
    R6        1.87202   0.08390   0.00000   0.08838   0.08838   1.96039
    R7        2.41851   0.09844   0.00000   0.07612   0.07616   2.49467
    R8        2.34237   0.16763   0.00000   0.11467   0.11470   2.45707
    R9        1.77084   0.08326   0.00000   0.07458   0.07458   1.84542
    A1        2.20252   0.01247   0.00000   0.02655   0.02658   2.22910
    A2        2.21295  -0.00231   0.00000  -0.00577  -0.00573   2.20722
    A3        1.86771  -0.01016   0.00000  -0.02078  -0.02085   1.84686
    A4        2.22327  -0.00643   0.00000  -0.00514  -0.00511   2.21815
    A5        1.83976   0.00842   0.00000   0.00056   0.00050   1.84026
    A6        2.22016  -0.00199   0.00000   0.00458   0.00461   2.22477
    A7        2.19731   0.00120   0.00000   0.00994   0.00993   2.20724
    A8        1.89479   0.01780   0.00000   0.02429   0.02432   1.91912
    A9        2.19108  -0.01900   0.00000  -0.03424  -0.03425   2.15682
   A10        1.88850  -0.02872   0.00000  -0.03827  -0.03817   1.85033
   A11        1.93402   0.01266   0.00000   0.03419   0.03420   1.96821
   A12        2.17185   0.00402   0.00000   0.00555   0.00555   2.17740
   A13        2.17732  -0.01668   0.00000  -0.03975  -0.03975   2.13758
    D1        0.00000   0.00000   0.00000   0.00000   0.00000   0.00000
    D2        3.14159   0.00000   0.00000   0.00000   0.00000   3.14159
    D3        3.14159   0.00000   0.00000   0.00000   0.00000   3.14159
    D4        0.00000   0.00000   0.00000   0.00000   0.00000   0.00000
    D5        3.14159   0.00000   0.00000   0.00000   0.00000   3.14159
    D6        0.00000   0.00000   0.00000   0.00000   0.00000   0.00000
    D7        0.00000   0.00000   0.00000   0.00000   0.00000   0.00000
    D8        3.14159   0.00000   0.00000   0.00000   0.00000   3.14159
    D9        3.14159   0.00000   0.00000   0.00000   0.00000   3.14159
   D10        0.00000   0.00000   0.00000   0.00000   0.00000   0.00000
   D11        0.00000   0.00000   0.00000   0.00000   0.00000   0.00000
   D12        3.14159   0.00000   0.00000   0.00000   0.00000   3.14159
   D13        0.00000   0.00000   0.00000   0.00000   0.00000   0.00000
   D14        3.14159   0.00000   0.00000   0.00000   0.00000   3.14159
   D15        0.00000   0.00000   0.00000   0.00000   0.00000   0.00000
   D16        3.14159   0.00000   0.00000   0.00000   0.00000   3.14159
         Item               Value     Threshold  Converged?
 Maximum Force            0.167634     0.000450     NO 
 RMS     Force            0.056327     0.000300     NO 
 Maximum Displacement     0.169538     0.001800     NO 
 RMS     Displacement     0.063572     0.001200     NO 
 Predicted change in Energy=-2.772716D-02
 GradGradGradGradGradGradGradGradGradGradGradGradGradGradGradGradGradGrad

                          Input orientation:                          
 ---------------------------------------------------------------------
 Center     Atomic     Atomic              Coordinates (Angstroms)
 Number     Number      Type              X           Y           Z
 ---------------------------------------------------------------------
    1          1             0       -1.804039    0.000000   -1.184726
    2          6             0       -0.924715    0.000000   -0.634380
    3          1             0        0.654801    0.000000   -2.098119
    4          6             0        0.354307    0.000000   -1.105993
    5          1             0        2.194492    0.000000    0.026425
    6          6             0        1.157193    0.000000    0.012188
    7          7             0        0.412064    0.000000    1.101919
    8          1             0       -1.579068    0.000000    1.309574
    9          7             0       -0.822066    0.000000    0.692643
 ---------------------------------------------------------------------
                    Distance matrix (angstroms):
                    1          2          3          4          5
     1  H    0.000000
     2  C    1.037348   0.000000
     3  H    2.623010   2.153463   0.000000
     4  C    2.159781   1.363200   1.036635   0.000000
     5  H    4.177934   3.188434   2.623802   2.160706   0.000000
     6  C    3.193978   2.179998   2.169285   1.376574   1.037396
     7  N    3.184315   2.191281   3.209232   2.208667   2.081762
     8  H    2.504425   2.051130   4.074622   3.094010   3.985753
     9  N    2.118675   1.330987   3.157450   2.149173   3.089250
                    6          7          8          9
     6  C    0.000000
     7  N    1.320125   0.000000
     8  H    3.028256   2.001931   0.000000
     9  N    2.092961   1.300225   0.976553   0.000000
 Stoichiometry    C3H4N2
 Framework group  CS[SG(C3H4N2)]
 Deg. of freedom   15
 Full point group                 CS      NOp   2
 Largest Abelian subgroup         CS      NOp   2
 Largest concise Abelian subgroup C1      NOp   1
                         Standard orientation:                         
 ---------------------------------------------------------------------
 Center     Atomic     Atomic              Coordinates (Angstroms)
 Number     Number      Type              X           Y           Z
 ---------------------------------------------------------------------
    1          1             0        2.071501    0.628471    0.000000
    2          6             0        1.086237    0.303902    0.000000
    3          1             0        1.202533   -1.846418    0.000000
    4          6             0        0.631524   -0.981225    0.000000
    5          1             0       -1.415518   -1.672796    0.000000
    6          6             0       -0.741619   -0.884094    0.000000
    7          7             0       -1.103527    0.385454    0.000000
    8          1             0        0.009318    2.049577    0.000000
    9          7             0        0.000000    1.073069    0.000000
 ---------------------------------------------------------------------
 Rotational constants (GHZ):     10.0386057      9.8845516      4.9804915
 Isotopes: H-1,C-12,H-1,C-12,H-1,C-12,N-14,H-1,N-14
 Standard basis: 3-21G (6D, 7F)
 There are    43 symmetry adapted basis functions of A'  symmetry.
 There are    10 symmetry adapted basis functions of A"  symmetry.
 Crude estimate of integral set expansion from redundant integrals=1.000.
 Integral buffers will be    262144 words long.
 Raffenetti 1 integral format.
 Two-electron integral symmetry is turned on.
    53 basis functions       87 primitive gaussians
    18 alpha electrons       18 beta electrons
       nuclear repulsion energy       166.7346533150 Hartrees.
 One-electron integrals computed using PRISM.
 NBasis=    53 RedAO= T  NBF=    43    10
 NBsUse=    53 1.00D-04 NBFU=    43    10
 Initial guess read from the read-write file:
 Initial guess orbital symmetries:
       Occupied  (A') (A') (A') (A') (A') (A') (A') (A') (A') (A')
                 (A') (A") (A') (A') (A') (A') (A") (A")
       Virtual   (A") (A') (A") (A') (A') (A') (A') (A') (A') (A')
                 (A') (A") (A') (A') (A") (A') (A") (A') (A') (A')
                 (A') (A') (A") (A") (A') (A') (A') (A') (A') (A')
                 (A') (A') (A') (A') (A')
 Requested convergence on RMS density matrix=1.00D-08 within  64 cycles.
 Requested convergence on MAX density matrix=1.00D-06.
 Keep R1 integrals in memory in canonical form, NReq=     1438530.
 SCF Done:  E(RHF) =  -223.515938071     A.U. after   14 cycles
             Convg  =    0.2626D-08             -V/T =  1.9997
             S**2   =   0.0000
 Range of M.O.s used for correlation:     6    53
 NBasis=    53 NAE=    18 NBE=    18 NFC=     5 NFV=     0
 NROrb=     48 NOA=    13 NOB=    13 NVA=    35 NVB=    35
 Estimate disk for full transformation    28620790 words.
 Spin components of T(2) and E(2):
     alpha-alpha T2 =       0.2281858562D-01 E2=     -0.6027091757D-01
     alpha-beta  T2 =       0.1304679593D+00 E2=     -0.3511688865D+00
     beta-beta   T2 =       0.2281858562D-01 E2=     -0.6027091757D-01
 ANorm=    0.1084483808D+01
 E2=       -0.4717107217D+00 EUMP2=       -0.22398764879282D+03
 Iterations=  50 Convergence= 0.100D-07
 Iteration Nr.   1
 **********************
 MP4(R+Q)=  0.63447350D-02
 E3=       -0.99365425D-02        EUMP3=      -0.22399758534D+03
 E4(DQ)=   -0.64053284D-02        UMP4(DQ)=   -0.22400399066D+03
 E4(SDQ)=  -0.11775437D-01        UMP4(SDQ)=  -0.22400936077D+03
 DE(CORR)= -0.47530253D+00        E(CORR)=    -0.22399124060D+03
 NORM(A)=   0.10884941D+01
 Iteration Nr.   2
 **********************
 DE(CORR)= -0.49160363D+00        E(CORR)=    -0.22400754170D+03
 NORM(A)=   0.10985492D+01
 Iteration Nr.   3
 **********************
 DE(CORR)= -0.49445155D+00        E(CORR)=    -0.22401038962D+03
 NORM(A)=   0.11005153D+01
 Iteration Nr.   4
 **********************
 DE(CORR)= -0.49602357D+00        E(CORR)=    -0.22401196164D+03
 NORM(A)=   0.11010205D+01
 Iteration Nr.   5
 **********************
 DE(CORR)= -0.49617465D+00        E(CORR)=    -0.22401211272D+03
 NORM(A)=   0.11011580D+01
 Iteration Nr.   6
 **********************
 DE(CORR)= -0.49619555D+00        E(CORR)=    -0.22401213362D+03
 NORM(A)=   0.11011677D+01
 Iteration Nr.   7
 **********************
 DE(CORR)= -0.49619597D+00        E(CORR)=    -0.22401213405D+03
 NORM(A)=   0.11011767D+01
 Iteration Nr.   8
 **********************
 DE(CORR)= -0.49619305D+00        E(CORR)=    -0.22401213112D+03
 NORM(A)=   0.11011782D+01
 Iteration Nr.   9
 **********************
 DE(CORR)= -0.49619437D+00        E(CORR)=    -0.22401213244D+03
 NORM(A)=   0.11011799D+01
 Iteration Nr.  10
 **********************
 DE(CORR)= -0.49619468D+00        E(CORR)=    -0.22401213275D+03
 NORM(A)=   0.11011807D+01
 Iteration Nr.  11
 **********************
 DE(CORR)= -0.49619528D+00        E(CORR)=    -0.22401213336D+03
 NORM(A)=   0.11011812D+01
 Iteration Nr.  12
 **********************
 DE(CORR)= -0.49619545D+00        E(CORR)=    -0.22401213352D+03
 NORM(A)=   0.11011815D+01
 Iteration Nr.  13
 **********************
 DE(CORR)= -0.49619554D+00        E(CORR)=    -0.22401213361D+03
 NORM(A)=   0.11011815D+01
 Iteration Nr.  14
 **********************
 DE(CORR)= -0.49619555D+00        E(CORR)=    -0.22401213363D+03
 NORM(A)=   0.11011816D+01
 Iteration Nr.  15
 **********************
 DE(CORR)= -0.49619556D+00        E(CORR)=    -0.22401213363D+03
 NORM(A)=   0.11011816D+01
 Iteration Nr.  16
 **********************
 DE(CORR)= -0.49619556D+00        E(CORR)=    -0.22401213363D+03
 NORM(A)=   0.11011816D+01
 Iteration Nr.  17
 **********************
 DE(CORR)= -0.49619556D+00        E(CORR)=    -0.22401213363D+03
 NORM(A)=   0.11011816D+01
 Largest amplitude= 9.97D-02

 Z-AMPLITUDE ITERATIONS

 Iteration Nr.   1
 **********************
 DE(Z)  -0.48587830D+00          E(Z)=    -0.22400181638D+03
 NORM(A)=   0.11011835D+01
 Iteration Nr.   2
 **********************
 DE(Z)  -0.48587841D+00          E(Z)=    -0.22400181648D+03
 NORM(A)=   0.11011814D+01
 Iteration Nr.   3
 **********************
 DE(Z)  -0.48587829D+00          E(Z)=    -0.22400181636D+03
 NORM(A)=   0.11011812D+01
 Iteration Nr.   4
 **********************
 DE(Z)  -0.48587828D+00          E(Z)=    -0.22400181635D+03
 NORM(A)=   0.11011815D+01
 Iteration Nr.   5
 **********************
 DE(Z)  -0.48587830D+00          E(Z)=    -0.22400181637D+03
 NORM(A)=   0.10958800D+01
 Iteration Nr.   6
 **********************
 DE(Z)  -0.48554157D+00          E(Z)=    -0.22400147964D+03
 NORM(A)=   0.10958469D+01
 Iteration Nr.   7
 **********************
 DE(Z)  -0.48554056D+00          E(Z)=    -0.22400147863D+03
 NORM(A)=   0.10958420D+01
 Iteration Nr.   8
 **********************
 DE(Z)  -0.48553923D+00          E(Z)=    -0.22400147730D+03
 NORM(A)=   0.10958396D+01
 Iteration Nr.   9
 **********************
 DE(Z)  -0.48553954D+00          E(Z)=    -0.22400147761D+03
 NORM(A)=   0.10958392D+01
 Iteration Nr.  10
 **********************
 DE(Z)  -0.48553934D+00          E(Z)=    -0.22400147741D+03
 NORM(A)=   0.10958392D+01
 Iteration Nr.  11
 **********************
 DE(Z)  -0.48553931D+00          E(Z)=    -0.22400147738D+03
 NORM(A)=   0.10958391D+01
 Iteration Nr.  12
 **********************
 DE(Z)  -0.48553933D+00          E(Z)=    -0.22400147740D+03
 NORM(A)=   0.10958392D+01
 Iteration Nr.  13
 **********************
 DE(Z)  -0.48553933D+00          E(Z)=    -0.22400147740D+03
 NORM(A)=   0.10958392D+01
 Iteration Nr.  14
 **********************
 DE(Z)  -0.48553933D+00          E(Z)=    -0.22400147740D+03
 NORM(A)=   0.10958392D+01
 Iteration Nr.  15
 **********************
 DE(Z)  -0.48553933D+00          E(Z)=    -0.22400147740D+03
 NORM(A)=   0.10958391D+01
 Discarding MO integrals.
          Differentiating once with respect to electric field.
                with respect to dipole field.
          Differentiating once with respect to nuclear coordinates.
          Store integrals in memory, NReq=     1434943.
          There are   1 degrees of freedom in the 1st order CPHF.
   1 vectors were produced by pass  0.
 AX will form   1 AO Fock derivatives at one time.
   1 vectors were produced by pass  1.
   1 vectors were produced by pass  2.
   1 vectors were produced by pass  3.
   1 vectors were produced by pass  4.
   1 vectors were produced by pass  5.
   1 vectors were produced by pass  6.
   1 vectors were produced by pass  7.
   1 vectors were produced by pass  8.
   1 vectors were produced by pass  9.
   1 vectors were produced by pass 10.
   1 vectors were produced by pass 11.
   1 vectors were produced by pass 12.
   1 vectors were produced by pass 13.
 Inv2:  IOpt= 1 Iter= 1 AM= 3.94D-16 Conv= 1.00D-12.
 Inverted reduced A of dimension  14 with in-core refinement.
 ***** Axes restored to original set *****
 -------------------------------------------------------------------
 Center     Atomic                   Forces (Hartrees/Bohr)
 Number     Number              X              Y              Z
 -------------------------------------------------------------------
    1          1          -0.033712899    0.000000000   -0.013225323
    2          6          -0.001630766    0.000000000   -0.033732415
    3          1           0.009858863    0.000000000   -0.034547624
    4          6          -0.005157268    0.000000000   -0.020715757
    5          1           0.034757520    0.000000000    0.006863464
    6          6           0.011867755    0.000000000   -0.002565114
    7          7           0.064304809    0.000000000    0.075383353
    8          1          -0.021639476    0.000000000    0.027427877
    9          7          -0.058648539    0.000000000   -0.004888460
 -------------------------------------------------------------------
 Cartesian Forces:  Max     0.075383353 RMS     0.027286516

 GradGradGradGradGradGradGradGradGradGradGradGradGradGradGradGradGradGrad
 Berny optimization.
 Internal  Forces:  Max     0.084200714 RMS     0.024178176
 Search for a local minimum.
 Step number   2 out of a maximum of  48
 All quantities printed in internal units (Hartrees-Bohrs-Radians)
 Update second derivatives using information from points  1  2
 Trust test= 2.55D+00 RLast= 3.00D-01 DXMaxT set to 4.24D-01
     Eigenvalues ---    0.03204   0.03246   0.03261   0.03273   0.03342
     Eigenvalues ---    0.03375   0.15937   0.16000   0.16000   0.16020
     Eigenvalues ---    0.22038   0.23425   0.49460   0.49711   0.50981
     Eigenvalues ---    0.57263   0.58588   0.61757   0.68376   0.73012
     Eigenvalues ---    0.803391000.000001000.000001000.000001000.00000
     Eigenvalues --- 1000.000001000.000001000.000001000.000001000.00000
     Eigenvalues --- 1000.000001000.000001000.000001000.000001000.00000
     Eigenvalues --- 1000.000001000.000001000.00000
 RFO step:  Lambda=-4.23059243D-03.
 Quartic linear search produced a step of  1.02057.
 Iteration  1 RMS(Cart)=  0.07036307 RMS(Int)=  0.00160813
 Iteration  2 RMS(Cart)=  0.00196190 RMS(Int)=  0.00016142
 Iteration  3 RMS(Cart)=  0.00000358 RMS(Int)=  0.00016139
 Iteration  4 RMS(Cart)=  0.00000000 RMS(Int)=  0.00016139
 Variable       Old X    -DE/DX   Delta X   Delta X   Delta X     New X
                                 (Linear)    (Quad)   (Total)
    R1        1.96030   0.03559   0.09330   0.00378   0.09708   2.05738
    R2        2.57607   0.03857   0.08471  -0.00984   0.07459   2.65067
    R3        2.51520   0.05529   0.10900  -0.00758   0.10136   2.61656
    R4        1.95896   0.03592   0.09253   0.00609   0.09862   2.05757
    R5        2.60135   0.05719   0.12695  -0.02092   0.10593   2.70728
    R6        1.96039   0.03485   0.09019   0.00626   0.09645   2.05685
    R7        2.49467   0.04247   0.07773   0.00298   0.08092   2.57559
    R8        2.45707   0.08420   0.11706   0.03011   0.14740   2.60446
    R9        1.84542   0.03410   0.07611  -0.00060   0.07551   1.92093
    A1        2.22910   0.00613   0.02713   0.03870   0.06602   2.29512
    A2        2.20722  -0.00696  -0.00585  -0.06941  -0.07508   2.13214
    A3        1.84686   0.00083  -0.02128   0.03071   0.00907   1.85592
    A4        2.21815  -0.00287  -0.00522   0.00730   0.00228   2.22043
    A5        1.84026   0.00460   0.00051  -0.01264  -0.01253   1.82773
    A6        2.22477  -0.00173   0.00471   0.00534   0.01025   2.23502
    A7        2.20724   0.00190   0.01013   0.03440   0.04450   2.25174
    A8        1.91912   0.00872   0.02482   0.01293   0.03783   1.95695
    A9        2.15682  -0.01062  -0.03496  -0.04734  -0.08233   2.07449
   A10        1.85033  -0.01253  -0.03895  -0.00055  -0.03892   1.81142
   A11        1.96821  -0.00162   0.03490  -0.03046   0.00455   1.97276
   A12        2.17740   0.00781   0.00566   0.06435   0.06996   2.24736
   A13        2.13758  -0.00620  -0.04056  -0.03389  -0.07451   2.06307
    D1        0.00000   0.00000   0.00000   0.00000   0.00000   0.00000
    D2       -3.14159   0.00000   0.00000   0.00000   0.00000  -3.14159
    D3        3.14159   0.00000   0.00000   0.00000   0.00000   3.14159
    D4        0.00000   0.00000   0.00000   0.00000   0.00000   0.00000
    D5        3.14159   0.00000   0.00000   0.00000   0.00000   3.14159
    D6        0.00000   0.00000   0.00000   0.00000   0.00000   0.00000
    D7        0.00000   0.00000   0.00000   0.00000   0.00000   0.00000
    D8        3.14159   0.00000   0.00000   0.00000   0.00000   3.14159
    D9        3.14159   0.00000   0.00000   0.00000   0.00000   3.14159
   D10        0.00000   0.00000   0.00000   0.00000   0.00000   0.00000
   D11        0.00000   0.00000   0.00000   0.00000   0.00000   0.00000
   D12        3.14159   0.00000   0.00000   0.00000   0.00000   3.14159
   D13        0.00000   0.00000   0.00000   0.00000   0.00000   0.00000
   D14        3.14159   0.00000   0.00000   0.00000   0.00000   3.14159
   D15        0.00000   0.00000   0.00000   0.00000   0.00000   0.00000
   D16        3.14159   0.00000   0.00000   0.00000   0.00000   3.14159
         Item               Value     Threshold  Converged?
 Maximum Force            0.084201     0.000450     NO 
 RMS     Force            0.024178     0.000300     NO 
 Maximum Displacement     0.195538     0.001800     NO 
 RMS     Displacement     0.070237     0.001200     NO 
 Predicted change in Energy=-3.275096D-02
 GradGradGradGradGradGradGradGradGradGradGradGradGradGradGradGradGradGrad

                          Input orientation:                          
 ---------------------------------------------------------------------
 Center     Atomic     Atomic              Coordinates (Angstroms)
 Number     Number      Type              X           Y           Z
 ---------------------------------------------------------------------
    1          1             0       -1.909025    0.000000   -1.204295
    2          6             0       -0.951462    0.000000   -0.686238
    3          1             0        0.686719    0.000000   -2.208427
    4          6             0        0.365904    0.000000   -1.167941
    5          1             0        2.269157    0.000000    0.088258
    6          6             0        1.183656    0.000000    0.008372
    7          7             0        0.439973    0.000000    1.150544
    8          1             0       -1.610236    0.000000    1.382338
    9          7             0       -0.860937    0.000000    0.695425
 ---------------------------------------------------------------------
                    Distance matrix (angstroms):
                    1          2          3          4          5
     1  H    0.000000
     2  C    1.088719   0.000000
     3  H    2.783194   2.236224   0.000000
     4  C    2.275219   1.402673   1.088822   0.000000
     5  H    4.373545   3.312437   2.789063   2.280441   0.000000
     6  C    3.321932   2.245265   2.271815   1.432631   1.088437
     7  N    3.326118   2.304314   3.368022   2.319668   2.115270
     8  H    2.603833   2.170942   4.262581   3.226306   4.089539
     9  N    2.169660   1.384626   3.290531   2.230980   3.188439
                    6          7          8          9
     6  C    0.000000
     7  N    1.362946   0.000000
     8  H    3.113456   2.063270   0.000000
     9  N    2.156942   1.378223   1.016513   0.000000
 Stoichiometry    C3H4N2
 Framework group  CS[SG(C3H4N2)]
 Deg. of freedom   15
 Full point group                 CS      NOp   2
 Largest Abelian subgroup         CS      NOp   2
 Largest concise Abelian subgroup C1      NOp   1
                         Standard orientation:                         
 ---------------------------------------------------------------------
 Center     Atomic     Atomic              Coordinates (Angstroms)
 Number     Number      Type              X           Y           Z
 ---------------------------------------------------------------------
    1          1             0        2.136174    0.730360    0.000000
    2          6             0        1.131209    0.311607    0.000000
    3          1             0        1.284587   -1.919351    0.000000
    4          6             0        0.677324   -1.015601    0.000000
    5          1             0       -1.496263   -1.705476    0.000000
    6          6             0       -0.751534   -0.911704    0.000000
    7          7             0       -1.171942    0.384783    0.000000
    8          1             0       -0.062900    2.124641    0.000000
    9          7             0        0.000000    1.110076    0.000000
 ---------------------------------------------------------------------
 Rotational constants (GHZ):      9.3131569      9.0820042      4.5980641
 Isotopes: H-1,C-12,H-1,C-12,H-1,C-12,N-14,H-1,N-14
 Standard basis: 3-21G (6D, 7F)
 There are    43 symmetry adapted basis functions of A'  symmetry.
 There are    10 symmetry adapted basis functions of A"  symmetry.
 Crude estimate of integral set expansion from redundant integrals=1.000.
 Integral buffers will be    262144 words long.
 Raffenetti 1 integral format.
 Two-electron integral symmetry is turned on.
    53 basis functions       87 primitive gaussians
    18 alpha electrons       18 beta electrons
       nuclear repulsion energy       160.1207558882 Hartrees.
 One-electron integrals computed using PRISM.
 NBasis=    53 RedAO= T  NBF=    43    10
 NBsUse=    53 1.00D-04 NBFU=    43    10
 Initial guess read from the read-write file:
 Initial guess orbital symmetries:
       Occupied  (A') (A') (A') (A') (A') (A') (A') (A') (A') (A')
                 (A') (A') (A") (A') (A') (A') (A") (A")
       Virtual   (A") (A") (A') (A') (A') (A') (A') (A') (A') (A')
                 (A') (A') (A') (A") (A') (A") (A") (A') (A') (A')
                 (A') (A') (A") (A') (A") (A') (A') (A') (A') (A')
                 (A') (A') (A') (A') (A')
 Requested convergence on RMS density matrix=1.00D-08 within  64 cycles.
 Requested convergence on MAX density matrix=1.00D-06.
 Keep R1 integrals in memory in canonical form, NReq=     1438530.
 SCF Done:  E(RHF) =  -223.518698382     A.U. after   14 cycles
             Convg  =    0.4305D-08             -V/T =  2.0046
             S**2   =   0.0000
 Range of M.O.s used for correlation:     6    53
 NBasis=    53 NAE=    18 NBE=    18 NFC=     5 NFV=     0
 NROrb=     48 NOA=    13 NOB=    13 NVA=    35 NVB=    35
 Estimate disk for full transformation    28613734 words.
 Spin components of T(2) and E(2):
     alpha-alpha T2 =       0.2494942341D-01 E2=     -0.6243848918D-01
     alpha-beta  T2 =       0.1444002314D+00 E2=     -0.3663530838D+00
     beta-beta   T2 =       0.2494942341D-01 E2=     -0.6243848918D-01
 ANorm=    0.1092839914D+01
 E2=       -0.4912300622D+00 EUMP2=       -0.22400992844441D+03
 Iterations=  50 Convergence= 0.100D-07
 Iteration Nr.   1
 **********************
 MP4(R+Q)=  0.74395012D-02
 E3=       -0.67649397D-02        EUMP3=      -0.22401669338D+03
 E4(DQ)=   -0.71762378D-02        UMP4(DQ)=   -0.22402386962D+03
 E4(SDQ)=  -0.14007651D-01        UMP4(SDQ)=  -0.22403070103D+03
 DE(CORR)= -0.49055550D+00        E(CORR)=    -0.22400925388D+03
 NORM(A)=   0.10961717D+01
 Iteration Nr.   2
 **********************
 DE(CORR)= -0.50991363D+00        E(CORR)=    -0.22402861201D+03
 NORM(A)=   0.11085883D+01
 Iteration Nr.   3
 **********************
 DE(CORR)= -0.51301383D+00        E(CORR)=    -0.22403171221D+03
 NORM(A)=   0.11112749D+01
 Iteration Nr.   4
 **********************
 DE(CORR)= -0.51505395D+00        E(CORR)=    -0.22403375233D+03
 NORM(A)=   0.11120154D+01
 Iteration Nr.   5
 **********************
 DE(CORR)= -0.51527336D+00        E(CORR)=    -0.22403397174D+03
 NORM(A)=   0.11122483D+01
 Iteration Nr.   6
 **********************
 DE(CORR)= -0.51530797D+00        E(CORR)=    -0.22403400635D+03
 NORM(A)=   0.11122663D+01
 Iteration Nr.   7
 **********************
 DE(CORR)= -0.51530902D+00        E(CORR)=    -0.22403400741D+03
 NORM(A)=   0.11122830D+01
 Iteration Nr.   8
 **********************
 DE(CORR)= -0.51530400D+00        E(CORR)=    -0.22403400238D+03
 NORM(A)=   0.11122858D+01
 Iteration Nr.   9
 **********************
 DE(CORR)= -0.51530614D+00        E(CORR)=    -0.22403400452D+03
 NORM(A)=   0.11122889D+01
 Iteration Nr.  10
 **********************
 DE(CORR)= -0.51530649D+00        E(CORR)=    -0.22403400488D+03
 NORM(A)=   0.11122905D+01
 Iteration Nr.  11
 **********************
 DE(CORR)= -0.51530759D+00        E(CORR)=    -0.22403400597D+03
 NORM(A)=   0.11122915D+01
 Iteration Nr.  12
 **********************
 DE(CORR)= -0.51530787D+00        E(CORR)=    -0.22403400625D+03
 NORM(A)=   0.11122920D+01
 Iteration Nr.  13
 **********************
 DE(CORR)= -0.51530806D+00        E(CORR)=    -0.22403400644D+03
 NORM(A)=   0.11122922D+01
 Iteration Nr.  14
 **********************
 DE(CORR)= -0.51530809D+00        E(CORR)=    -0.22403400647D+03
 NORM(A)=   0.11122922D+01
 Iteration Nr.  15
 **********************
 DE(CORR)= -0.51530809D+00        E(CORR)=    -0.22403400647D+03
 NORM(A)=   0.11122922D+01
 Iteration Nr.  16
 **********************
 DE(CORR)= -0.51530809D+00        E(CORR)=    -0.22403400647D+03
 NORM(A)=   0.11122922D+01
 Iteration Nr.  17
 **********************
 DE(CORR)= -0.51530809D+00        E(CORR)=    -0.22403400647D+03
 NORM(A)=   0.11122923D+01
 Iteration Nr.  18
 **********************
 DE(CORR)= -0.51530809D+00        E(CORR)=    -0.22403400647D+03
 NORM(A)=   0.11122923D+01
 Dominant configurations:
 ***********************
 Spin Case        I    J    A    B          Value
   ABAB          18   18   19   19      -0.102922D+00
 Largest amplitude= 1.03D-01

 Z-AMPLITUDE ITERATIONS

 Iteration Nr.   1
 **********************
 DE(Z)  -0.50290262D+00          E(Z)=    -0.22402160100D+03
 NORM(A)=   0.11122904D+01
 Iteration Nr.   2
 **********************
 DE(Z)  -0.50290257D+00          E(Z)=    -0.22402160096D+03
 NORM(A)=   0.11122936D+01
 Iteration Nr.   3
 **********************
 DE(Z)  -0.50290267D+00          E(Z)=    -0.22402160105D+03
 NORM(A)=   0.11122917D+01
 Iteration Nr.   4
 **********************
 DE(Z)  -0.50290260D+00          E(Z)=    -0.22402160099D+03
 NORM(A)=   0.11122922D+01
 Iteration Nr.   5
 **********************
 DE(Z)  -0.50290262D+00          E(Z)=    -0.22402160100D+03
 NORM(A)=   0.11052355D+01
 Iteration Nr.   6
 **********************
 DE(Z)  -0.50266934D+00          E(Z)=    -0.22402136772D+03
 NORM(A)=   0.11055789D+01
 Iteration Nr.   7
 **********************
 DE(Z)  -0.50266643D+00          E(Z)=    -0.22402136481D+03
 NORM(A)=   0.11055740D+01
 Iteration Nr.   8
 **********************
 DE(Z)  -0.50266903D+00          E(Z)=    -0.22402136741D+03
 NORM(A)=   0.11055773D+01
 Iteration Nr.   9
 **********************
 DE(Z)  -0.50266810D+00          E(Z)=    -0.22402136648D+03
 NORM(A)=   0.11055778D+01
 Iteration Nr.  10
 **********************
 DE(Z)  -0.50266840D+00          E(Z)=    -0.22402136678D+03
 NORM(A)=   0.11055782D+01
 Iteration Nr.  11
 **********************
 DE(Z)  -0.50266843D+00          E(Z)=    -0.22402136681D+03
 NORM(A)=   0.11055783D+01
 Iteration Nr.  12
 **********************
 DE(Z)  -0.50266844D+00          E(Z)=    -0.22402136682D+03
 NORM(A)=   0.11055783D+01
 Iteration Nr.  13
 **********************
 DE(Z)  -0.50266844D+00          E(Z)=    -0.22402136682D+03
 NORM(A)=   0.11055783D+01
 Iteration Nr.  14
 **********************
 DE(Z)  -0.50266843D+00          E(Z)=    -0.22402136682D+03
 NORM(A)=   0.11055783D+01
 Iteration Nr.  15
 **********************
 DE(Z)  -0.50266844D+00          E(Z)=    -0.22402136682D+03
 NORM(A)=   0.11055783D+01
 Discarding MO integrals.
          Differentiating once with respect to electric field.
                with respect to dipole field.
          Differentiating once with respect to nuclear coordinates.
          Store integrals in memory, NReq=     1434943.
          There are   1 degrees of freedom in the 1st order CPHF.
   1 vectors were produced by pass  0.
 AX will form   1 AO Fock derivatives at one time.
   1 vectors were produced by pass  1.
   1 vectors were produced by pass  2.
   1 vectors were produced by pass  3.
   1 vectors were produced by pass  4.
   1 vectors were produced by pass  5.
   1 vectors were produced by pass  6.
   1 vectors were produced by pass  7.
   1 vectors were produced by pass  8.
   1 vectors were produced by pass  9.
   1 vectors were produced by pass 10.
   1 vectors were produced by pass 11.
   1 vectors were produced by pass 12.
   1 vectors were produced by pass 13.
 Inv2:  IOpt= 1 Iter= 1 AM= 3.82D-16 Conv= 1.00D-12.
 Inverted reduced A of dimension  14 with in-core refinement.
 ***** Axes restored to original set *****
 -------------------------------------------------------------------
 Center     Atomic                   Forces (Hartrees/Bohr)
 Number     Number              X              Y              Z
 -------------------------------------------------------------------
    1          1           0.004589294    0.000000000    0.001858383
    2          6           0.002733353    0.000000000   -0.004507681
    3          1          -0.001564864    0.000000000    0.005624606
    4          6          -0.006831313    0.000000000    0.001150964
    5          1          -0.004808743    0.000000000   -0.002042343
    6          6           0.005253534    0.000000000    0.003917552
    7          7           0.022307993    0.000000000    0.001472056
    8          1           0.002125876    0.000000000   -0.004794304
    9          7          -0.023805129    0.000000000   -0.002679233
 -------------------------------------------------------------------
 Cartesian Forces:  Max     0.023805129 RMS     0.006954361

 GradGradGradGradGradGradGradGradGradGradGradGradGradGradGradGradGradGrad
 Berny optimization.
 Internal  Forces:  Max     0.020686577 RMS     0.004301217
 Search for a local minimum.
 Step number   3 out of a maximum of  48
 All quantities printed in internal units (Hartrees-Bohrs-Radians)
 Update second derivatives using information from points  2  3
 Trust test= 6.68D-01 RLast= 3.49D-01 DXMaxT set to 4.24D-01
     Eigenvalues ---    0.03203   0.03247   0.03251   0.03273   0.03341
     Eigenvalues ---    0.03372   0.15594   0.16000   0.16004   0.16015
     Eigenvalues ---    0.22221   0.23288   0.45687   0.49495   0.49716
     Eigenvalues ---    0.57210   0.58149   0.59573   0.63275   0.68752
     Eigenvalues ---    0.812211000.000001000.000001000.000001000.00000
     Eigenvalues --- 1000.000001000.000001000.000001000.000001000.00000
     Eigenvalues --- 1000.000001000.000001000.000001000.000001000.00000
     Eigenvalues --- 1000.000001000.000001000.00000
 RFO step:  Lambda=-1.07763458D-03.
 Quartic linear search produced a step of -0.01568.
 Iteration  1 RMS(Cart)=  0.00998906 RMS(Int)=  0.00005507
 Iteration  2 RMS(Cart)=  0.00005881 RMS(Int)=  0.00000823
 Iteration  3 RMS(Cart)=  0.00000000 RMS(Int)=  0.00000823
 Variable       Old X    -DE/DX   Delta X   Delta X   Delta X     New X
                                 (Linear)    (Quad)   (Total)
    R1        2.05738  -0.00492  -0.00152  -0.00621  -0.00773   2.04965
    R2        2.65067  -0.00718  -0.00117  -0.01052  -0.01168   2.63899
    R3        2.61656  -0.00252  -0.00159   0.00150  -0.00009   2.61647
    R4        2.05757  -0.00584  -0.00155  -0.00800  -0.00954   2.04803
    R5        2.70728   0.00009  -0.00166   0.00225   0.00060   2.70788
    R6        2.05685  -0.00495  -0.00151  -0.00639  -0.00791   2.04894
    R7        2.57559  -0.00418  -0.00127  -0.00219  -0.00346   2.57214
    R8        2.60446   0.02069  -0.00231   0.03013   0.02781   2.63227
    R9        1.92093  -0.00481  -0.00118  -0.00498  -0.00617   1.91476
    A1        2.29512  -0.00086  -0.00103  -0.00137  -0.00241   2.29271
    A2        2.13214   0.00027   0.00118   0.00283   0.00400   2.13614
    A3        1.85592   0.00059  -0.00014  -0.00146  -0.00159   1.85433
    A4        2.22043  -0.00282  -0.00004  -0.00605  -0.00609   2.21434
    A5        1.82773   0.00598   0.00020   0.01377   0.01400   1.84172
    A6        2.23502  -0.00316  -0.00016  -0.00773  -0.00790   2.22712
    A7        2.25174  -0.00139  -0.00070  -0.00591  -0.00661   2.24513
    A8        1.95695  -0.00068  -0.00059  -0.00652  -0.00710   1.94985
    A9        2.07449   0.00207   0.00129   0.01243   0.01372   2.08821
   A10        1.81142  -0.00238   0.00061   0.00033   0.00092   1.81233
   A11        1.97276  -0.00351  -0.00007  -0.00613  -0.00622   1.96654
   A12        2.24736  -0.00026  -0.00110  -0.00770  -0.00879   2.23857
   A13        2.06307   0.00377   0.00117   0.01383   0.01501   2.07808
    D1        0.00000   0.00000   0.00000   0.00000   0.00000   0.00000
    D2       -3.14159   0.00000   0.00000   0.00000   0.00000  -3.14159
    D3       -3.14159   0.00000   0.00000   0.00000   0.00000  -3.14159
    D4        0.00000   0.00000   0.00000   0.00000   0.00000   0.00000
    D5        3.14159   0.00000   0.00000   0.00000   0.00000   3.14159
    D6        0.00000   0.00000   0.00000   0.00000   0.00000   0.00000
    D7        0.00000   0.00000   0.00000   0.00000   0.00000   0.00000
    D8        3.14159   0.00000   0.00000   0.00000   0.00000   3.14159
    D9        3.14159   0.00000   0.00000   0.00000   0.00000   3.14159
   D10        0.00000   0.00000   0.00000   0.00000   0.00000   0.00000
   D11        0.00000   0.00000   0.00000   0.00000   0.00000   0.00000
   D12        3.14159   0.00000   0.00000   0.00000   0.00000   3.14159
   D13        0.00000   0.00000   0.00000   0.00000   0.00000   0.00000
   D14        3.14159   0.00000   0.00000   0.00000   0.00000   3.14159
   D15        0.00000   0.00000   0.00000   0.00000   0.00000   0.00000
   D16        3.14159   0.00000   0.00000   0.00000   0.00000   3.14159
         Item               Value     Threshold  Converged?
 Maximum Force            0.020687     0.000450     NO 
 RMS     Force            0.004301     0.000300     NO 
 Maximum Displacement     0.028534     0.001800     NO 
 RMS     Displacement     0.009977     0.001200     NO 
 Predicted change in Energy=-5.432928D-04
 GradGradGradGradGradGradGradGradGradGradGradGradGradGradGradGradGradGrad

                          Input orientation:                          
 ---------------------------------------------------------------------
 Center     Atomic     Atomic              Coordinates (Angstroms)
 Number     Number      Type              X           Y           Z
 ---------------------------------------------------------------------
    1          1             0       -1.904364    0.000000   -1.205834
    2          6             0       -0.954204    0.000000   -0.682757
    3          1             0        0.677803    0.000000   -2.191926
    4          6             0        0.359699    0.000000   -1.155889
    5          1             0        2.270729    0.000000    0.075803
    6          6             0        1.188284    0.000000    0.013207
    7          7             0        0.447859    0.000000    1.155314
    8          1             0       -1.623399    0.000000    1.374764
    9          7             0       -0.868269    0.000000    0.699151
 ---------------------------------------------------------------------
                    Distance matrix (angstroms):
                    1          2          3          4          5
     1  H    0.000000
     2  C    1.084626   0.000000
     3  H    2.764048   2.222844   0.000000
     4  C    2.264614   1.396494   1.083772   0.000000
     5  H    4.367379   3.312946   2.771282   2.273566   0.000000
     6  C    3.324234   2.252692   2.263449   1.432948   1.084254
     7  N    3.332863   2.311772   3.355129   2.312884   2.118537
     8  H    2.595848   2.163611   4.244620   3.215102   4.105062
     9  N    2.168516   1.384577   3.278515   2.224652   3.200293
                    6          7          8          9
     6  C    0.000000
     7  N    1.361116   0.000000
     8  H    3.124003   2.082851   0.000000
     9  N    2.167932   1.392939   1.013249   0.000000
 Stoichiometry    C3H4N2
 Framework group  CS[SG(C3H4N2)]
 Deg. of freedom   15
 Full point group                 CS      NOp   2
 Largest Abelian subgroup         CS      NOp   2
 Largest concise Abelian subgroup C1      NOp   1
                         Standard orientation:                         
 ---------------------------------------------------------------------
 Center     Atomic     Atomic              Coordinates (Angstroms)
 Number     Number      Type              X           Y           Z
 ---------------------------------------------------------------------
    1          1             0        2.134419    0.731196    0.000000
    2          6             0        1.132006    0.316972    0.000000
    3          1             0        1.288830   -1.900333    0.000000
    4          6             0        0.679401   -1.004142    0.000000
    5          1             0       -1.476894   -1.724902    0.000000
    6          6             0       -0.751042   -0.919455    0.000000
    7          7             0       -1.179097    0.372600    0.000000
    8          1             0       -0.054867    2.125990    0.000000
    9          7             0        0.000000    1.114228    0.000000
 ---------------------------------------------------------------------
 Rotational constants (GHZ):      9.2771307      9.0904409      4.5914185
 Isotopes: H-1,C-12,H-1,C-12,H-1,C-12,N-14,H-1,N-14
 Standard basis: 3-21G (6D, 7F)
 There are    43 symmetry adapted basis functions of A'  symmetry.
 There are    10 symmetry adapted basis functions of A"  symmetry.
 Crude estimate of integral set expansion from redundant integrals=1.000.
 Integral buffers will be    262144 words long.
 Raffenetti 1 integral format.
 Two-electron integral symmetry is turned on.
    53 basis functions       87 primitive gaussians
    18 alpha electrons       18 beta electrons
       nuclear repulsion energy       160.0094104509 Hartrees.
 One-electron integrals computed using PRISM.
 NBasis=    53 RedAO= T  NBF=    43    10
 NBsUse=    53 1.00D-04 NBFU=    43    10
 Initial guess read from the read-write file:
 Initial guess orbital symmetries:
       Occupied  (A') (A') (A') (A') (A') (A') (A') (A') (A') (A')
                 (A') (A') (A") (A') (A') (A') (A") (A")
       Virtual   (A") (A") (A') (A') (A') (A') (A') (A') (A') (A')
                 (A') (A') (A') (A") (A') (A") (A') (A") (A') (A')
                 (A') (A') (A") (A') (A') (A") (A') (A') (A') (A')
                 (A') (A') (A') (A') (A')
 Requested convergence on RMS density matrix=1.00D-08 within  64 cycles.
 Requested convergence on MAX density matrix=1.00D-06.
 Keep R1 integrals in memory in canonical form, NReq=     1438530.
 SCF Done:  E(RHF) =  -223.519607653     A.U. after   12 cycles
             Convg  =    0.6895D-08             -V/T =  2.0046
             S**2   =   0.0000
 Range of M.O.s used for correlation:     6    53
 NBasis=    53 NAE=    18 NBE=    18 NFC=     5 NFV=     0
 NROrb=     48 NOA=    13 NOB=    13 NVA=    35 NVB=    35
 Estimate disk for full transformation    28611970 words.
 Spin components of T(2) and E(2):
     alpha-alpha T2 =       0.2494991076D-01 E2=     -0.6241259680D-01
     alpha-beta  T2 =       0.1443708037D+00 E2=     -0.3662149595D+00
     beta-beta   T2 =       0.2494991076D-01 E2=     -0.6241259680D-01
 ANorm=    0.1092826896D+01
 E2=       -0.4910401530D+00 EUMP2=       -0.22401064780609D+03
 Iterations=  50 Convergence= 0.100D-07
 Iteration Nr.   1
 **********************
 MP4(R+Q)=  0.74449267D-02
 E3=       -0.67224041D-02        EUMP3=      -0.22401737021D+03
 E4(DQ)=   -0.71470437D-02        UMP4(DQ)=   -0.22402451725D+03
 E4(SDQ)=  -0.14075124D-01        UMP4(SDQ)=  -0.22403144533D+03
 DE(CORR)= -0.49031763D+00        E(CORR)=    -0.22400992528D+03
 NORM(A)=   0.10961777D+01
 Iteration Nr.   2
 **********************
 DE(CORR)= -0.50975271D+00        E(CORR)=    -0.22402936037D+03
 NORM(A)=   0.11086385D+01
 Iteration Nr.   3
 **********************
 DE(CORR)= -0.51283227D+00        E(CORR)=    -0.22403243992D+03
 NORM(A)=   0.11113744D+01
 Iteration Nr.   4
 **********************
 DE(CORR)= -0.51489156D+00        E(CORR)=    -0.22403449921D+03
 NORM(A)=   0.11121329D+01
 Iteration Nr.   5
 **********************
 DE(CORR)= -0.51511438D+00        E(CORR)=    -0.22403472204D+03
 NORM(A)=   0.11123745D+01
 Iteration Nr.   6
 **********************
 DE(CORR)= -0.51514965D+00        E(CORR)=    -0.22403475730D+03
 NORM(A)=   0.11123937D+01
 Iteration Nr.   7
 **********************
 DE(CORR)= -0.51515064D+00        E(CORR)=    -0.22403475830D+03
 NORM(A)=   0.11124119D+01
 Iteration Nr.   8
 **********************
 DE(CORR)= -0.51514543D+00        E(CORR)=    -0.22403475308D+03
 NORM(A)=   0.11124148D+01
 Iteration Nr.   9
 **********************
 DE(CORR)= -0.51514771D+00        E(CORR)=    -0.22403475537D+03
 NORM(A)=   0.11124180D+01
 Iteration Nr.  10
 **********************
 DE(CORR)= -0.51514806D+00        E(CORR)=    -0.22403475571D+03
 NORM(A)=   0.11124197D+01
 Iteration Nr.  11
 **********************
 DE(CORR)= -0.51514919D+00        E(CORR)=    -0.22403475684D+03
 NORM(A)=   0.11124207D+01
 Iteration Nr.  12
 **********************
 DE(CORR)= -0.51514947D+00        E(CORR)=    -0.22403475713D+03
 NORM(A)=   0.11124212D+01
 Iteration Nr.  13
 **********************
 DE(CORR)= -0.51514966D+00        E(CORR)=    -0.22403475732D+03
 NORM(A)=   0.11124214D+01
 Iteration Nr.  14
 **********************
 DE(CORR)= -0.51514969D+00        E(CORR)=    -0.22403475735D+03
 NORM(A)=   0.11124214D+01
 Iteration Nr.  15
 **********************
 DE(CORR)= -0.51514970D+00        E(CORR)=    -0.22403475735D+03
 NORM(A)=   0.11124214D+01
 Iteration Nr.  16
 **********************
 DE(CORR)= -0.51514970D+00        E(CORR)=    -0.22403475735D+03
 NORM(A)=   0.11124214D+01
 Iteration Nr.  17
 **********************
 DE(CORR)= -0.51514969D+00        E(CORR)=    -0.22403475735D+03
 NORM(A)=   0.11124214D+01
 Iteration Nr.  18
 **********************
 DE(CORR)= -0.51514970D+00        E(CORR)=    -0.22403475735D+03
 NORM(A)=   0.11124215D+01
 Largest amplitude= 9.93D-02

 Z-AMPLITUDE ITERATIONS

 Iteration Nr.   1
 **********************
 DE(Z)  -0.50270977D+00          E(Z)=    -0.22402231742D+03
 NORM(A)=   0.11124209D+01
 Iteration Nr.   2
 **********************
 DE(Z)  -0.50270975D+00          E(Z)=    -0.22402231741D+03
 NORM(A)=   0.11124213D+01
 Iteration Nr.   3
 **********************
 DE(Z)  -0.50270976D+00          E(Z)=    -0.22402231742D+03
 NORM(A)=   0.11124215D+01
 Iteration Nr.   4
 **********************
 DE(Z)  -0.50270977D+00          E(Z)=    -0.22402231742D+03
 NORM(A)=   0.11124217D+01
 Iteration Nr.   5
 **********************
 DE(Z)  -0.50270978D+00          E(Z)=    -0.22402231743D+03
 NORM(A)=   0.11057907D+01
 Iteration Nr.   6
 **********************
 DE(Z)  -0.50247054D+00          E(Z)=    -0.22402207820D+03
 NORM(A)=   0.11056975D+01
 Iteration Nr.   7
 **********************
 DE(Z)  -0.50248421D+00          E(Z)=    -0.22402209186D+03
 NORM(A)=   0.11056858D+01
 Iteration Nr.   8
 **********************
 DE(Z)  -0.50247632D+00          E(Z)=    -0.22402208398D+03
 NORM(A)=   0.11056680D+01
 Iteration Nr.   9
 **********************
 DE(Z)  -0.50247520D+00          E(Z)=    -0.22402208285D+03
 NORM(A)=   0.11056635D+01
 Iteration Nr.  10
 **********************
 DE(Z)  -0.50247499D+00          E(Z)=    -0.22402208264D+03
 NORM(A)=   0.11056635D+01
 Iteration Nr.  11
 **********************
 DE(Z)  -0.50247475D+00          E(Z)=    -0.22402208240D+03
 NORM(A)=   0.11056635D+01
 Iteration Nr.  12
 **********************
 DE(Z)  -0.50247480D+00          E(Z)=    -0.22402208246D+03
 NORM(A)=   0.11056635D+01
 Iteration Nr.  13
 **********************
 DE(Z)  -0.50247482D+00          E(Z)=    -0.22402208247D+03
 NORM(A)=   0.11056636D+01
 Iteration Nr.  14
 **********************
 DE(Z)  -0.50247483D+00          E(Z)=    -0.22402208249D+03
 NORM(A)=   0.11056636D+01
 Iteration Nr.  15
 **********************
 DE(Z)  -0.50247484D+00          E(Z)=    -0.22402208249D+03
 NORM(A)=   0.11056635D+01
 Iteration Nr.  16
 **********************
 DE(Z)  -0.50247484D+00          E(Z)=    -0.22402208249D+03
 NORM(A)=   0.11056635D+01
 Discarding MO integrals.
          Differentiating once with respect to electric field.
                with respect to dipole field.
          Differentiating once with respect to nuclear coordinates.
          Store integrals in memory, NReq=     1434943.
          There are   1 degrees of freedom in the 1st order CPHF.
   1 vectors were produced by pass  0.
 AX will form   1 AO Fock derivatives at one time.
   1 vectors were produced by pass  1.
   1 vectors were produced by pass  2.
   1 vectors were produced by pass  3.
   1 vectors were produced by pass  4.
   1 vectors were produced by pass  5.
   1 vectors were produced by pass  6.
   1 vectors were produced by pass  7.
   1 vectors were produced by pass  8.
   1 vectors were produced by pass  9.
   1 vectors were produced by pass 10.
   1 vectors were produced by pass 11.
   1 vectors were produced by pass 12.
   1 vectors were produced by pass 13.
 Inv2:  IOpt= 1 Iter= 1 AM= 3.26D-16 Conv= 1.00D-12.
 Inverted reduced A of dimension  14 with in-core refinement.
 ***** Axes restored to original set *****
 -------------------------------------------------------------------
 Center     Atomic                   Forces (Hartrees/Bohr)
 Number     Number              X              Y              Z
 -------------------------------------------------------------------
    1          1           0.001997083    0.000000000    0.000775991
    2          6           0.004690209    0.000000000   -0.000439445
    3          1          -0.000391109    0.000000000    0.001975437
    4          6          -0.003070340    0.000000000   -0.001975096
    5          1          -0.002197589    0.000000000   -0.000561415
    6          6          -0.002947169    0.000000000    0.002277609
    7          7           0.013832992    0.000000000    0.002804858
    8          1           0.001796799    0.000000000   -0.001297924
    9          7          -0.013710876    0.000000000   -0.003560015
 -------------------------------------------------------------------
 Cartesian Forces:  Max     0.013832992 RMS     0.004163228

 GradGradGradGradGradGradGradGradGradGradGradGradGradGradGradGradGradGrad
 Berny optimization.
 Internal  Forces:  Max     0.010597292 RMS     0.002266698
 Search for a local minimum.
 Step number   4 out of a maximum of  48
 All quantities printed in internal units (Hartrees-Bohrs-Radians)
 Update second derivatives using information from points  2  3  4
 Trust test= 1.38D+00 RLast= 4.60D-02 DXMaxT set to 4.24D-01
     Eigenvalues ---    0.03203   0.03247   0.03252   0.03273   0.03341
     Eigenvalues ---    0.03372   0.15080   0.15922   0.16002   0.16218
     Eigenvalues ---    0.22915   0.25825   0.36139   0.45998   0.49522
     Eigenvalues ---    0.49786   0.57795   0.59180   0.60951   0.68769
     Eigenvalues ---    0.728931000.000001000.000001000.000001000.00000
     Eigenvalues --- 1000.000001000.000001000.000001000.000001000.00000
     Eigenvalues --- 1000.000001000.000001000.000001000.000001000.00000
     Eigenvalues --- 1000.000001000.000001000.00000
 RFO step:  Lambda=-4.27613302D-04.
 Quartic linear search produced a step of  0.65118.
 Iteration  1 RMS(Cart)=  0.00896418 RMS(Int)=  0.00005425
 Iteration  2 RMS(Cart)=  0.00006065 RMS(Int)=  0.00000949
 Iteration  3 RMS(Cart)=  0.00000000 RMS(Int)=  0.00000949
 Variable       Old X    -DE/DX   Delta X   Delta X   Delta X     New X
                                 (Linear)    (Quad)   (Total)
    R1        2.04965  -0.00212  -0.00504  -0.00257  -0.00760   2.04204
    R2        2.63899  -0.00462  -0.00760  -0.00907  -0.01668   2.62231
    R3        2.61647  -0.00115  -0.00006   0.00128   0.00120   2.61767
    R4        2.04803  -0.00200  -0.00621  -0.00170  -0.00792   2.04012
    R5        2.70788  -0.00013   0.00039   0.00065   0.00106   2.70893
    R6        2.04894  -0.00223  -0.00515  -0.00297  -0.00812   2.04082
    R7        2.57214  -0.00301  -0.00225  -0.00357  -0.00581   2.56633
    R8        2.63227   0.01060   0.01811   0.01851   0.03661   2.66888
    R9        1.91476  -0.00220  -0.00402  -0.00245  -0.00646   1.90830
    A1        2.29271  -0.00117  -0.00157  -0.00650  -0.00805   2.28466
    A2        2.13614  -0.00059   0.00260  -0.00395  -0.00134   2.13480
    A3        1.85433   0.00176  -0.00104   0.01045   0.00939   1.86372
    A4        2.21434  -0.00002  -0.00397   0.00757   0.00359   2.21793
    A5        1.84172   0.00046   0.00911  -0.01149  -0.00236   1.83936
    A6        2.22712  -0.00044  -0.00515   0.00392  -0.00123   2.22589
    A7        2.24513  -0.00184  -0.00431  -0.01046  -0.01478   2.23034
    A8        1.94985   0.00280  -0.00462   0.01850   0.01390   1.96375
    A9        2.08821  -0.00095   0.00893  -0.00804   0.00088   2.08909
   A10        1.81233  -0.00333   0.00060  -0.01481  -0.01420   1.79813
   A11        1.96654  -0.00170  -0.00405  -0.00266  -0.00673   1.95981
   A12        2.23857   0.00107  -0.00572   0.00752   0.00180   2.24037
   A13        2.07808   0.00063   0.00977  -0.00486   0.00493   2.08300
    D1        0.00000   0.00000   0.00000   0.00000   0.00000   0.00000
    D2        3.14159   0.00000   0.00000   0.00000   0.00000   3.14159
    D3        3.14159   0.00000   0.00000   0.00000   0.00000   3.14159
    D4        0.00000   0.00000   0.00000   0.00000   0.00000   0.00000
    D5        3.14159   0.00000   0.00000   0.00000   0.00000   3.14159
    D6        0.00000   0.00000   0.00000   0.00000   0.00000   0.00000
    D7        0.00000   0.00000   0.00000   0.00000   0.00000   0.00000
    D8        3.14159   0.00000   0.00000   0.00000   0.00000   3.14159
    D9        3.14159   0.00000   0.00000   0.00000   0.00000   3.14159
   D10        0.00000   0.00000   0.00000   0.00000   0.00000   0.00000
   D11        0.00000   0.00000   0.00000   0.00000   0.00000   0.00000
   D12        3.14159   0.00000   0.00000   0.00000   0.00000   3.14159
   D13        0.00000   0.00000   0.00000   0.00000   0.00000   0.00000
   D14        3.14159   0.00000   0.00000   0.00000   0.00000   3.14159
   D15        0.00000   0.00000   0.00000   0.00000   0.00000   0.00000
   D16        3.14159   0.00000   0.00000   0.00000   0.00000   3.14159
         Item               Value     Threshold  Converged?
 Maximum Force            0.010597     0.000450     NO 
 RMS     Force            0.002267     0.000300     NO 
 Maximum Displacement     0.024891     0.001800     NO 
 RMS     Displacement     0.008955     0.001200     NO 
 Predicted change in Energy=-3.544073D-04
 GradGradGradGradGradGradGradGradGradGradGradGradGradGradGradGradGradGrad

                          Input orientation:                          
 ---------------------------------------------------------------------
 Center     Atomic     Atomic              Coordinates (Angstroms)
 Number     Number      Type              X           Y           Z
 ---------------------------------------------------------------------
    1          1             0       -1.893258    0.000000   -1.211548
    2          6             0       -0.949941    0.000000   -0.684426
    3          1             0        0.673653    0.000000   -2.188250
    4          6             0        0.354846    0.000000   -1.156814
    5          1             0        2.261931    0.000000    0.060369
    6          6             0        1.183002    0.000000    0.013272
    7          7             0        0.459425    0.000000    1.162497
    8          1             0       -1.631090    0.000000    1.367641
    9          7             0       -0.874573    0.000000    0.698735
 ---------------------------------------------------------------------
                    Distance matrix (angstroms):
[...]
 Frequencies --  1437.3757              1537.4831              3242.2345
 Red. masses --     2.0785                 2.3997                 1.0916
 Frc consts  --     2.5302                 3.3422                 6.7608
 IR Inten    --    14.6437                14.8241                 1.5801
 Raman Activ --     0.0000                 0.0000                 0.0000
 Depolar     --     0.0000                 0.0000                 0.0000
 Atom AN      X      Y      Z        X      Y      Z        X      Y      Z
   1   1     0.08  -0.42   0.00     0.30  -0.30   0.00     0.53   0.22   0.00
   2   6    -0.14   0.14   0.00     0.05   0.21   0.00    -0.05  -0.02   0.00
   3   1    -0.25  -0.32   0.00     0.33   0.04   0.00    -0.32   0.48   0.00
   4   6     0.13  -0.04   0.00    -0.06  -0.19   0.00     0.03  -0.04   0.00
   5   1     0.18  -0.21   0.00     0.35  -0.24   0.00    -0.38  -0.44   0.00
   6   6    -0.09   0.04   0.00    -0.09   0.13   0.00     0.03   0.04   0.00
   7   7    -0.01   0.02   0.00     0.05  -0.07   0.00     0.00   0.00   0.00
   8   1    -0.68  -0.13   0.00     0.63   0.02   0.00     0.00  -0.01   0.00
   9   7     0.14  -0.06   0.00    -0.09  -0.02   0.00     0.00   0.00   0.00
                    19                     20                     21
                    A'                     A'                     A'
 Frequencies --  3248.3359              3272.8384              3626.0406
 Red. masses --     1.0957                 1.1056                 1.0825
 Frc consts  --     6.8121                 6.9772                 8.3856
 IR Inten    --     4.4905                 0.3414                90.3476
 Raman Activ --     0.0000                 0.0000                 0.0000
 Depolar     --     0.0000                 0.0000                 0.0000
 Atom AN      X      Y      Z        X      Y      Z        X      Y      Z
   1   1     0.63   0.26   0.00    -0.42  -0.18   0.00     0.02   0.00   0.00
   2   6    -0.06  -0.02   0.00     0.04   0.02   0.00     0.00   0.00   0.00
   3   1    -0.04   0.04   0.00    -0.46   0.67   0.00     0.00   0.00   0.00
   4   6     0.01   0.00   0.00     0.04  -0.06   0.00     0.00   0.00   0.00
   5   1     0.48   0.55   0.00     0.24   0.27   0.00     0.00   0.00   0.00
   6   6    -0.04  -0.05   0.00    -0.02  -0.02   0.00     0.00   0.00   0.00
   7   7     0.00   0.00   0.00     0.00   0.00   0.00     0.00   0.00   0.00
   8   1     0.00  -0.01   0.00     0.00   0.02   0.00    -0.07   0.99   0.00
   9   7     0.00   0.00   0.00     0.00   0.00   0.00     0.01  -0.08   0.00

 -------------------
 - Thermochemistry -
 -------------------
 Temperature   298.150 Kelvin.  Pressure   1.00000 Atm.
 Atom  1 has atomic number  1 and mass   1.00783
 Atom  2 has atomic number  6 and mass  12.00000
 Atom  3 has atomic number  1 and mass   1.00783
 Atom  4 has atomic number  6 and mass  12.00000
 Atom  5 has atomic number  1 and mass   1.00783
 Atom  6 has atomic number  6 and mass  12.00000
 Atom  7 has atomic number  7 and mass  14.00307
 Atom  8 has atomic number  1 and mass   1.00783
 Atom  9 has atomic number  7 and mass  14.00307
 Molecular mass:    68.03745 amu.
 Principal axes and moments of inertia in atomic units:
                           1         2         3
     EIGENVALUES --   194.40383 199.54471 393.94854
           X            0.99570   0.09265   0.00000
           Y           -0.09265   0.99570   0.00000
           Z            0.00000   0.00000   1.00000
 THIS MOLECULE IS AN ASYMMETRIC TOP.
 ROTATIONAL SYMMETRY NUMBER  1.
 ROTATIONAL TEMPERATURES (KELVIN)      0.44553     0.43406     0.21986
 ROTATIONAL CONSTANTS (GHZ)            9.28347     9.04429     4.58116
 Zero-point vibrational energy     184612.8 (Joules/Mol)
                                   44.12352 (Kcal/Mol)
 WARNING-- EXPLICIT CONSIDERATION OF   1 DEGREES OF FREEDOM AS
           VIBRATIONS MAY CAUSE SIGNIFICANT ERROR
 VIBRATIONAL TEMPERATURES:    793.31   924.68   967.71  1098.82  1228.39
          (KELVIN)           1277.43  1320.13  1368.04  1399.05  1517.51
                             1579.32  1656.77  1777.42  1948.43  2005.93
                             2068.05  2212.08  4664.83  4673.60  4708.86
                             5217.03
 
 Zero-point correction=                           0.070315 (Hartree/Particle)
 Thermal correction to Energy=                    0.074062
 Thermal correction to Enthalpy=                  0.075006
 Thermal correction to Gibbs Free Energy=         0.043997
 Sum of electronic and zero-point Energies=           -223.964833
 Sum of electronic and thermal Energies=              -223.961086
 Sum of electronic and thermal Enthalpies=            -223.960142
 Sum of electronic and thermal Free Energies=         -223.991151
 
                     E (Thermal)             CV                S
                      KCAL/MOL        CAL/MOL-KELVIN    CAL/MOL-KELVIN
 TOTAL                   46.475             13.454             65.265
 ELECTRONIC               0.000              0.000              0.000
 TRANSLATIONAL            0.889              2.981             38.570
 ROTATIONAL               0.889              2.981             24.239
 VIBRATIONAL             44.697              7.492              2.455
 VIBRATION  1             0.907              1.137              0.541
                       Q            LOG10(Q)             LN(Q)
 TOTAL BOT       0.579399D-20        -20.237023        -46.597466
 TOTAL V=0       0.127514D+13         12.105557         27.874074
 VIB (BOT)       0.593545D-32        -32.226547        -74.204366
 VIB (BOT)  1    0.284243D+00         -0.546311         -1.257926
 VIB (V=0)       0.130627D+01          0.116032          0.267175
 VIB (V=0)  1    0.107515D+01          0.031468          0.072457
 ELECTRONIC      0.100000D+01          0.000000          0.000000
 TRANSLATIONAL   0.220588D+08          7.343582         16.909224
 ROTATIONAL      0.442529D+05          4.645942         10.697676
 ***** Axes restored to original set *****
 -------------------------------------------------------------------
 Center     Atomic                   Forces (Hartrees/Bohr)
 Number     Number              X              Y              Z
 -------------------------------------------------------------------
    1          1           0.000039640    0.000000000   -0.000027634
    2          6          -0.000168104    0.000000000    0.000261299
    3          1          -0.000043339    0.000000000    0.000027531
    4          6           0.000140430    0.000000000   -0.000052854
    5          1          -0.000026803    0.000000000   -0.000021630
    6          6           0.000063897    0.000000000   -0.000076783
    7          7          -0.000122113    0.000000000    0.000107958
    8          1          -0.000013159    0.000000000   -0.000031747
    9          7           0.000129550    0.000000000   -0.000186139
 -------------------------------------------------------------------
 Cartesian Forces:  Max     0.000261299 RMS     0.000089104

 GradGradGradGradGradGradGradGradGradGradGradGradGradGradGradGradGradGrad
 Berny optimization.
 Internal  Forces:  Max     0.000188184 RMS     0.000045510
 Search for a local minimum.
 Step number   1 out of a maximum of  48
 All quantities printed in internal units (Hartrees-Bohrs-Radians)
 Second derivative matrix not updated -- analytic derivatives used.
     Eigenvalues ---    0.00789   0.01177   0.01685   0.02800   0.05967
     Eigenvalues ---    0.06319   0.10155   0.11063   0.11200   0.12067
     Eigenvalues ---    0.20241   0.23731   0.29427   0.34287   0.36903
     Eigenvalues ---    0.37312   0.37620   0.40324   0.46431   0.47002
     Eigenvalues ---    0.530611000.000001000.000001000.000001000.00000
     Eigenvalues --- 1000.000001000.000001000.000001000.000001000.00000
     Eigenvalues --- 1000.000001000.000001000.000001000.000001000.00000
     Eigenvalues --- 1000.000001000.000001000.00000
 Angle between quadratic step and forces=  25.84 degrees.
 Linear search not attempted -- first point.
 Iteration  1 RMS(Cart)=  0.00019664 RMS(Int)=  0.00000004
 Iteration  2 RMS(Cart)=  0.00000004 RMS(Int)=  0.00000000
 Variable       Old X    -DE/DX   Delta X   Delta X   Delta X     New X
                                 (Linear)    (Quad)   (Total)
    R1        2.04484  -0.00002   0.00000  -0.00006  -0.00006   2.04479
    R2        2.62574   0.00008   0.00000   0.00033   0.00033   2.62607
    R3        2.61154  -0.00019   0.00000  -0.00064  -0.00064   2.61090
    R4        2.04245  -0.00004   0.00000  -0.00010  -0.00010   2.04235
    R5        2.70891  -0.00003   0.00000  -0.00018  -0.00018   2.70873
    R6        2.04414  -0.00003   0.00000  -0.00008  -0.00008   2.04406
    R7        2.56083   0.00010   0.00000   0.00040   0.00040   2.56123
    R8        2.67814  -0.00005   0.00000  -0.00021  -0.00021   2.67793
    R9        1.90944  -0.00001   0.00000  -0.00001  -0.00001   1.90943
    A1        2.28401  -0.00005   0.00000  -0.00049  -0.00049   2.28352
    A2        2.13279   0.00004   0.00000   0.00051   0.00051   2.13330
    A3        1.86639   0.00000   0.00000  -0.00002  -0.00002   1.86637
    A4        2.21993  -0.00003   0.00000  -0.00031  -0.00031   2.21962
    A5        1.83854  -0.00002   0.00000  -0.00007  -0.00007   1.83847
    A6        2.22472   0.00004   0.00000   0.00038   0.00038   2.22510
    A7        2.23306  -0.00001   0.00000  -0.00006  -0.00006   2.23300
    A8        1.96374  -0.00003   0.00000  -0.00006  -0.00006   1.96368
    A9        2.08639   0.00004   0.00000   0.00012   0.00012   2.08651
   A10        1.80015  -0.00003   0.00000  -0.00016  -0.00016   1.80000
   A11        1.95597   0.00008   0.00000   0.00030   0.00030   1.95627
   A12        2.25074  -0.00007   0.00000  -0.00040  -0.00040   2.25033
   A13        2.07648  -0.00001   0.00000   0.00010   0.00010   2.07658
    D1        0.00000   0.00000   0.00000   0.00000   0.00000   0.00000
    D2        3.14159   0.00000   0.00000   0.00000   0.00000   3.14159
    D3        3.14159   0.00000   0.00000   0.00000   0.00000   3.14159
    D4        0.00000   0.00000   0.00000   0.00000   0.00000   0.00000
    D5        3.14159   0.00000   0.00000   0.00000   0.00000   3.14159
    D6        0.00000   0.00000   0.00000   0.00000   0.00000   0.00000
    D7        0.00000   0.00000   0.00000   0.00000   0.00000   0.00000
    D8        3.14159   0.00000   0.00000   0.00000   0.00000   3.14159
    D9        3.14159   0.00000   0.00000   0.00000   0.00000   3.14159
   D10        0.00000   0.00000   0.00000   0.00000   0.00000   0.00000
   D11        0.00000   0.00000   0.00000   0.00000   0.00000   0.00000
   D12        3.14159   0.00000   0.00000   0.00000   0.00000   3.14159
   D13        0.00000   0.00000   0.00000   0.00000   0.00000   0.00000
   D14        3.14159   0.00000   0.00000   0.00000   0.00000   3.14159
   D15        0.00000   0.00000   0.00000   0.00000   0.00000   0.00000
   D16        3.14159   0.00000   0.00000   0.00000   0.00000   3.14159
         Item               Value     Threshold  Converged?
 Maximum Force            0.000188     0.000450     YES
 RMS     Force            0.000046     0.000300     YES
 Maximum Displacement     0.000643     0.001800     YES
 RMS     Displacement     0.000197     0.001200     YES
 Predicted change in Energy=-1.705596D-07
 Optimization completed.
    -- Stationary point found.
                         ----------------------------
                         !   Optimized Parameters   !
                         ! (Angstroms and Degrees)  !
 ------------------------                            -------------------------
 ! Name  Definition              Value          Derivative Info.             !
 -----------------------------------------------------------------------------
 ! R1    R(1,2)                  1.0821         -DE/DX =    0.               !
 ! R2    R(2,4)                  1.3895         -DE/DX =    0.0001           !
 ! R3    R(2,9)                  1.382          -DE/DX =   -0.0002           !
 ! R4    R(3,4)                  1.0808         -DE/DX =    0.               !
 ! R5    R(4,6)                  1.4335         -DE/DX =    0.               !
 ! R6    R(5,6)                  1.0817         -DE/DX =    0.               !
 ! R7    R(6,7)                  1.3551         -DE/DX =    0.0001           !
 ! R8    R(7,9)                  1.4172         -DE/DX =    0.               !
 ! R9    R(8,9)                  1.0104         -DE/DX =    0.               !
 ! A1    A(1,2,4)              130.864          -DE/DX =    0.               !
 ! A2    A(1,2,9)              122.2            -DE/DX =    0.               !
 ! A3    A(4,2,9)              106.936          -DE/DX =    0.               !
 ! A4    A(2,4,3)              127.1926         -DE/DX =    0.               !
 ! A5    A(2,4,6)              105.3404         -DE/DX =    0.               !
 ! A6    A(3,4,6)              127.467          -DE/DX =    0.               !
 ! A7    A(4,6,5)              127.9447         -DE/DX =    0.               !
 ! A8    A(4,6,7)              112.5138         -DE/DX =    0.               !
 ! A9    A(5,6,7)              119.5415         -DE/DX =    0.               !
 ! A10   A(6,7,9)              103.1412         -DE/DX =    0.               !
 ! A11   A(2,9,7)              112.0686         -DE/DX =    0.0001           !
 ! A12   A(2,9,8)              128.9576         -DE/DX =   -0.0001           !
 ! A13   A(7,9,8)              118.9737         -DE/DX =    0.               !
 ! D1    D(1,2,4,3)              0.             -DE/DX =    0.               !
 ! D2    D(1,2,4,6)            180.             -DE/DX =    0.               !
 ! D3    D(9,2,4,3)            180.             -DE/DX =    0.               !
 ! D4    D(9,2,4,6)              0.             -DE/DX =    0.               !
 ! D5    D(1,2,9,7)            180.             -DE/DX =    0.               !
 ! D6    D(1,2,9,8)              0.             -DE/DX =    0.               !
 ! D7    D(4,2,9,7)              0.             -DE/DX =    0.               !
 ! D8    D(4,2,9,8)            180.             -DE/DX =    0.               !
 ! D9    D(2,4,6,5)            180.             -DE/DX =    0.               !
 ! D10   D(2,4,6,7)              0.             -DE/DX =    0.               !
 ! D11   D(3,4,6,5)              0.             -DE/DX =    0.               !
 ! D12   D(3,4,6,7)            180.             -DE/DX =    0.               !
 ! D13   D(4,6,7,9)              0.             -DE/DX =    0.               !
 ! D14   D(5,6,7,9)            180.             -DE/DX =    0.               !
 ! D15   D(6,7,9,2)              0.             -DE/DX =    0.               !
 ! D16   D(6,7,9,8)            180.             -DE/DX =    0.               !
 -----------------------------------------------------------------------------
 GradGradGradGradGradGradGradGradGradGradGradGradGradGradGradGradGradGrad

 1\1\GINC-QCHEM3\Freq\RQCISD-FC\3-21G\C3H4N2\RDJ3\27-Oct-1999\0\\#N GEO
 M=ALLCHECK GUESS=TCHECK RQCISD(FC)/3-21G FREQ\\1H pyrazole C3H4N2 casn
 o=288131\\0,1\H,-1.8958830517,0.,-1.2131530854\C,-0.9513229679,0.,-0.6
 852219816\H,0.6755582759,0.,-2.1911167178\C,0.3549032773,0.,-1.1589578
 168\H,2.2632844457,0.,0.0617213963\C,1.1827446087,0.,0.0113338662\N,0.
 4603981748,0.,1.1578943578\H,-1.6304526249,0.,1.3703896891\N,-0.879034
 8253,0.,0.6948534009\\Version=x86-Linux-G98RevA.4\State=1-A'\HF=-223.5
 20013\MP2=-224.0108815\MP3=-224.0175425\MP4D=-224.0321157\MP4DQ=-224.0
 246833\MP4SDQ=-224.0318039\QCISD=-224.035148\RMSD=9.379e-10\RMSF=8.910
 e-05\Dipole=-0.7981014,0.,-0.4503388\DipoleDeriv=0.002932,0.,-0.040758
 8,0.,0.190199,0.,-0.0478357,0.,0.0662056,0.1484119,0.,-0.0927615,0.,-0
 .0324096,0.,-0.3077736,0.,0.2657596,0.091618,0.,0.0268554,0.,0.1717228
 ,0.,0.032266,0.,-0.028136,-0.3310573,0.,-0.0003595,0.,-0.2497136,0.,-0
 .0808542,0.,-0.0183535,-0.0429936,0.,-0.0246846,0.,0.1509086,0.,-0.009
 6208,0.,0.0819719,0.236749,0.,0.1327514,0.,-0.0617647,0.,0.226498,0.,0
 .0717568,0.1192593,0.,-0.1148482,0.,-0.1899158,0.,-0.0351029,0.,-0.392
 6745,0.2272864,0.,-0.0351307,0.,0.376197,0.,-0.0540863,0.,0.2293192,-0
 .4527159,0.,0.1486884,0.,-0.3553116,0.,0.2767216,0.,-0.2755939\PG=CS [
 SG(C3H4N2)]\NImag=0\\0.29483144,0.,0.02077656,0.13531240,0.,0.12944335
 ,-0.29091397,0.,-0.11924082,0.83350451,0.,-0.02675022,0.,0.,0.12300539
 ,-0.12805964,0.,-0.12495422,0.10805935,0.,0.58634983,0.00003376,0.,-0.
 00081978,0.00202991,0.,0.02857246,0.08162938,0.,-0.00264618,0.,0.,-0.0
 0242448,0.,0.,0.02161938,0.00085985,0.,0.00000558,-0.00497472,0.,-0.00
 030994,-0.09188494,0.,0.34452719,-0.00701291,0.,0.01092362,-0.31544412
 ,0.,0.06551204,-0.08791342,0.,0.08597898,0.58344716,0.,0.00125956,0.,0
 .,-0.06497866,0.,0.,-0.02506613,0.,0.,0.11701924,-0.01655420,0.,0.0131
 5647,0.08560489,0.,-0.14142603,0.08245725,0.,-0.33260734,-0.13438352,0
 .,0.79438134,-0.00040443,0.,0.00027154,-0.00035934,0.,-0.00054424,-0.0
 0024159,0.,-0.00097256,-0.00421377,0.,0.00515147,0.37014667,0.,0.00053
 954,0.,0.,0.00455216,0.,0.,-0.00133884,0.,0.,0.00004128,0.,0.,0.024480
 62,-0.00115362,0.,0.00099158,-0.00337637,0.,-0.00684514,0.00077492,0.,
 0.00006979,-0.02328375,0.,0.00739588,0.01407986,0.,0.05746750,-0.00437
 998,0.,0.00498191,-0.07087927,0.,-0.00826601,0.01320738,0.,0.01366511,
 -0.16056549,0.,-0.07013417,-0.35317229,0.,-0.02491712,0.85091995,0.,0.
 00568323,0.,0.,0.01201584,0.,0.,-0.00368370,0.,0.,-0.06571395,0.,0.,-0
 .03066954,0.,0.,0.13885231,0.00089691,0.,-0.00267917,-0.06941564,0.,0.
 03599596,-0.01773005,0.,-0.00962084,-0.04538026,0.,-0.19246832,-0.0158
 6707,0.,-0.05999157,-0.00819768,0.,0.51794810,0.00105975,0.,0.00060996
 ,-0.05562040,0.,-0.04003761,-0.00242492,0.,-0.00082301,0.02248343,0.,0
 .03085225,-0.01180405,0.,0.02942584,-0.15523463,0.,0.11999341,0.381601
 11,0.,0.00547754,0.,0.,0.01569815,0.,0.,0.00587111,0.,0.,0.02172785,0.
 ,0.,-0.00696855,0.,0.,-0.06972469,0.,0.,0.09592138,0.00303205,0.,-0.00
 441036,-0.01822945,0.,-0.06765597,-0.00565617,0.,-0.00270681,-0.031479
 36,0.,-0.08223923,-0.00406237,0.,0.00432151,0.06785409,0.,-0.24688795,
 -0.05042698,0.,0.48314363,-0.00020919,0.,0.00072797,0.01005696,0.,-0.0
 0654195,0.00064375,0.,-0.00000971,0.00221122,0.,-0.00353560,-0.0004865
 2,0.,0.00150400,-0.00707519,0.,-0.00614740,-0.01429435,0.,0.02604662,0
 .28618657,0.,-0.00130390,0.,0.,-0.00749305,0.,0.,0.00210689,0.,0.,0.00
 353807,0.,0.,0.00192127,0.,0.,0.00410612,0.,0.,-0.01062799,0.,0.,0.013
 00125,-0.00075253,0.,-0.00044067,0.02617667,0.,-0.00358830,0.00131769,
 0.,0.00005768,-0.00272460,0.,-0.00644625,-0.00042278,0.,0.00111400,-0.
 00676543,0.,-0.00004431,-0.01244483,0.,0.01438180,-0.19976098,0.,0.245
 89777,0.00698718,0.,-0.03277069,-0.11237424,0.,-0.01870554,-0.00696527
 ,0.,-0.00184189,-0.03298749,0.,0.02053699,0.00052969,0.,0.00694346,-0.
 11282533,0.,0.04187484,-0.16574966,0.,0.01290625,-0.27703506,0.,0.1953
 7601,0.70042091,0.,-0.00303657,0.,0.,-0.05362368,0.,0.,0.00556276,0.,0
 .,0.01217517,0.,0.,0.00744252,0.,0.,0.00913756,0.,0.,-0.05738751,0.,0.
 ,-0.00525097,0.,0.,0.08498787,0.00642649,0.,-0.01110649,-0.00459745,0.
 ,-0.27757340,0.00296897,0.,0.00058352,0.07482262,0.,-0.05973672,0.0023
 6447,0.,-0.00452132,0.03178769,0.,-0.04225485,-0.07715776,0.,-0.097961
 74,0.18771603,0.,-0.25092608,-0.22431671,0.,0.74349974\\-0.00003964,0.
 ,0.00002763,0.00016810,0.,-0.00026130,0.00004334,0.,-0.00002753,-0.000
 14043,0.,0.00005285,0.00002680,0.,0.00002163,-0.00006390,0.,0.00007678
 ,0.00012211,0.,-0.00010796,0.00001316,0.,0.00003175,-0.00012955,0.,0.0
 0018614\\\@


 KNOWLEDGE IS CHIMERA - FOR BEYOND IT LIES OTHER KNOWLEDGE,
 AND THE INCOMPLETENESS OF WHAT IS KNOWN RENDERS THE KNOWING FALSE.
     -- THE THOMAS COVENANT CHRONICLES
 Job cpu time:  0 days  8 hours 31 minutes 32.3 seconds.
 File lengths (MBytes):  RWF=  213 Int=    0 D2E=    0 Chk=    4 Scr=    1
 Normal termination of Gaussian 98.
