 Entering Link 1 = C:\G03W\l1.exe PID=     12752.
  
 Copyright (c) 1988,1990,1992,1993,1995,1998,2003, Gaussian, Inc.
                  All Rights Reserved.
  
 This is the Gaussian(R) 03 program.  It is based on the
 the Gaussian(R) 98 system (copyright 1998, Gaussian, Inc.),
 the Gaussian(R) 94 system (copyright 1995, Gaussian, Inc.),
 the Gaussian 92(TM) system (copyright 1992, Gaussian, Inc.),
 the Gaussian 90(TM) system (copyright 1990, Gaussian, Inc.),
 the Gaussian 88(TM) system (copyright 1988, Gaussian, Inc.),
 the Gaussian 86(TM) system (copyright 1986, Carnegie Mellon
 University), and the Gaussian 82(TM) system (copyright 1983,
 Carnegie Mellon University). Gaussian is a federally registered
 trademark of Gaussian, Inc.
  
 This software contains proprietary and confidential information,
 including trade secrets, belonging to Gaussian, Inc.
  
 This software is provided under written license and may be
 used, copied, transmitted, or stored only in accord with that
 written license.
  
 The following legend is applicable only to US Government
 contracts under DFARS:
  
                    RESTRICTED RIGHTS LEGEND
  
 Use, duplication or disclosure by the US Government is subject
 to restrictions as set forth in subparagraph (c)(1)(ii) of the
 Rights in Technical Data and Computer Software clause at DFARS
 252.227-7013.
  
 Gaussian, Inc.
 Carnegie Office Park, Building 6, Pittsburgh, PA 15106 USA
  
 The following legend is applicable only to US Government
 contracts under FAR:
  
                    RESTRICTED RIGHTS LEGEND
  
 Use, reproduction and disclosure by the US Government is subject
 to restrictions as set forth in subparagraph (c) of the
 Commercial Computer Software - Restricted Rights clause at FAR
 52.227-19.
  
 Gaussian, Inc.
 Carnegie Office Park, Building 6, Pittsburgh, PA 15106 USA
  
  
 ---------------------------------------------------------------
 Warning -- This program may not be used in any manner that
 competes with the business of Gaussian, Inc. or will provide
 assistance to any competitor of Gaussian, Inc.  The licensee
 of this program is prohibited from giving any competitor of
 Gaussian, Inc. access to this program.  By using this program,
 the user acknowledges that Gaussian, Inc. is engaged in the
 business of creating and licensing software in the field of
 computational chemistry and represents and warrants to the
 licensee that it is not a competitor of Gaussian, Inc. and that
 it will not use this program in any manner prohibited above.
 ---------------------------------------------------------------
  

 Cite this work as:
 Gaussian 03, Revision B.05,
 M. J. Frisch, G. W. Trucks, H. B. Schlegel, G. E. Scuseria, 
 M. A. Robb, J. R. Cheeseman, J. A. Montgomery, Jr., T. Vreven, 
 K. N. Kudin, J. C. Burant, J. M. Millam, S. S. Iyengar, J. Tomasi, 
 V. Barone, B. Mennucci, M. Cossi, G. Scalmani, N. Rega, 
 G. A. Petersson, H. Nakatsuji, M. Hada, M. Ehara, K. Toyota, 
 R. Fukuda, J. Hasegawa, M. Ishida, T. Nakajima, Y. Honda, O. Kitao, 
 H. Nakai, M. Klene, X. Li, J. E. Knox, H. P. Hratchian, J. B. Cross, 
 C. Adamo, J. Jaramillo, R. Gomperts, R. E. Stratmann, O. Yazyev, 
 A. J. Austin, R. Cammi, C. Pomelli, J. W. Ochterski, P. Y. Ayala, 
 K. Morokuma, G. A. Voth, P. Salvador, J. J. Dannenberg, 
 V. G. Zakrzewski, S. Dapprich, A. D. Daniels, M. C. Strain, 
 O. Farkas, D. K. Malick, A. D. Rabuck, K. Raghavachari, 
 J. B. Foresman, J. V. Ortiz, Q. Cui, A. G. Baboul, S. Clifford, 
 J. Cioslowski, B. B. Stefanov, G. Liu, A. Liashenko, P. Piskorz, 
 I. Komaromi, R. L. Martin, D. J. Fox, T. Keith, M. A. Al-Laham, 
 C. Y. Peng, A. Nanayakkara, M. Challacombe, P. M. W. Gill, 
 B. Johnson, W. Chen, M. W. Wong, C. Gonzalez, and J. A. Pople, 
 Gaussian, Inc., Pittsburgh PA, 2003.
 
 **********************************************
 Gaussian 03:  x86-Win32-G03RevB.05  8-Nov-2003
                  13-Apr-2004 
 **********************************************
 %mem=56000000
 Default route:  MaxDisk=200GB
 ----------------------
 #PBEPBE/3-21G opt freq
 ----------------------
 1/14=-1,18=20,26=3,38=1/1,3;
 2/9=110,17=6,18=5,40=1/2;
 3/5=5,11=2,16=1,25=1,30=1,74=1009/1,2,3;
 4//1;
 5/5=2,38=5/2;
 6/7=2,8=2,9=2,10=2,28=1/1;
 7//1,2,3,16;
 1/14=-1,18=20/3(1);
 99//99;
 2/9=110/2;
 3/5=5,11=2,16=1,25=1,30=1,74=1009/1,2,3;
 4/5=5,16=3/1;
 5/5=2,38=5/2;
 7//1,2,3,16;
 1/14=-1,18=20/3(-5);
 2/9=110/2;
 6/7=2,8=2,9=2,10=2,19=2,28=1/1;
 99/9=1/99;
 Leave Link    1 at Tue Apr 13 00:22:56 2004, MaxMem=   56000000 cpu:       0.0
 (Enter C:\G03W\l101.exe)
 --------------------------------------
 1hpyraz casno=288131 method=61 basis=2
 --------------------------------------
 Symbolic Z-matrix:
 Charge =  0 Multiplicity = 1
 H                     2.11774   0.72615   0. 
 C                     1.12102   0.31959   0. 
 H                     1.28675  -1.87958   0. 
 C                     0.68026  -0.99169   0. 
 H                    -1.44398  -1.72584   0. 
 C                    -0.73721  -0.9135    0. 
 N                    -1.18297   0.35838   0. 
 H                    -0.06416   2.11725   0. 
 N                     0.        1.10957   0. 
 
                    Isotopes and Nuclear Properties:

  Atom         1           2           3           4           5           6           7           8           9
 IAtWgt=           1          12           1          12           1          12          14           1          14
 AtmWgt=   1.0078250  12.0000000   1.0078250  12.0000000   1.0078250  12.0000000  14.0030740   1.0078250  14.0030740
 IAtSpn=           1           0           1           0           1           0           2           1           2
 AtZEff=   0.0000000   0.0000000   0.0000000   0.0000000   0.0000000   0.0000000   0.0000000   0.0000000   0.0000000
 AtQMom=   0.0000000   0.0000000   0.0000000   0.0000000   0.0000000   0.0000000   1.5600000   0.0000000   1.5600000
 AtGFac=   2.7928460   0.0000000   2.7928460   0.0000000   2.7928460   0.0000000   0.4037610   2.7928460   0.4037610
 Leave Link  101 at Tue Apr 13 00:22:57 2004, MaxMem=   56000000 cpu:       0.0
 (Enter C:\G03W\l103.exe)

 GradGradGradGradGradGradGradGradGradGradGradGradGradGradGradGradGradGrad
 Berny optimization.
 Initialization pass.
                           ----------------------------
                           !    Initial Parameters    !
                           ! (Angstroms and Degrees)  !
 --------------------------                            --------------------------
 ! Name  Definition              Value          Derivative Info.                !
 --------------------------------------------------------------------------------
 ! R1    R(1,2)                  1.0764         estimate D2E/DX2                !
 ! R2    R(2,4)                  1.3834         estimate D2E/DX2                !
 ! R3    R(2,9)                  1.3714         estimate D2E/DX2                !
 ! R4    R(3,4)                  1.0753         estimate D2E/DX2                !
 ! R5    R(4,6)                  1.4196         estimate D2E/DX2                !
 ! R6    R(5,6)                  1.0768         estimate D2E/DX2                !
 ! R7    R(6,7)                  1.3477         estimate D2E/DX2                !
 ! R8    R(7,9)                  1.4013         estimate D2E/DX2                !
 ! R9    R(8,9)                  1.0097         estimate D2E/DX2                !
 ! A1    A(1,2,4)              130.7704         estimate D2E/DX2                !
 ! A2    A(1,2,9)              122.6367         estimate D2E/DX2                !
 ! A3    A(4,2,9)              106.5928         estimate D2E/DX2                !
 ! A4    A(2,4,3)              127.0845         estimate D2E/DX2                !
 ! A5    A(2,4,6)              105.4222         estimate D2E/DX2                !
 ! A6    A(3,4,6)              127.4933         estimate D2E/DX2                !
 ! A7    A(4,6,5)              127.8675         estimate D2E/DX2                !
 ! A8    A(4,6,7)              112.4718         estimate D2E/DX2                !
 ! A9    A(5,6,7)              119.6607         estimate D2E/DX2                !
 ! A10   A(6,7,9)              103.1013         estimate D2E/DX2                !
 ! A11   A(2,9,7)              112.4119         estimate D2E/DX2                !
 ! A12   A(2,9,8)              128.8153         estimate D2E/DX2                !
 ! A13   A(7,9,8)              118.7727         estimate D2E/DX2                !
 ! D1    D(1,2,4,3)              0.0            estimate D2E/DX2                !
 ! D2    D(1,2,4,6)            180.0            estimate D2E/DX2                !
 ! D3    D(9,2,4,3)            180.0            estimate D2E/DX2                !
 ! D4    D(9,2,4,6)              0.0            estimate D2E/DX2                !
 ! D5    D(1,2,9,7)            180.0            estimate D2E/DX2                !
 ! D6    D(1,2,9,8)              0.0            estimate D2E/DX2                !
 ! D7    D(4,2,9,7)              0.0            estimate D2E/DX2                !
 ! D8    D(4,2,9,8)            180.0            estimate D2E/DX2                !
 ! D9    D(2,4,6,5)            180.0            estimate D2E/DX2                !
 ! D10   D(2,4,6,7)              0.0            estimate D2E/DX2                !
 ! D11   D(3,4,6,5)              0.0            estimate D2E/DX2                !
 ! D12   D(3,4,6,7)            180.0            estimate D2E/DX2                !
 ! D13   D(4,6,7,9)              0.0            estimate D2E/DX2                !
 ! D14   D(5,6,7,9)            180.0            estimate D2E/DX2                !
 ! D15   D(6,7,9,2)              0.0            estimate D2E/DX2                !
 ! D16   D(6,7,9,8)            180.0            estimate D2E/DX2                !
 --------------------------------------------------------------------------------
 Trust Radius=3.00D-01 FncErr=1.00D-07 GrdErr=1.00D-06
 Number of steps in this run=  48 maximum allowed number of steps= 100.
 GradGradGradGradGradGradGradGradGradGradGradGradGradGradGradGradGradGrad

 Leave Link  103 at Tue Apr 13 00:22:58 2004, MaxMem=   56000000 cpu:       0.0
 (Enter C:\G03W\l202.exe)
                          Input orientation:                          
 ---------------------------------------------------------------------
 Center     Atomic     Atomic              Coordinates (Angstroms)
 Number     Number      Type              X           Y           Z
 ---------------------------------------------------------------------
    1          1             0        2.117735    0.726152    0.000000
    2          6             0        1.121024    0.319585    0.000000
    3          1             0        1.286754   -1.879582    0.000000
    4          6             0        0.680255   -0.991687    0.000000
    5          1             0       -1.443981   -1.725838    0.000000
    6          6             0       -0.737206   -0.913498    0.000000
    7          7             0       -1.182970    0.358376    0.000000
    8          1             0       -0.064158    2.117251    0.000000
    9          7             0        0.000000    1.109569    0.000000
 ---------------------------------------------------------------------
                    Distance matrix (angstroms):
                    1          2          3          4          5
     1  H    0.000000
     2  C    1.076443   0.000000
     3  H    2.735028   2.205403   0.000000
     4  C    2.239937   1.383370   1.075267   0.000000
     5  H    4.324127   3.280702   2.735060   2.247522   0.000000
     6  C    3.292285   2.230137   2.242706   1.419616   1.076767
     7  N    3.321131   2.304321   3.332866   2.300930   2.100494
     8  H    2.587627   2.153197   4.218962   3.196818   4.083288
     9  N    2.152164   1.371412   3.254345   2.208625   3.181920
                    6          7          8          9
     6  C    0.000000
     7  N    1.347727   0.000000
     8  H    3.104583   2.084558   0.000000
     9  N    2.153201   1.401324   1.009722   0.000000
 Stoichiometry    C3H4N2
 Framework group  CS[SG(C3H4N2)]
 Deg. of freedom    15
 Full point group                 CS      NOp   2
 Largest Abelian subgroup         CS      NOp   2
 Largest concise Abelian subgroup C1      NOp   1
                         Standard orientation:                         
 ---------------------------------------------------------------------
 Center     Atomic     Atomic              Coordinates (Angstroms)
 Number     Number      Type              X           Y           Z
 ---------------------------------------------------------------------
    1          1             0        2.117735    0.726152    0.000000
    2          6             0        1.121024    0.319585    0.000000
    3          1             0        1.286754   -1.879582    0.000000
    4          6             0        0.680255   -0.991687    0.000000
    5          1             0       -1.443981   -1.725838    0.000000
    6          6             0       -0.737206   -0.913498    0.000000
    7          7             0       -1.182970    0.358376    0.000000
    8          1             0       -0.064158    2.117251    0.000000
    9          7             0        0.000000    1.109569    0.000000
 ---------------------------------------------------------------------
 Rotational constants (GHZ):      9.4170300      9.1872884      4.6503703
 Leave Link  202 at Tue Apr 13 00:22:59 2004, MaxMem=   56000000 cpu:       0.0
 (Enter C:\G03W\l301.exe)
 Standard basis: 3-21G (6D, 7F)
 There are    43 symmetry adapted basis functions of A'  symmetry.
 There are    10 symmetry adapted basis functions of A"  symmetry.
 Integral buffers will be    262144 words long.
 Raffenetti 2 integral format.
 Two-electron integral symmetry is turned on.
    53 basis functions,    87 primitive gaussians,    53 cartesian basis functions
    18 alpha electrons       18 beta electrons
       nuclear repulsion energy       161.0108054172 Hartrees.
 IExCor=1009 DFT=T Ex=PBE Corr=PBE ExCW=0 ScaHFX=  0.000000
 ScaDFX=  1.000000  1.000000  1.000000  1.000000
 IRadAn=      0 IRanWt=     -1 IRanGd=            0 ICorTp=0
 NAtoms=    9 NActive=    9 NUniq=    9 SFac= 1.00D+00 NAtFMM=   60 Big=F
 Leave Link  301 at Tue Apr 13 00:23:00 2004, MaxMem=   56000000 cpu:       0.0
 (Enter C:\G03W\l302.exe)
 NPDir=0 NMtPBC=     1 NCelOv=     1 NCel=       1 NClECP=     1 NCelD=      1
         NCelK=      1 NCelE2=     1 NClLst=     1 CellRange=     0.0.
 One-electron integrals computed using PRISM.
 NBasis=    53 RedAO= T  NBF=    43    10
 NBsUse=    53 1.00D-06 NBFU=    43    10
 Precomputing XC quadrature grid using
 IXCGrd= 2 IRadAn=           0 IRanWt=          -1 IRanGd=           0.
 NRdTot=     552 NPtTot=       69836 NUsed=       72339 NTot=       72355
 NSgBfM=    53    53    53    53.
 Leave Link  302 at Tue Apr 13 00:23:02 2004, MaxMem=   56000000 cpu:       1.0
 (Enter C:\G03W\l303.exe)
 DipDrv:  MaxL=1.
 Leave Link  303 at Tue Apr 13 00:23:03 2004, MaxMem=   56000000 cpu:       0.0
 (Enter C:\G03W\l401.exe)
 Harris functional with IExCor= 1009 diagonalized for initial guess.
 ExpMin= 1.83D-01 ExpMax= 2.43D+02 ExpMxC= 2.43D+02 IAcc=1 IRadAn=         1 AccDes= 1.00D-06
 HarFok:  IExCor=1009 AccDes= 1.00D-06 IRadAn=         1 IDoV=1
 ScaDFX=  1.000000  1.000000  1.000000  1.000000
 Harris En= -224.777833091218    
 Initial guess orbital symmetries:
       Occupied  (A') (A') (A') (A') (A') (A') (A') (A') (A') (A')
                 (A') (A') (A') (A') (A") (A') (A") (A")
       Virtual   (A") (A") (A') (A') (A') (A') (A') (A') (A') (A')
                 (A') (A') (A') (A") (A') (A") (A") (A') (A') (A')
                 (A') (A') (A") (A') (A") (A') (A') (A') (A') (A')
                 (A') (A') (A') (A') (A')
 The electronic state of the initial guess is 1-A'.
 Leave Link  401 at Tue Apr 13 00:23:04 2004, MaxMem=   56000000 cpu:       0.0
 (Enter C:\G03W\l502.exe)
 Closed shell SCF:
 Requested convergence on RMS density matrix=1.00D-08 within 128 cycles.
 Requested convergence on MAX density matrix=1.00D-06.
 Requested convergence on             energy=1.00D-06.
 No special actions if energy rises.
 Using DIIS extrapolation, IDIIS=  1040.
 Integral symmetry usage will be decided dynamically.
        72338 words used for storage of precomputed grid.
 Keep R1 integrals in memory in canonical form, NReq=     1601052.
 IEnd=     99167 IEndB=     99167 NGot=  56000000 MDV=  54895726
 LenX=  54895726
 Symmetry not used in FoFDir.
 MinBra= 0 MaxBra= 1 Meth= 1.
 IRaf=       0 NMat=   1 IRICut=       1 DoRegI=T DoRafI=F ISym2E= 0 JSym2E=0.
 Integral accuracy reduced to 1.0D-05 until final iterations.

 Cycle   1  Pass 0  IDiag  1:
 E= -224.586346901536    
 DIIS: error= 3.03D-02 at cycle   1 NSaved=   1.
 NSaved= 1 IEnMin= 1 EnMin= -224.586346901536     IErMin= 1 ErrMin= 3.03D-02
 ErrMax= 3.03D-02 EMaxC= 1.00D-01 BMatC= 7.95D-02 BMatP= 7.95D-02
 IDIUse=3 WtCom= 6.97D-01 WtEn= 3.03D-01
 Coeff-Com:  0.100D+01
 Coeff-En:   0.100D+01
 Coeff:      0.100D+01
 Gap=     0.170 Goal=   None    Shift=    0.000
 GapD=    0.170 DampG=1.000 DampE=0.500 DampFc=0.5000 IDamp=-1.
 Damping current iteration by 5.00D-01
 RMSDP=1.62D-02 MaxDP=1.54D-01              OVMax= 2.63D-01

 Cycle   2  Pass 0  IDiag  1:
 E= -224.602114414283     Delta-E=       -0.015767512747 Rises=F Damp=T
 DIIS: error= 2.18D-02 at cycle   2 NSaved=   2.
 NSaved= 2 IEnMin= 2 EnMin= -224.602114414283     IErMin= 2 ErrMin= 2.18D-02
 ErrMax= 2.18D-02 EMaxC= 1.00D-01 BMatC= 1.70D-02 BMatP= 7.95D-02
 IDIUse=3 WtCom= 7.82D-01 WtEn= 2.18D-01
 Coeff-Com:  0.260D+00 0.740D+00
 Coeff-En:   0.414D+00 0.586D+00
 Coeff:      0.293D+00 0.707D+00
 Gap=     0.197 Goal=   None    Shift=    0.000
 RMSDP=5.76D-03 MaxDP=5.54D-02 DE=-1.58D-02 OVMax= 2.63D-01

 Cycle   3  Pass 0  IDiag  1:
 E= -224.654057262155     Delta-E=       -0.051942847872 Rises=F Damp=F
 DIIS: error= 1.93D-02 at cycle   3 NSaved=   3.
 NSaved= 3 IEnMin= 3 EnMin= -224.654057262155     IErMin= 3 ErrMin= 1.93D-02
 ErrMax= 1.93D-02 EMaxC= 1.00D-01 BMatC= 1.89D-02 BMatP= 1.70D-02
 IDIUse=2 WtCom= 0.00D+00 WtEn= 1.00D+00
 Coeff-En:   0.000D+00 0.000D+00 0.100D+01
 Coeff:      0.000D+00 0.000D+00 0.100D+01
 Gap=     0.182 Goal=   None    Shift=    0.000
 RMSDP=9.11D-03 MaxDP=8.08D-02 DE=-5.19D-02 OVMax= 2.01D-01

 Cycle   4  Pass 0  IDiag  1:
 E= -224.554575893565     Delta-E=        0.099481368590 Rises=F Damp=F
 DIIS: error= 5.90D-02 at cycle   4 NSaved=   4.
 NSaved= 4 IEnMin= 3 EnMin= -224.654057262155     IErMin= 3 ErrMin= 1.93D-02
 ErrMax= 5.90D-02 EMaxC= 1.00D-01 BMatC= 1.16D-01 BMatP= 1.70D-02
 IDIUse=2 WtCom= 0.00D+00 WtEn= 1.00D+00
 Coeff-En:   0.000D+00 0.000D+00 0.804D+00 0.196D+00
 Coeff:      0.000D+00 0.000D+00 0.804D+00 0.196D+00
 Gap=     0.197 Goal=   None    Shift=    0.000
 RMSDP=4.75D-03 MaxDP=4.36D-02 DE= 9.95D-02 OVMax= 1.29D-01

 Cycle   5  Pass 0  IDiag  1:
 E= -224.664399092073     Delta-E=       -0.109823198508 Rises=F Damp=F
 DIIS: error= 1.48D-02 at cycle   5 NSaved=   5.
 NSaved= 5 IEnMin= 5 EnMin= -224.664399092073     IErMin= 5 ErrMin= 1.48D-02
 ErrMax= 1.48D-02 EMaxC= 1.00D-01 BMatC= 8.76D-03 BMatP= 1.70D-02
 IDIUse=3 WtCom= 8.52D-01 WtEn= 1.48D-01
 Coeff-Com:  0.383D-02 0.459D-01 0.348D+00-0.569D-01 0.659D+00
 Coeff-En:   0.000D+00 0.000D+00 0.360D+00 0.000D+00 0.640D+00
 Coeff:      0.326D-02 0.391D-01 0.350D+00-0.484D-01 0.656D+00
 Gap=     0.203 Goal=   None    Shift=    0.000
 RMSDP=1.93D-03 MaxDP=1.87D-02 DE=-1.10D-01 OVMax= 4.26D-02

 Cycle   6  Pass 0  IDiag  1:
 E= -224.673208061404     Delta-E=       -0.008808969331 Rises=F Damp=F
 DIIS: error= 1.33D-03 at cycle   6 NSaved=   6.
 NSaved= 6 IEnMin= 6 EnMin= -224.673208061404     IErMin= 6 ErrMin= 1.33D-03
 ErrMax= 1.33D-03 EMaxC= 1.00D-01 BMatC= 6.17D-05 BMatP= 8.76D-03
 IDIUse=3 WtCom= 9.87D-01 WtEn= 1.33D-02
 Coeff-Com: -0.495D-02 0.434D-01 0.184D+00-0.637D-01 0.456D+00 0.386D+00
 Coeff-En:   0.000D+00 0.000D+00 0.000D+00 0.000D+00 0.000D+00 0.100D+01
 Coeff:     -0.488D-02 0.428D-01 0.181D+00-0.629D-01 0.450D+00 0.394D+00
 Gap=     0.203 Goal=   None    Shift=    0.000
 RMSDP=1.70D-04 MaxDP=1.94D-03 DE=-8.81D-03 OVMax= 4.36D-03

 Cycle   7  Pass 0  IDiag  1:
 E= -224.673264325684     Delta-E=       -0.000056264281 Rises=F Damp=F
 DIIS: error= 2.61D-04 at cycle   7 NSaved=   7.
 NSaved= 7 IEnMin= 7 EnMin= -224.673264325684     IErMin= 7 ErrMin= 2.61D-04
 ErrMax= 2.61D-04 EMaxC= 1.00D-01 BMatC= 2.85D-06 BMatP= 6.17D-05
 IDIUse=3 WtCom= 9.97D-01 WtEn= 2.61D-03
 Coeff-Com: -0.322D-02 0.227D-01 0.835D-01-0.346D-01 0.224D+00 0.253D+00
 Coeff-Com:  0.455D+00
 Coeff-En:   0.000D+00 0.000D+00 0.000D+00 0.000D+00 0.000D+00 0.542D-02
 Coeff-En:   0.995D+00
 Coeff:     -0.321D-02 0.226D-01 0.832D-01-0.345D-01 0.224D+00 0.252D+00
 Coeff:      0.456D+00
 Gap=     0.203 Goal=   None    Shift=    0.000
 RMSDP=3.91D-05 MaxDP=4.08D-04 DE=-5.63D-05 OVMax= 7.53D-04

 Cycle   8  Pass 0  IDiag  1:
 E= -224.673267179186     Delta-E=       -0.000002853501 Rises=F Damp=F
 DIIS: error= 6.95D-05 at cycle   8 NSaved=   8.
 NSaved= 8 IEnMin= 8 EnMin= -224.673267179186     IErMin= 8 ErrMin= 6.95D-05
 ErrMax= 6.95D-05 EMaxC= 1.00D-01 BMatC= 1.57D-07 BMatP= 2.85D-06
 IDIUse=1 WtCom= 1.00D+00 WtEn= 0.00D+00
 Coeff-Com: -0.989D-04 0.311D-03 0.681D-02-0.234D-02 0.178D-01 0.468D-01
 Coeff-Com:  0.200D+00 0.730D+00
 Coeff:     -0.989D-04 0.311D-03 0.681D-02-0.234D-02 0.178D-01 0.468D-01
 Coeff:      0.200D+00 0.730D+00
 Gap=     0.203 Goal=   None    Shift=    0.000
 RMSDP=7.27D-06 MaxDP=1.11D-04 DE=-2.85D-06 OVMax= 1.53D-04

 Initial convergence to 1.0D-05 achieved.  Increase integral accuracy.
 Cycle   9  Pass 1  IDiag  1:
 E= -224.673293490152     Delta-E=       -0.000026310966 Rises=F Damp=F
 DIIS: error= 1.37D-05 at cycle   1 NSaved=   1.
 NSaved= 1 IEnMin= 1 EnMin= -224.673293490152     IErMin= 1 ErrMin= 1.37D-05
 ErrMax= 1.37D-05 EMaxC= 1.00D-01 BMatC= 1.22D-08 BMatP= 1.22D-08
 IDIUse=1 WtCom= 1.00D+00 WtEn= 0.00D+00
 Coeff-Com:  0.100D+01
 Coeff:      0.100D+01
 Gap=     0.203 Goal=   None    Shift=    0.000
 RMSDP=7.27D-06 MaxDP=1.11D-04 DE=-2.63D-05 OVMax= 1.23D-04

 Cycle  10  Pass 1  IDiag  1:
 E= -224.673293465828     Delta-E=        0.000000024324 Rises=F Damp=F
 DIIS: error= 3.22D-05 at cycle   2 NSaved=   2.
 NSaved= 2 IEnMin= 1 EnMin= -224.673293490152     IErMin= 1 ErrMin= 1.37D-05
 ErrMax= 3.22D-05 EMaxC= 1.00D-01 BMatC= 3.83D-08 BMatP= 1.22D-08
 IDIUse=1 WtCom= 1.00D+00 WtEn= 0.00D+00
 Coeff-Com:  0.663D+00 0.337D+00
 Coeff:      0.663D+00 0.337D+00
 Gap=     0.203 Goal=   None    Shift=    0.000
 RMSDP=4.62D-06 MaxDP=4.71D-05 DE= 2.43D-08 OVMax= 9.90D-05

 Cycle  11  Pass 1  IDiag  1:
 E= -224.673293502762     Delta-E=       -0.000000036934 Rises=F Damp=F
 DIIS: error= 1.07D-05 at cycle   3 NSaved=   3.
 NSaved= 3 IEnMin= 3 EnMin= -224.673293502762     IErMin= 3 ErrMin= 1.07D-05
 ErrMax= 1.07D-05 EMaxC= 1.00D-01 BMatC= 2.48D-09 BMatP= 1.22D-08
 IDIUse=1 WtCom= 1.00D+00 WtEn= 0.00D+00
 Coeff-Com:  0.119D+00 0.200D+00 0.681D+00
 Coeff:      0.119D+00 0.200D+00 0.681D+00
 Gap=     0.203 Goal=   None    Shift=    0.000
 RMSDP=1.40D-06 MaxDP=1.23D-05 DE=-3.69D-08 OVMax= 3.64D-05

 Cycle  12  Pass 1  IDiag  1:
 E= -224.673293503858     Delta-E=       -0.000000001095 Rises=F Damp=F
 DIIS: error= 6.59D-06 at cycle   4 NSaved=   4.
 NSaved= 4 IEnMin= 4 EnMin= -224.673293503858     IErMin= 4 ErrMin= 6.59D-06
 ErrMax= 6.59D-06 EMaxC= 1.00D-01 BMatC= 1.40D-09 BMatP= 2.48D-09
 IDIUse=1 WtCom= 1.00D+00 WtEn= 0.00D+00
 Coeff-Com:  0.342D-02 0.105D+00 0.512D+00 0.379D+00
 Coeff:      0.342D-02 0.105D+00 0.512D+00 0.379D+00
 Gap=     0.203 Goal=   None    Shift=    0.000
 RMSDP=6.89D-07 MaxDP=8.19D-06 DE=-1.10D-09 OVMax= 1.69D-05

 Cycle  13  Pass 1  IDiag  1:
 E= -224.673293505254     Delta-E=       -0.000000001396 Rises=F Damp=F
 DIIS: error= 5.65D-07 at cycle   5 NSaved=   5.
 NSaved= 5 IEnMin= 5 EnMin= -224.673293505254     IErMin= 5 ErrMin= 5.65D-07
 ErrMax= 5.65D-07 EMaxC= 1.00D-01 BMatC= 1.39D-11 BMatP= 1.40D-09
 IDIUse=1 WtCom= 1.00D+00 WtEn= 0.00D+00
 Coeff-Com: -0.749D-03 0.603D-01 0.297D+00 0.228D+00 0.415D+00
 Coeff:     -0.749D-03 0.603D-01 0.297D+00 0.228D+00 0.415D+00
 Gap=     0.203 Goal=   None    Shift=    0.000
 RMSDP=9.80D-08 MaxDP=9.96D-07 DE=-1.40D-09 OVMax= 2.70D-06

 Cycle  14  Pass 1  IDiag  1:
 E= -224.673293505265     Delta-E=       -0.000000000011 Rises=F Damp=F
 DIIS: error= 3.43D-07 at cycle   6 NSaved=   6.
 NSaved= 6 IEnMin= 6 EnMin= -224.673293505265     IErMin= 6 ErrMin= 3.43D-07
 ErrMax= 3.43D-07 EMaxC= 1.00D-01 BMatC= 3.12D-12 BMatP= 1.39D-11
 IDIUse=1 WtCom= 1.00D+00 WtEn= 0.00D+00
 Coeff-Com: -0.898D-03 0.231D-01 0.115D+00 0.920D-01 0.317D+00 0.454D+00
 Coeff:     -0.898D-03 0.231D-01 0.115D+00 0.920D-01 0.317D+00 0.454D+00
 Gap=     0.203 Goal=   None    Shift=    0.000
 RMSDP=3.70D-08 MaxDP=3.99D-07 DE=-1.13D-11 OVMax= 7.73D-07

 Cycle  15  Pass 1  IDiag  1:
 E= -224.673293505268     Delta-E=       -0.000000000003 Rises=F Damp=F
 DIIS: error= 2.71D-08 at cycle   7 NSaved=   7.
 NSaved= 7 IEnMin= 7 EnMin= -224.673293505268     IErMin= 7 ErrMin= 2.71D-08
 ErrMax= 2.71D-08 EMaxC= 1.00D-01 BMatC= 5.31D-14 BMatP= 3.12D-12
 IDIUse=1 WtCom= 1.00D+00 WtEn= 0.00D+00
 Coeff-Com: -0.352D-03 0.757D-02 0.383D-01 0.297D-01 0.124D+00 0.202D+00
 Coeff-Com:  0.599D+00
 Coeff:     -0.352D-03 0.757D-02 0.383D-01 0.297D-01 0.124D+00 0.202D+00
 Coeff:      0.599D+00
 Gap=     0.203 Goal=   None    Shift=    0.000
 RMSDP=5.48D-09 MaxDP=5.39D-08 DE=-2.79D-12 OVMax= 7.00D-08

 SCF Done:  E(RPBE-PBE) =  -224.673293505     A.U. after   15 cycles
             Convg  =    0.5484D-08             -V/T =  2.0082
             S**2   =   0.0000
 KE= 2.228484725077D+02 PE=-8.446634645316D+02 EE= 2.361308931015D+02
 Leave Link  502 at Tue Apr 13 00:23:15 2004, MaxMem=   56000000 cpu:      10.0
 (Enter C:\G03W\l601.exe)
 Copying SCF densities to generalized density rwf, ISCF=0 IROHF=0.

 **********************************************************************

            Population analysis using the SCF density.

 **********************************************************************

 Orbital symmetries:
       Occupied  (A') (A') (A') (A') (A') (A') (A') (A') (A') (A')
                 (A') (A') (A') (A") (A') (A") (A') (A")
       Virtual   (A") (A") (A') (A') (A') (A') (A') (A') (A') (A')
                 (A') (A') (A") (A') (A') (A") (A') (A") (A') (A')
                 (A') (A') (A") (A') (A") (A') (A') (A') (A') (A')
                 (A') (A') (A') (A') (A')
 The electronic state is 1-A'.
 Alpha  occ. eigenvalues --  -13.99673 -13.93395  -9.87452  -9.85013  -9.83042
 Alpha  occ. eigenvalues --   -0.95389  -0.74825  -0.70364  -0.55392  -0.53400
 Alpha  occ. eigenvalues --   -0.49114  -0.39882  -0.37941  -0.37707  -0.35576
 Alpha  occ. eigenvalues --   -0.22378  -0.22227  -0.21049
 Alpha virt. eigenvalues --   -0.00728   0.04722   0.07183   0.11518   0.14633
 Alpha virt. eigenvalues --    0.16200   0.18429   0.21222   0.28989   0.38919
 Alpha virt. eigenvalues --    0.42001   0.63836   0.67926   0.68919   0.70175
 Alpha virt. eigenvalues --    0.73431   0.77611   0.77937   0.87851   0.90170
 Alpha virt. eigenvalues --    0.95326   0.96934   1.02452   1.10395   1.13661
 Alpha virt. eigenvalues --    1.16280   1.19759   1.26181   1.33711   1.36379
 Alpha virt. eigenvalues --    1.55560   1.75795   1.76562   2.45242   2.65722
          Condensed to atoms (all electrons):
              1          2          3          4          5          6
     1  H    0.462980   0.367106  -0.000730  -0.027011  -0.000028   0.005248
     2  C    0.367106   5.113673  -0.036759   0.480805   0.003587  -0.133684
     3  H   -0.000730  -0.036759   0.484079   0.379020  -0.000853  -0.020820
     4  C   -0.027011   0.480805   0.379020   5.308140  -0.045026   0.367689
     5  H   -0.000028   0.003587  -0.000853  -0.045026   0.472799   0.388331
     6  C    0.005248  -0.133684  -0.020820   0.367689   0.388331   5.099630
     7  N    0.001903  -0.111724   0.003142  -0.056118  -0.040618   0.394680
     8  H   -0.000366  -0.029208  -0.000055   0.004308  -0.000076   0.005395
     9  N   -0.033372   0.231175   0.003614  -0.065883   0.004006  -0.154079
              7          8          9
     1  H    0.001903  -0.000366  -0.033372
     2  C   -0.111724  -0.029208   0.231175
     3  H    0.003142  -0.000055   0.003614
     4  C   -0.056118   0.004308  -0.065883
     5  H   -0.040618  -0.000076   0.004006
     6  C    0.394680   0.005395  -0.154079
     7  N    6.871414  -0.024983   0.254825
     8  H   -0.024983   0.365817   0.332203
     9  N    0.254825   0.332203   6.930179
 Mulliken atomic charges:
              1
     1  H    0.224269
     2  C    0.115028
     3  H    0.189361
     4  C   -0.345923
     5  H    0.217879
     6  C    0.047611
     7  N   -0.292523
     8  H    0.346965
     9  N   -0.502667
 Sum of Mulliken charges=   0.00000
 Atomic charges with hydrogens summed into heavy atoms:
              1
     1  H    0.000000
     2  C    0.339298
     3  H    0.000000
     4  C   -0.156562
     5  H    0.000000
     6  C    0.265489
     7  N   -0.292523
     8  H    0.000000
     9  N   -0.155702
 Sum of Mulliken charges=   0.00000
 Electronic spatial extent (au):  <R**2>=   290.6486
 Charge=     0.0000 electrons
 Dipole moment (field-independent basis, Debye):
    X=     2.0586    Y=     0.9985    Z=     0.0000  Tot=     2.2879
 Quadrupole moment (field-independent basis, Debye-Ang):
   XX=   -29.3107   YY=   -21.4868   ZZ=   -31.9521
   XY=     2.4580   XZ=     0.0000   YZ=     0.0000
 Traceless Quadrupole moment (field-independent basis, Debye-Ang):
   XX=    -1.7275   YY=     6.0964   ZZ=    -4.3689
   XY=     2.4580   XZ=     0.0000   YZ=     0.0000
 Octapole moment (field-independent basis, Debye-Ang**2):
  XXX=     8.9331  YYY=    12.7504  ZZZ=     0.0000  XYY=    -0.0611
  XXY=    -2.1983  XXZ=     0.0000  XZZ=    -1.3917  YZZ=     2.5034
  YYZ=     0.0000  XYZ=     0.0000
 Hexadecapole moment (field-independent basis, Debye-Ang**3):
 XXXX=  -170.6625 YYYY=  -127.4502 ZZZZ=   -30.0934 XXXY=     9.5543
 XXXZ=     0.0000 YYYX=    -2.0896 YYYZ=     0.0000 ZZZX=     0.0000
 ZZZY=     0.0000 XXYY=   -49.9850 XXZZ=   -37.1357 YYZZ=   -36.0667
 XXYZ=     0.0000 YYXZ=     0.0000 ZZXY=    -0.4940
 N-N= 1.610108054172D+02 E-N=-8.446634619389D+02  KE= 2.228484725077D+02
 Symmetry A'   KE= 2.146813190930D+02
 Symmetry A"   KE= 8.167153414665D+00
 No NMR shielding tensors so no spin-rotation constants.
 Leave Link  601 at Tue Apr 13 00:23:16 2004, MaxMem=   56000000 cpu:       0.0
 (Enter C:\G03W\l701.exe)
 Compute integral first derivatives.
 ... and contract with generalized density number  0.
 Leave Link  701 at Tue Apr 13 00:23:17 2004, MaxMem=   56000000 cpu:       0.0
 (Enter C:\G03W\l702.exe)
 L702 exits ... SP integral derivatives will be done elsewhere.
 Leave Link  702 at Tue Apr 13 00:23:18 2004, MaxMem=   56000000 cpu:       0.0
 (Enter C:\G03W\l703.exe)
 Compute integral first derivatives, UseDBF=F.
 Integral derivatives from FoFDir, PRISM(SPDF).
 Calling FoFCou, ICntrl=  2527 FMM=F ISym2X=1 I1Cent= 0 ISCF1= 0.
 FoFCou: FMM=F IPFlag=           0 FMFlag=           0 FMFlg1=           0
 NFxFlg=           0 DoJE=F BraDBF=F KetDBF=F FulRan=T.
 Petite list used in FoFCou.
 Leave Link  703 at Tue Apr 13 00:23:22 2004, MaxMem=   56000000 cpu:       3.0
 (Enter C:\G03W\l716.exe)
 Dipole        = 8.09900535D-01 3.92840981D-01 0.00000000D+00
 ***** Axes restored to original set *****
 -------------------------------------------------------------------
 Center     Atomic                   Forces (Hartrees/Bohr)
 Number     Number              X              Y              Z
 -------------------------------------------------------------------
    1          1           0.005951341    0.002106861    0.000000000
    2          6           0.003456664    0.003996110    0.000000000
    3          1           0.003774266   -0.005058264    0.000000000
    4          6          -0.000869702   -0.005636249    0.000000000
    5          1          -0.004114944   -0.004614095    0.000000000
    6          6           0.003839155   -0.005546002    0.000000000
    7          7          -0.010969920    0.010094026    0.000000000
    8          1          -0.000626567    0.007242189    0.000000000
    9          7          -0.000440293   -0.002584575    0.000000000
 -------------------------------------------------------------------
 Cartesian Forces:  Max     0.010969920 RMS     0.004328175
 Leave Link  716 at Tue Apr 13 00:23:23 2004, MaxMem=   56000000 cpu:       0.0
 (Enter C:\G03W\l103.exe)

 GradGradGradGradGradGradGradGradGradGradGradGradGradGradGradGradGradGrad
 Berny optimization.
 Internal  Forces:  Max     0.012627801 RMS     0.003812458
 Search for a local minimum.
 Step number   1 out of a maximum of  48
 All quantities printed in internal units (Hartrees-Bohrs-Radians)
 Second derivative matrix not updated -- first step.
     Eigenvalues ---    0.01766   0.01899   0.01973   0.02091   0.02120
     Eigenvalues ---    0.02214   0.16000   0.16000   0.16000   0.16000
     Eigenvalues ---    0.22000   0.22895   0.36388   0.36428   0.36572
     Eigenvalues ---    0.39020   0.43489   0.46019   0.46081   0.48745
     Eigenvalues ---    0.539531000.000001000.000001000.000001000.00000
     Eigenvalues --- 1000.000001000.000001000.000001000.000001000.00000
     Eigenvalues --- 1000.000001000.000001000.000001000.000001000.00000
     Eigenvalues --- 1000.000001000.000001000.00000
 RFO step:  Lambda=-1.21359002D-03.
 Linear search not attempted -- first point.
 Iteration  1 RMS(Cart)=  0.01076357 RMS(Int)=  0.00001433
 Iteration  2 RMS(Cart)=  0.00001631 RMS(Int)=  0.00000143
 Iteration  3 RMS(Cart)=  0.00000000 RMS(Int)=  0.00000143
 Variable       Old X    -DE/DX   Delta X   Delta X   Delta X     New X
                                 (Linear)    (Quad)   (Total)
    R1        2.03418   0.00631   0.00000   0.01725   0.01725   2.05144
    R2        2.61419   0.00975   0.00000   0.01998   0.01997   2.63416
    R3        2.59159   0.00732   0.00000   0.01404   0.01404   2.60563
    R4        2.03196   0.00631   0.00000   0.01719   0.01719   2.04915
    R5        2.68269   0.00572   0.00000   0.01379   0.01379   2.69648
    R6        2.03479   0.00618   0.00000   0.01693   0.01693   2.05173
    R7        2.54684   0.01263   0.00000   0.02295   0.02296   2.56979
    R8        2.64812   0.00546   0.00000   0.01183   0.01183   2.65995
    R9        1.90810   0.00727   0.00000   0.01575   0.01575   1.92385
    A1        2.28237  -0.00024   0.00000  -0.00101  -0.00101   2.28137
    A2        2.14041   0.00035   0.00000   0.00264   0.00264   2.14305
    A3        1.86040  -0.00011   0.00000  -0.00163  -0.00163   1.85877
    A4        2.21804   0.00011   0.00000  -0.00011  -0.00011   2.21794
    A5        1.83996  -0.00076   0.00000  -0.00320  -0.00320   1.83676
    A6        2.22518   0.00066   0.00000   0.00331   0.00331   2.22849
    A7        2.23171  -0.00038   0.00000  -0.00209  -0.00209   2.22962
    A8        1.96300   0.00090   0.00000   0.00503   0.00503   1.96803
    A9        2.08847  -0.00052   0.00000  -0.00294  -0.00294   2.08554
   A10        1.79946  -0.00186   0.00000  -0.00729  -0.00729   1.79217
   A11        1.96196   0.00184   0.00000   0.00709   0.00710   1.96905
   A12        2.24825  -0.00075   0.00000  -0.00252  -0.00252   2.24573
   A13        2.07298  -0.00108   0.00000  -0.00457  -0.00457   2.06840
    D1        0.00000   0.00000   0.00000   0.00000   0.00000   0.00000
    D2        3.14159   0.00000   0.00000   0.00000   0.00000   3.14159
    D3        3.14159   0.00000   0.00000   0.00000   0.00000   3.14159
    D4        0.00000   0.00000   0.00000   0.00000   0.00000   0.00000
    D5        3.14159   0.00000   0.00000   0.00000   0.00000   3.14159
    D6        0.00000   0.00000   0.00000   0.00000   0.00000   0.00000
    D7        0.00000   0.00000   0.00000   0.00000   0.00000   0.00000
    D8        3.14159   0.00000   0.00000   0.00000   0.00000   3.14159
    D9        3.14159   0.00000   0.00000   0.00000   0.00000   3.14159
   D10        0.00000   0.00000   0.00000   0.00000   0.00000   0.00000
   D11        0.00000   0.00000   0.00000   0.00000   0.00000   0.00000
   D12        3.14159   0.00000   0.00000   0.00000   0.00000   3.14159
   D13        0.00000   0.00000   0.00000   0.00000   0.00000   0.00000
   D14        3.14159   0.00000   0.00000   0.00000   0.00000   3.14159
   D15        0.00000   0.00000   0.00000   0.00000   0.00000   0.00000
   D16        3.14159   0.00000   0.00000   0.00000   0.00000   3.14159
         Item               Value     Threshold  Converged?
 Maximum Force            0.012628     0.000450     NO 
 RMS     Force            0.003812     0.000300     NO 
 Maximum Displacement     0.026844     0.001800     NO 
 RMS     Displacement     0.010759     0.001200     NO 
 Predicted change in Energy=-6.084866D-04
 GradGradGradGradGradGradGradGradGradGradGradGradGradGradGradGradGradGrad

 Leave Link  103 at Tue Apr 13 00:23:24 2004, MaxMem=   56000000 cpu:       0.0
 (Enter C:\G03W\l202.exe)
                          Input orientation:                          
 ---------------------------------------------------------------------
 Center     Atomic     Atomic              Coordinates (Angstroms)
 Number     Number      Type              X           Y           Z
 ---------------------------------------------------------------------
    1          1             0        2.131715    0.732441    0.000000
    2          6             0        1.126429    0.322722    0.000000
    3          1             0        1.295599   -1.893787    0.000000
    4          6             0        0.683235   -0.998885    0.000000
    5          1             0       -1.454299   -1.735560    0.000000
    6          6             0       -0.741314   -0.916745    0.000000
    7          7             0       -1.194352    0.365448    0.000000
    8          1             0       -0.067034    2.130353    0.000000
    9          7             0       -0.002527    1.114342    0.000000
 ---------------------------------------------------------------------
                    Distance matrix (angstroms):
                    1          2          3          4          5
     1  H    0.000000
     2  C    1.085573   0.000000
     3  H    2.756114   2.222956   0.000000
     4  C    2.257340   1.393940   1.084361   0.000000
     5  H    4.353220   3.301013   2.754446   2.260916   0.000000
     6  C    3.312720   2.241594   2.259120   1.426915   1.085728
     7  N    3.346252   2.321174   3.362142   2.320934   2.117028
     8  H    2.605505   2.166075   4.248585   3.217924   4.107285
     9  N    2.168141   1.378841   3.276274   2.221711   3.198372
                    6          7          8          9
     6  C    0.000000
     7  N    1.359876   0.000000
     8  H    3.120810   2.094214   0.000000
     9  N    2.161278   1.407583   1.018057   0.000000
 Stoichiometry    C3H4N2
 Framework group  CS[SG(C3H4N2)]
 Deg. of freedom    15
 Full point group                 CS      NOp   2
 Largest Abelian subgroup         CS      NOp   2
 Largest concise Abelian subgroup C1      NOp   1
                         Standard orientation:                         
 ---------------------------------------------------------------------
 Center     Atomic     Atomic              Coordinates (Angstroms)
 Number     Number      Type              X           Y           Z
 ---------------------------------------------------------------------
    1          1             0        2.133966    0.729944    0.000000
    2          6             0        1.128385    0.320950    0.000000
    3          1             0        1.295957   -1.895681    0.000000
    4          6             0        0.684238   -1.000338    0.000000
    5          1             0       -1.453826   -1.735472    0.000000
    6          6             0       -0.740251   -0.917171    0.000000
    7          7             0       -1.192365    0.365348    0.000000
    8          1             0       -0.063776    2.129440    0.000000
    9          7             0        0.000000    1.113383    0.000000
 ---------------------------------------------------------------------
 Rotational constants (GHZ):      9.3137976      9.0561418      4.5915814
 Leave Link  202 at Tue Apr 13 00:23:25 2004, MaxMem=   56000000 cpu:       0.0
 (Enter C:\G03W\l301.exe)
 Standard basis: 3-21G (6D, 7F)
 There are    43 symmetry adapted basis functions of A'  symmetry.
 There are    10 symmetry adapted basis functions of A"  symmetry.
 Integral buffers will be    262144 words long.
 Raffenetti 2 integral format.
 Two-electron integral symmetry is turned on.
    53 basis functions,    87 primitive gaussians,    53 cartesian basis functions
    18 alpha electrons       18 beta electrons
       nuclear repulsion energy       159.9756242073 Hartrees.
 IExCor=1009 DFT=T Ex=PBE Corr=PBE ExCW=0 ScaHFX=  0.000000
 ScaDFX=  1.000000  1.000000  1.000000  1.000000
 IRadAn=      0 IRanWt=     -1 IRanGd=            0 ICorTp=0
 NAtoms=    9 NActive=    9 NUniq=    9 SFac= 1.00D+00 NAtFMM=   60 Big=F
 Leave Link  301 at Tue Apr 13 00:23:27 2004, MaxMem=   56000000 cpu:       1.0
 (Enter C:\G03W\l302.exe)
 NPDir=0 NMtPBC=     1 NCelOv=     1 NCel=       1 NClECP=     1 NCelD=      1
         NCelK=      1 NCelE2=     1 NClLst=     1 CellRange=     0.0.
 One-electron integrals computed using PRISM.
 NBasis=    53 RedAO= T  NBF=    43    10
 NBsUse=    53 1.00D-06 NBFU=    43    10
 Precomputing XC quadrature grid using
 IXCGrd= 2 IRadAn=           0 IRanWt=          -1 IRanGd=           0.
 NRdTot=     552 NPtTot=       69836 NUsed=       72339 NTot=       72355
 NSgBfM=    53    53    53    53.
 Leave Link  302 at Tue Apr 13 00:23:28 2004, MaxMem=   56000000 cpu:       0.0
 (Enter C:\G03W\l303.exe)
 DipDrv:  MaxL=1.
 Leave Link  303 at Tue Apr 13 00:23:29 2004, MaxMem=   56000000 cpu:       0.0
 (Enter C:\G03W\l401.exe)
 Initial guess read from the read-write file:
 Guess basis will be translated and rotated to current coordinates.
 Initial guess orbital symmetries:
       Occupied  (A') (A') (A') (A') (A') (A') (A') (A') (A') (A')
                 (A') (A') (A') (A") (A') (A") (A') (A")
       Virtual   (A") (A") (A') (A') (A') (A') (A') (A') (A') (A')
                 (A') (A') (A") (A') (A') (A") (A') (A") (A') (A')
                 (A') (A') (A") (A') (A") (A') (A') (A') (A') (A')
                 (A') (A') (A') (A') (A')
 The electronic state of the initial guess is 1-A'.
 Generating alternative initial guess.
 Harris functional with IExCor= 1009 diagonalized for initial guess.
 ExpMin= 1.83D-01 ExpMax= 2.43D+02 ExpMxC= 2.43D+02 IAcc=1 IRadAn=         1 AccDes= 1.00D-06
 HarFok:  IExCor=1009 AccDes= 1.00D-06 IRadAn=         1 IDoV=1
 ScaDFX=  1.000000  1.000000  1.000000  1.000000
 Harris En= -224.773749830759    
 Leave Link  401 at Tue Apr 13 00:23:30 2004, MaxMem=   56000000 cpu:       0.0
 (Enter C:\G03W\l502.exe)
 Closed shell SCF:
 Requested convergence on RMS density matrix=1.00D-08 within 128 cycles.
 Requested convergence on MAX density matrix=1.00D-06.
 Requested convergence on             energy=1.00D-06.
 No special actions if energy rises.
 Using DIIS extrapolation, IDIIS=  1040.
 Integral symmetry usage will be decided dynamically.
        72338 words used for storage of precomputed grid.
 Keep R1 integrals in memory in canonical form, NReq=     1601052.
 IEnd=     99167 IEndB=     99167 NGot=  56000000 MDV=  54895726
 LenX=  54895726
 Symmetry not used in FoFDir.
 MinBra= 0 MaxBra= 1 Meth= 1.
 IRaf=       0 NMat=   1 IRICut=       1 DoRegI=T DoRafI=F ISym2E= 0 JSym2E=0.
 Integral accuracy reduced to 1.0D-05 until final iterations.

 Cycle   1  Pass 0  IDiag  1:
 E= -224.673686027835    
 DIIS: error= 1.60D-03 at cycle   1 NSaved=   1.
 NSaved= 1 IEnMin= 1 EnMin= -224.673686027835     IErMin= 1 ErrMin= 1.60D-03
 ErrMax= 1.60D-03 EMaxC= 1.00D-01 BMatC= 2.14D-04 BMatP= 2.14D-04
 IDIUse=3 WtCom= 9.84D-01 WtEn= 1.60D-02
 Coeff-Com:  0.100D+01
 Coeff-En:   0.100D+01
 Coeff:      0.100D+01
 Gap=     0.200 Goal=   None    Shift=    0.000
 GapD=    0.200 DampG=1.000 DampE=1.000 DampFc=1.0000 IDamp=-1.
 RMSDP=5.95D-04 MaxDP=4.40D-03              OVMax= 5.20D-03

 Cycle   2  Pass 0  IDiag  1:
 E= -224.673828209665     Delta-E=       -0.000142181830 Rises=F Damp=F
 DIIS: error= 9.43D-04 at cycle   2 NSaved=   2.
 NSaved= 2 IEnMin= 2 EnMin= -224.673828209665     IErMin= 2 ErrMin= 9.43D-04
 ErrMax= 9.43D-04 EMaxC= 1.00D-01 BMatC= 6.40D-05 BMatP= 2.14D-04
 IDIUse=3 WtCom= 9.91D-01 WtEn= 9.43D-03
 Coeff-Com:  0.311D+00 0.689D+00
 Coeff-En:   0.000D+00 0.100D+01
 Coeff:      0.308D+00 0.692D+00
 Gap=     0.200 Goal=   None    Shift=    0.000
 RMSDP=2.69D-04 MaxDP=2.21D-03 DE=-1.42D-04 OVMax= 4.15D-03

 Cycle   3  Pass 0  IDiag  1:
 E= -224.673850961279     Delta-E=       -0.000022751614 Rises=F Damp=F
 DIIS: error= 1.09D-03 at cycle   3 NSaved=   3.
 NSaved= 3 IEnMin= 3 EnMin= -224.673850961279     IErMin= 2 ErrMin= 9.43D-04
 ErrMax= 1.09D-03 EMaxC= 1.00D-01 BMatC= 4.37D-05 BMatP= 6.40D-05
 IDIUse=3 WtCom= 9.89D-01 WtEn= 1.09D-02
 Coeff-Com:  0.867D-01 0.446D+00 0.467D+00
 Coeff-En:   0.000D+00 0.399D+00 0.601D+00
 Coeff:      0.858D-01 0.446D+00 0.469D+00
 Gap=     0.200 Goal=   None    Shift=    0.000
 RMSDP=1.66D-04 MaxDP=1.62D-03 DE=-2.28D-05 OVMax= 4.33D-03

 Cycle   4  Pass 0  IDiag  1:
 E= -224.673878199747     Delta-E=       -0.000027238469 Rises=F Damp=F
 DIIS: error= 7.77D-04 at cycle   4 NSaved=   4.
 NSaved= 4 IEnMin= 4 EnMin= -224.673878199747     IErMin= 4 ErrMin= 7.77D-04
 ErrMax= 7.77D-04 EMaxC= 1.00D-01 BMatC= 1.38D-05 BMatP= 4.37D-05
 IDIUse=3 WtCom= 9.92D-01 WtEn= 7.77D-03
 Coeff-Com:  0.136D-01 0.230D+00 0.366D+00 0.391D+00
 Coeff-En:   0.000D+00 0.000D+00 0.278D+00 0.722D+00
 Coeff:      0.135D-01 0.228D+00 0.365D+00 0.393D+00
 Gap=     0.200 Goal=   None    Shift=    0.000
 RMSDP=7.60D-05 MaxDP=8.28D-04 DE=-2.72D-05 OVMax= 2.08D-03

 Cycle   5  Pass 0  IDiag  1:
 E= -224.673891203787     Delta-E=       -0.000013004039 Rises=F Damp=F
 DIIS: error= 1.13D-04 at cycle   5 NSaved=   5.
 NSaved= 5 IEnMin= 5 EnMin= -224.673891203787     IErMin= 5 ErrMin= 1.13D-04
 ErrMax= 1.13D-04 EMaxC= 1.00D-01 BMatC= 2.74D-07 BMatP= 1.38D-05
 IDIUse=3 WtCom= 9.99D-01 WtEn= 1.13D-03
 Coeff-Com:  0.479D-02 0.112D+00 0.188D+00 0.234D+00 0.462D+00
 Coeff-En:   0.000D+00 0.000D+00 0.000D+00 0.000D+00 0.100D+01
 Coeff:      0.479D-02 0.111D+00 0.187D+00 0.234D+00 0.462D+00
 Gap=     0.200 Goal=   None    Shift=    0.000
 RMSDP=1.35D-05 MaxDP=1.28D-04 DE=-1.30D-05 OVMax= 3.25D-04

 Cycle   6  Pass 0  IDiag  1:
 E= -224.673891441284     Delta-E=       -0.000000237498 Rises=F Damp=F
 DIIS: error= 4.41D-05 at cycle   6 NSaved=   6.
 NSaved= 6 IEnMin= 6 EnMin= -224.673891441284     IErMin= 6 ErrMin= 4.41D-05
 ErrMax= 4.41D-05 EMaxC= 1.00D-01 BMatC= 6.59D-08 BMatP= 2.74D-07
 IDIUse=1 WtCom= 1.00D+00 WtEn= 0.00D+00
 Coeff-Com:  0.473D-03 0.297D-01 0.549D-01 0.867D-01 0.347D+00 0.481D+00
 Coeff:      0.473D-03 0.297D-01 0.549D-01 0.867D-01 0.347D+00 0.481D+00
 Gap=     0.200 Goal=   None    Shift=    0.000
 RMSDP=4.98D-06 MaxDP=5.37D-05 DE=-2.37D-07 OVMax= 1.38D-04

 Initial convergence to 1.0D-05 achieved.  Increase integral accuracy.
 Cycle   7  Pass 1  IDiag  1:
 E= -224.673916230001     Delta-E=       -0.000024788717 Rises=F Damp=F
 DIIS: error= 1.29D-05 at cycle   1 NSaved=   1.
 NSaved= 1 IEnMin= 1 EnMin= -224.673916230001     IErMin= 1 ErrMin= 1.29D-05
 ErrMax= 1.29D-05 EMaxC= 1.00D-01 BMatC= 1.09D-08 BMatP= 1.09D-08
 IDIUse=1 WtCom= 1.00D+00 WtEn= 0.00D+00
 Coeff-Com:  0.100D+01
 Coeff:      0.100D+01
 Gap=     0.200 Goal=   None    Shift=    0.000
 RMSDP=4.98D-06 MaxDP=5.37D-05 DE=-2.48D-05 OVMax= 1.05D-04

 Cycle   8  Pass 1  IDiag  1:
 E= -224.673916213087     Delta-E=        0.000000016914 Rises=F Damp=F
 DIIS: error= 2.98D-05 at cycle   2 NSaved=   2.
 NSaved= 2 IEnMin= 1 EnMin= -224.673916230001     IErMin= 1 ErrMin= 1.29D-05
 ErrMax= 2.98D-05 EMaxC= 1.00D-01 BMatC= 2.66D-08 BMatP= 1.09D-08
 IDIUse=1 WtCom= 1.00D+00 WtEn= 0.00D+00
 Coeff-Com:  0.631D+00 0.369D+00
 Coeff:      0.631D+00 0.369D+00
 Gap=     0.200 Goal=   None    Shift=    0.000
 RMSDP=4.44D-06 MaxDP=3.83D-05 DE= 1.69D-08 OVMax= 1.08D-04

 Cycle   9  Pass 1  IDiag  1:
 E= -224.673916239754     Delta-E=       -0.000000026668 Rises=F Damp=F
 DIIS: error= 1.10D-05 at cycle   3 NSaved=   3.
 NSaved= 3 IEnMin= 3 EnMin= -224.673916239754     IErMin= 3 ErrMin= 1.10D-05
 ErrMax= 1.10D-05 EMaxC= 1.00D-01 BMatC= 3.06D-09 BMatP= 1.09D-08
 IDIUse=1 WtCom= 1.00D+00 WtEn= 0.00D+00
 Coeff-Com:  0.662D-01 0.251D+00 0.682D+00
 Coeff:      0.662D-01 0.251D+00 0.682D+00
 Gap=     0.200 Goal=   None    Shift=    0.000
 RMSDP=1.22D-06 MaxDP=1.49D-05 DE=-2.67D-08 OVMax= 2.82D-05

 Cycle  10  Pass 1  IDiag  1:
 E= -224.673916242368     Delta-E=       -0.000000002614 Rises=F Damp=F
 DIIS: error= 3.52D-06 at cycle   4 NSaved=   4.
 NSaved= 4 IEnMin= 4 EnMin= -224.673916242368     IErMin= 4 ErrMin= 3.52D-06
 ErrMax= 3.52D-06 EMaxC= 1.00D-01 BMatC= 6.86D-10 BMatP= 3.06D-09
 IDIUse=1 WtCom= 1.00D+00 WtEn= 0.00D+00
 Coeff-Com: -0.128D-02 0.155D+00 0.484D+00 0.363D+00
 Coeff:     -0.128D-02 0.155D+00 0.484D+00 0.363D+00
 Gap=     0.200 Goal=   None    Shift=    0.000
 RMSDP=3.97D-07 MaxDP=4.63D-06 DE=-2.61D-09 OVMax= 8.62D-06

 Cycle  11  Pass 1  IDiag  1:
 E= -224.673916242982     Delta-E=       -0.000000000614 Rises=F Damp=F
 DIIS: error= 2.77D-07 at cycle   5 NSaved=   5.
 NSaved= 5 IEnMin= 5 EnMin= -224.673916242982     IErMin= 5 ErrMin= 2.77D-07
 ErrMax= 2.77D-07 EMaxC= 1.00D-01 BMatC= 2.24D-12 BMatP= 6.86D-10
 IDIUse=1 WtCom= 1.00D+00 WtEn= 0.00D+00
 Coeff-Com: -0.922D-03 0.699D-01 0.219D+00 0.172D+00 0.540D+00
 Coeff:     -0.922D-03 0.699D-01 0.219D+00 0.172D+00 0.540D+00
 Gap=     0.200 Goal=   None    Shift=    0.000
 RMSDP=5.24D-08 MaxDP=4.92D-07 DE=-6.14D-10 OVMax= 1.12D-06

 Cycle  12  Pass 1  IDiag  1:
 E= -224.673916242983     Delta-E=       -0.000000000001 Rises=F Damp=F
 DIIS: error= 2.79D-07 at cycle   6 NSaved=   6.
 NSaved= 6 IEnMin= 6 EnMin= -224.673916242983     IErMin= 5 ErrMin= 2.77D-07
 ErrMax= 2.79D-07 EMaxC= 1.00D-01 BMatC= 1.41D-12 BMatP= 2.24D-12
 IDIUse=1 WtCom= 1.00D+00 WtEn= 0.00D+00
 Coeff-Com: -0.817D-03 0.322D-01 0.101D+00 0.828D-01 0.390D+00 0.394D+00
 Coeff:     -0.817D-03 0.322D-01 0.101D+00 0.828D-01 0.390D+00 0.394D+00
 Gap=     0.200 Goal=   None    Shift=    0.000
 RMSDP=2.71D-08 MaxDP=3.18D-07 DE=-9.09D-13 OVMax= 7.14D-07

 Cycle  13  Pass 1  IDiag  1:
 E= -224.673916242984     Delta-E=       -0.000000000001 Rises=F Damp=F
 DIIS: error= 9.70D-08 at cycle   7 NSaved=   7.
 NSaved= 7 IEnMin= 7 EnMin= -224.673916242984     IErMin= 7 ErrMin= 9.70D-08
 ErrMax= 9.70D-08 EMaxC= 1.00D-01 BMatC= 1.82D-13 BMatP= 1.41D-12
 IDIUse=1 WtCom= 1.00D+00 WtEn= 0.00D+00
 Coeff-Com: -0.302D-03 0.990D-02 0.312D-01 0.269D-01 0.166D+00 0.290D+00
 Coeff-Com:  0.476D+00
 Coeff:     -0.302D-03 0.990D-02 0.312D-01 0.269D-01 0.166D+00 0.290D+00
 Coeff:      0.476D+00
 Gap=     0.200 Goal=   None    Shift=    0.000
 RMSDP=8.88D-09 MaxDP=9.83D-08 DE=-1.08D-12 OVMax= 1.95D-07

 SCF Done:  E(RPBE-PBE) =  -224.673916243     A.U. after   13 cycles
             Convg  =    0.8884D-08             -V/T =  2.0089
             S**2   =   0.0000
 KE= 2.226928646074D+02 PE=-8.424911598002D+02 EE= 2.351487547425D+02
 Leave Link  502 at Tue Apr 13 00:23:40 2004, MaxMem=   56000000 cpu:       8.0
 (Enter C:\G03W\l701.exe)
 Compute integral first derivatives.
 ... and contract with generalized density number  0.
 Leave Link  701 at Tue Apr 13 00:23:41 2004, MaxMem=   56000000 cpu:       0.0
 (Enter C:\G03W\l702.exe)
 L702 exits ... SP integral derivatives will be done elsewhere.
 Leave Link  702 at Tue Apr 13 00:23:43 2004, MaxMem=   56000000 cpu:       0.0
 (Enter C:\G03W\l703.exe)
 Compute integral first derivatives, UseDBF=F.
 Integral derivatives from FoFDir, PRISM(SPDF).
 Calling FoFCou, ICntrl=  2527 FMM=F ISym2X=1 I1Cent= 0 ISCF1= 0.
 FoFCou: FMM=F IPFlag=           0 FMFlag=           0 FMFlg1=           0
 NFxFlg=           0 DoJE=F BraDBF=F KetDBF=F FulRan=T.
 Petite list used in FoFCou.
 Leave Link  703 at Tue Apr 13 00:23:46 2004, MaxMem=   56000000 cpu:       2.0
 (Enter C:\G03W\l716.exe)
 Dipole        = 8.14145257D-01 3.89570267D-01 0.00000000D+00
 ***** Axes restored to original set *****
 -------------------------------------------------------------------
 Center     Atomic                   Forces (Hartrees/Bohr)
 Number     Number              X              Y              Z
 -------------------------------------------------------------------
    1          1          -0.000176616   -0.000005054    0.000000000
    2          6           0.000210207    0.000951606    0.000000000
    3          1          -0.000031283    0.000274772    0.000000000
    4          6          -0.001955215   -0.000126276    0.000000000
    5          1          -0.000101693    0.000213819    0.000000000
    6          6           0.002457430   -0.002708638    0.000000000
    7          7          -0.002075805    0.001722510    0.000000000
    8          1           0.000070513    0.000300277    0.000000000
    9          7           0.001602462   -0.000623016    0.000000000
 -------------------------------------------------------------------
 Cartesian Forces:  Max     0.002708638 RMS     0.001030195
 Leave Link  716 at Tue Apr 13 00:23:47 2004, MaxMem=   56000000 cpu:       0.0
 (Enter C:\G03W\l103.exe)

 GradGradGradGradGradGradGradGradGradGradGradGradGradGradGradGradGradGrad
 Berny optimization.
 Internal  Forces:  Max     0.002185171 RMS     0.000521716
 Search for a local minimum.
 Step number   2 out of a maximum of  48
 All quantities printed in internal units (Hartrees-Bohrs-Radians)
 Update second derivatives using D2CorX and points  1  2
 Trust test= 1.02D+00 RLast= 5.27D-02 DXMaxT set to 3.00D-01
     Eigenvalues ---    0.01767   0.01899   0.01973   0.02091   0.02119
     Eigenvalues ---    0.02214   0.15971   0.16000   0.16000   0.16015
     Eigenvalues ---    0.21929   0.22810   0.36270   0.36427   0.36618
     Eigenvalues ---    0.39902   0.42692   0.45257   0.46533   0.49689
     Eigenvalues ---    0.519861000.000001000.000001000.000001000.00000
     Eigenvalues --- 1000.000001000.000001000.000001000.000001000.00000
     Eigenvalues --- 1000.000001000.000001000.000001000.000001000.00000
     Eigenvalues --- 1000.000001000.000001000.00000
 RFO step:  Lambda=-2.34687454D-05.
 Quartic linear search produced a step of  0.03775.
 Iteration  1 RMS(Cart)=  0.00111376 RMS(Int)=  0.00000098
 Iteration  2 RMS(Cart)=  0.00000116 RMS(Int)=  0.00000016
 Iteration  3 RMS(Cart)=  0.00000000 RMS(Int)=  0.00000016
 Variable       Old X    -DE/DX   Delta X   Delta X   Delta X     New X
                                 (Linear)    (Quad)   (Total)
    R1        2.05144  -0.00017   0.00065  -0.00077  -0.00012   2.05132
    R2        2.63416   0.00054   0.00075   0.00055   0.00131   2.63547
    R3        2.60563  -0.00079   0.00053  -0.00197  -0.00144   2.60419
    R4        2.04915  -0.00024   0.00065  -0.00099  -0.00034   2.04881
    R5        2.69648  -0.00142   0.00052  -0.00374  -0.00322   2.69326
    R6        2.05173  -0.00009   0.00064  -0.00056   0.00008   2.05181
    R7        2.56979   0.00219   0.00087   0.00388   0.00475   2.57454
    R8        2.65995   0.00108   0.00045   0.00243   0.00287   2.66282
    R9        1.92385   0.00029   0.00059   0.00039   0.00098   1.92483
    A1        2.28137   0.00008  -0.00004   0.00098   0.00094   2.28230
    A2        2.14305  -0.00006   0.00010  -0.00001   0.00009   2.14314
    A3        1.85877  -0.00002  -0.00006  -0.00097  -0.00103   1.85774
    A4        2.21794  -0.00044   0.00000  -0.00196  -0.00197   2.21597
    A5        1.83676   0.00060  -0.00012   0.00216   0.00203   1.83879
    A6        2.22849  -0.00016   0.00013  -0.00019  -0.00007   2.22842
    A7        2.22962   0.00029  -0.00008   0.00164   0.00156   2.23118
    A8        1.96803  -0.00016   0.00019  -0.00053  -0.00034   1.96769
    A9        2.08554  -0.00013  -0.00011  -0.00112  -0.00123   2.08431
   A10        1.79217  -0.00068  -0.00028  -0.00172  -0.00200   1.79017
   A11        1.96905   0.00026   0.00027   0.00106   0.00133   1.97038
   A12        2.24573  -0.00021  -0.00010  -0.00105  -0.00115   2.24458
   A13        2.06840  -0.00005  -0.00017  -0.00001  -0.00018   2.06822
    D1        0.00000   0.00000   0.00000   0.00000   0.00000   0.00000
    D2        3.14159   0.00000   0.00000   0.00000   0.00000   3.14159
    D3        3.14159   0.00000   0.00000   0.00000   0.00000   3.14159
    D4        0.00000   0.00000   0.00000   0.00000   0.00000   0.00000
    D5        3.14159   0.00000   0.00000   0.00000   0.00000   3.14159
    D6        0.00000   0.00000   0.00000   0.00000   0.00000   0.00000
    D7        0.00000   0.00000   0.00000   0.00000   0.00000   0.00000
    D8        3.14159   0.00000   0.00000   0.00000   0.00000   3.14159
    D9        3.14159   0.00000   0.00000   0.00000   0.00000   3.14159
   D10        0.00000   0.00000   0.00000   0.00000   0.00000   0.00000
   D11        0.00000   0.00000   0.00000   0.00000   0.00000   0.00000
   D12        3.14159   0.00000   0.00000   0.00000   0.00000   3.14159
   D13        0.00000   0.00000   0.00000   0.00000   0.00000   0.00000
   D14        3.14159   0.00000   0.00000   0.00000   0.00000   3.14159
   D15        0.00000   0.00000   0.00000   0.00000   0.00000   0.00000
   D16        3.14159   0.00000   0.00000   0.00000   0.00000   3.14159
         Item               Value     Threshold  Converged?
 Maximum Force            0.002185     0.000450     NO 
 RMS     Force            0.000522     0.000300     NO 
 Maximum Displacement     0.003163     0.001800     NO 
 RMS     Displacement     0.001113     0.001200     YES
 Predicted change in Energy=-1.250602D-05
 GradGradGradGradGradGradGradGradGradGradGradGradGradGradGradGradGradGrad

 Leave Link  103 at Tue Apr 13 00:23:48 2004, MaxMem=   56000000 cpu:       0.0
 (Enter C:\G03W\l202.exe)
                          Input orientation:                          
 ---------------------------------------------------------------------
 Center     Atomic     Atomic              Coordinates (Angstroms)
 Number     Number      Type              X           Y           Z
 ---------------------------------------------------------------------
    1          1             0        2.131812    0.732918    0.000000
    2          6             0        1.126605    0.323169    0.000000
    3          1             0        1.295251   -1.892792    0.000000
    4          6             0        0.682021   -0.998701    0.000000
    5          1             0       -1.454274   -1.736845    0.000000
    6          6             0       -0.740922   -0.918294    0.000000
    7          7             0       -1.195840    0.365899    0.000000
    8          1             0       -0.065361    2.130784    0.000000
    9          7             0       -0.001840    1.114189    0.000000
 ---------------------------------------------------------------------
                    Distance matrix (angstroms):
                    1          2          3          4          5
     1  H    0.000000
     2  C    1.085511   0.000000
     3  H    2.755755   2.222369   0.000000
     4  C    2.258405   1.394630   1.084181   0.000000
     5  H    4.354278   3.302211   2.753944   2.260225   0.000000
     6  C    3.313472   2.242518   2.257353   1.425213   1.085770
     7  N    3.347830   2.322838   3.362620   2.321313   2.118566
     8  H    2.604150   2.165238   4.247402   3.217492   4.109457
     9  N    2.167449   1.378079   3.274810   2.220804   3.199682
                    6          7          8          9
     6  C    0.000000
     7  N    1.362388   0.000000
     8  H    3.123021   2.095901   0.000000
     9  N    2.162691   1.409104   1.018577   0.000000
 Stoichiometry    C3H4N2
 Framework group  CS[SG(C3H4N2)]
 Deg. of freedom    15
 Full point group                 CS      NOp   2
 Largest Abelian subgroup         CS      NOp   2
 Largest concise Abelian subgroup C1      NOp   1
                         Standard orientation:                         
 ---------------------------------------------------------------------
 Center     Atomic     Atomic              Coordinates (Angstroms)
 Number     Number      Type              X           Y           Z
 ---------------------------------------------------------------------
    1          1             0        2.133688    0.732242    0.000000
    2          6             0        1.128521    0.322396    0.000000
    3          1             0        1.297381   -1.893548    0.000000
    4          6             0        0.684065   -0.999516    0.000000
    5          1             0       -1.452159   -1.737867    0.000000
    6          6             0       -0.738886   -0.919247    0.000000
    7          7             0       -1.193928    0.364902    0.000000
    8          1             0       -0.063619    2.129897    0.000000
    9          7             0        0.000000    1.113308    0.000000
 ---------------------------------------------------------------------
 Rotational constants (GHZ):      9.3053319      9.0540521      4.5889862
 Leave Link  202 at Tue Apr 13 00:23:49 2004, MaxMem=   56000000 cpu:       0.0
 (Enter C:\G03W\l301.exe)
 Standard basis: 3-21G (6D, 7F)
 There are    43 symmetry adapted basis functions of A'  symmetry.
 There are    10 symmetry adapted basis functions of A"  symmetry.
 Integral buffers will be    262144 words long.
 Raffenetti 2 integral format.
 Two-electron integral symmetry is turned on.
    53 basis functions,    87 primitive gaussians,    53 cartesian basis functions
    18 alpha electrons       18 beta electrons
       nuclear repulsion energy       159.9257655386 Hartrees.
 IExCor=1009 DFT=T Ex=PBE Corr=PBE ExCW=0 ScaHFX=  0.000000
 ScaDFX=  1.000000  1.000000  1.000000  1.000000
 IRadAn=      0 IRanWt=     -1 IRanGd=            0 ICorTp=0
 NAtoms=    9 NActive=    9 NUniq=    9 SFac= 1.00D+00 NAtFMM=   60 Big=F
 Leave Link  301 at Tue Apr 13 00:23:50 2004, MaxMem=   56000000 cpu:       0.0
 (Enter C:\G03W\l302.exe)
 NPDir=0 NMtPBC=     1 NCelOv=     1 NCel=       1 NClECP=     1 NCelD=      1
         NCelK=      1 NCelE2=     1 NClLst=     1 CellRange=     0.0.
 One-electron integrals computed using PRISM.
 NBasis=    53 RedAO= T  NBF=    43    10
 NBsUse=    53 1.00D-06 NBFU=    43    10
 Precomputing XC quadrature grid using
 IXCGrd= 2 IRadAn=           0 IRanWt=          -1 IRanGd=           0.
 NRdTot=     552 NPtTot=       69836 NUsed=       72339 NTot=       72355
 NSgBfM=    53    53    53    53.
 Leave Link  302 at Tue Apr 13 00:23:52 2004, MaxMem=   56000000 cpu:       0.0
 (Enter C:\G03W\l303.exe)
 DipDrv:  MaxL=1.
 Leave Link  303 at Tue Apr 13 00:23:53 2004, MaxMem=   56000000 cpu:       0.0
 (Enter C:\G03W\l401.exe)
 Initial guess read from the read-write file:
 Guess basis will be translated and rotated to current coordinates.
 Initial guess orbital symmetries:
       Occupied  (A') (A') (A') (A') (A') (A') (A') (A') (A') (A')
                 (A') (A') (A') (A") (A') (A') (A") (A")
       Virtual   (A") (A") (A') (A') (A') (A') (A') (A') (A') (A')
                 (A') (A') (A") (A') (A') (A") (A') (A") (A') (A')
                 (A') (A') (A") (A') (A") (A') (A') (A') (A') (A')
                 (A') (A') (A') (A') (A')
 The electronic state of the initial guess is 1-A'.
 Leave Link  401 at Tue Apr 13 00:23:54 2004, MaxMem=   56000000 cpu:       0.0
 (Enter C:\G03W\l502.exe)
 Closed shell SCF:
 Requested convergence on RMS density matrix=1.00D-08 within 128 cycles.
 Requested convergence on MAX density matrix=1.00D-06.
 Requested convergence on             energy=1.00D-06.
 No special actions if energy rises.
 Using DIIS extrapolation, IDIIS=  1040.
 Integral symmetry usage will be decided dynamically.
        72338 words used for storage of precomputed grid.
 Keep R1 integrals in memory in canonical form, NReq=     1601052.
 IEnd=     99167 IEndB=     99167 NGot=  56000000 MDV=  54895726
 LenX=  54895726
 Symmetry not used in FoFDir.
 MinBra= 0 MaxBra= 1 Meth= 1.
 IRaf=       0 NMat=   1 IRICut=       1 DoRegI=T DoRafI=F ISym2E= 0 JSym2E=0.

 Cycle   1  Pass 1  IDiag  1:
 E= -224.673924026702    
 DIIS: error= 2.57D-04 at cycle   1 NSaved=   1.
 NSaved= 1 IEnMin= 1 EnMin= -224.673924026702     IErMin= 1 ErrMin= 2.57D-04
 ErrMax= 2.57D-04 EMaxC= 1.00D-01 BMatC= 7.03D-06 BMatP= 7.03D-06
 IDIUse=3 WtCom= 9.97D-01 WtEn= 2.57D-03
 Coeff-Com:  0.100D+01
 Coeff-En:   0.100D+01
 Coeff:      0.100D+01
 Gap=     0.199 Goal=   None    Shift=    0.000
 RMSDP=1.10D-04 MaxDP=1.16D-03              OVMax= 1.48D-03

 Cycle   2  Pass 1  IDiag  1:
 E= -224.673929919120     Delta-E=       -0.000005892419 Rises=F Damp=F
 DIIS: error= 3.76D-04 at cycle   2 NSaved=   2.
 NSaved= 2 IEnMin= 2 EnMin= -224.673929919120     IErMin= 1 ErrMin= 2.57D-04
 ErrMax= 3.76D-04 EMaxC= 1.00D-01 BMatC= 3.14D-06 BMatP= 7.03D-06
 IDIUse=3 WtCom= 9.96D-01 WtEn= 3.76D-03
 Coeff-Com:  0.354D+00 0.646D+00
 Coeff-En:   0.000D+00 0.100D+01
 Coeff:      0.352D+00 0.648D+00
 Gap=     0.199 Goal=   None    Shift=    0.000
 RMSDP=7.92D-05 MaxDP=8.53D-04 DE=-5.89D-06 OVMax= 1.74D-03

 Cycle   3  Pass 1  IDiag  1:
 E= -224.673925945446     Delta-E=        0.000003973674 Rises=F Damp=F
 DIIS: error= 6.18D-04 at cycle   3 NSaved=   3.
 NSaved= 3 IEnMin= 2 EnMin= -224.673929919120     IErMin= 1 ErrMin= 2.57D-04
 ErrMax= 6.18D-04 EMaxC= 1.00D-01 BMatC= 6.75D-06 BMatP= 3.14D-06
 IDIUse=3 WtCom= 2.87D-01 WtEn= 7.13D-01
 Coeff-Com:  0.210D-01 0.587D+00 0.392D+00
 Coeff-En:   0.000D+00 0.643D+00 0.357D+00
 Coeff:      0.603D-02 0.627D+00 0.367D+00
 Gap=     0.199 Goal=   None    Shift=    0.000
 RMSDP=4.50D-05 MaxDP=4.82D-04 DE= 3.97D-06 OVMax= 1.06D-03

 Cycle   4  Pass 1  IDiag  1:
 E= -224.673932738713     Delta-E=       -0.000006793267 Rises=F Damp=F
 DIIS: error= 4.37D-05 at cycle   4 NSaved=   4.
 NSaved= 4 IEnMin= 4 EnMin= -224.673932738713     IErMin= 4 ErrMin= 4.37D-05
 ErrMax= 4.37D-05 EMaxC= 1.00D-01 BMatC= 1.01D-07 BMatP= 3.14D-06
 IDIUse=1 WtCom= 1.00D+00 WtEn= 0.00D+00
 Coeff-Com:  0.620D-02 0.329D+00 0.171D+00 0.494D+00
 Coeff:      0.620D-02 0.329D+00 0.171D+00 0.494D+00
 Gap=     0.199 Goal=   None    Shift=    0.000
 RMSDP=7.48D-06 MaxDP=7.54D-05 DE=-6.79D-06 OVMax= 1.69D-04

 Cycle   5  Pass 1  IDiag  1:
 E= -224.673932825855     Delta-E=       -0.000000087142 Rises=F Damp=F
 DIIS: error= 1.62D-05 at cycle   5 NSaved=   5.
 NSaved= 5 IEnMin= 5 EnMin= -224.673932825855     IErMin= 5 ErrMin= 1.62D-05
 ErrMax= 1.62D-05 EMaxC= 1.00D-01 BMatC= 8.15D-09 BMatP= 1.01D-07
 IDIUse=1 WtCom= 1.00D+00 WtEn= 0.00D+00
 Coeff-Com:  0.124D-02 0.139D+00 0.709D-01 0.316D+00 0.473D+00
 Coeff:      0.124D-02 0.139D+00 0.709D-01 0.316D+00 0.473D+00
 Gap=     0.199 Goal=   None    Shift=    0.000
 RMSDP=2.29D-06 MaxDP=2.87D-05 DE=-8.71D-08 OVMax= 5.49D-05

 Cycle   6  Pass 1  IDiag  1:
 E= -224.673932834497     Delta-E=       -0.000000008642 Rises=F Damp=F
 DIIS: error= 4.72D-06 at cycle   6 NSaved=   6.
 NSaved= 6 IEnMin= 6 EnMin= -224.673932834497     IErMin= 6 ErrMin= 4.72D-06
 ErrMax= 4.72D-06 EMaxC= 1.00D-01 BMatC= 8.06D-10 BMatP= 8.15D-09
 IDIUse=1 WtCom= 1.00D+00 WtEn= 0.00D+00
 Coeff-Com:  0.499D-03 0.604D-01 0.320D-01 0.164D+00 0.321D+00 0.422D+00
 Coeff:      0.499D-03 0.604D-01 0.320D-01 0.164D+00 0.321D+00 0.422D+00
 Gap=     0.199 Goal=   None    Shift=    0.000
 RMSDP=6.64D-07 MaxDP=5.74D-06 DE=-8.64D-09 OVMax= 1.71D-05

 Cycle   7  Pass 1  IDiag  1:
 E= -224.673932835287     Delta-E=       -0.000000000790 Rises=F Damp=F
 DIIS: error= 1.76D-06 at cycle   7 NSaved=   7.
 NSaved= 7 IEnMin= 7 EnMin= -224.673932835287     IErMin= 7 ErrMin= 1.76D-06
 ErrMax= 1.76D-06 EMaxC= 1.00D-01 BMatC= 9.65D-11 BMatP= 8.06D-10
 IDIUse=1 WtCom= 1.00D+00 WtEn= 0.00D+00
 Coeff-Com:  0.115D-03 0.233D-01 0.130D-01 0.715D-01 0.164D+00 0.288D+00
 Coeff-Com:  0.441D+00
 Coeff:      0.115D-03 0.233D-01 0.130D-01 0.715D-01 0.164D+00 0.288D+00
 Coeff:      0.441D+00
 Gap=     0.199 Goal=   None    Shift=    0.000
 RMSDP=1.85D-07 MaxDP=2.49D-06 DE=-7.90D-10 OVMax= 4.06D-06

 Cycle   8  Pass 1  IDiag  1:
 E= -224.673932835369     Delta-E=       -0.000000000082 Rises=F Damp=F
 DIIS: error= 2.36D-07 at cycle   8 NSaved=   8.
 NSaved= 8 IEnMin= 8 EnMin= -224.673932835369     IErMin= 8 ErrMin= 2.36D-07
 ErrMax= 2.36D-07 EMaxC= 1.00D-01 BMatC= 2.38D-12 BMatP= 9.65D-11
 IDIUse=1 WtCom= 1.00D+00 WtEn= 0.00D+00
 Coeff-Com:  0.692D-05 0.418D-02 0.232D-02 0.140D-01 0.365D-01 0.735D-01
 Coeff-Com:  0.189D+00 0.680D+00
 Coeff:      0.692D-05 0.418D-02 0.232D-02 0.140D-01 0.365D-01 0.735D-01
 Coeff:      0.189D+00 0.680D+00
 Gap=     0.199 Goal=   None    Shift=    0.000
 RMSDP=4.66D-08 MaxDP=5.05D-07 DE=-8.20D-11 OVMax= 8.22D-07

 Cycle   9  Pass 1  IDiag  1:
 E= -224.673932835373     Delta-E=       -0.000000000004 Rises=F Damp=F
 DIIS: error= 6.62D-08 at cycle   9 NSaved=   9.
 NSaved= 9 IEnMin= 9 EnMin= -224.673932835373     IErMin= 9 ErrMin= 6.62D-08
 ErrMax= 6.62D-08 EMaxC= 1.00D-01 BMatC= 1.64D-13 BMatP= 2.38D-12
 IDIUse=1 WtCom= 1.00D+00 WtEn= 0.00D+00
 Coeff-Com:  0.368D-05 0.205D-02 0.113D-02 0.708D-02 0.187D-01 0.387D-01
 Coeff-Com:  0.102D+00 0.400D+00 0.430D+00
 Coeff:      0.368D-05 0.205D-02 0.113D-02 0.708D-02 0.187D-01 0.387D-01
 Coeff:      0.102D+00 0.400D+00 0.430D+00
 Gap=     0.199 Goal=   None    Shift=    0.000
 RMSDP=9.51D-09 MaxDP=9.01D-08 DE=-4.21D-12 OVMax= 2.37D-07

 SCF Done:  E(RPBE-PBE) =  -224.673932835     A.U. after    9 cycles
             Convg  =    0.9510D-08             -V/T =  2.0089
             S**2   =   0.0000
 KE= 2.226876386607D+02 PE=-8.423897737339D+02 EE= 2.351024366992D+02
 Leave Link  502 at Tue Apr 13 00:24:03 2004, MaxMem=   56000000 cpu:       8.0
 (Enter C:\G03W\l701.exe)
 Compute integral first derivatives.
 ... and contract with generalized density number  0.
 Leave Link  701 at Tue Apr 13 00:24:05 2004, MaxMem=   56000000 cpu:       1.0
 (Enter C:\G03W\l702.exe)
 L702 exits ... SP integral derivatives will be done elsewhere.
 Leave Link  702 at Tue Apr 13 00:24:06 2004, MaxMem=   56000000 cpu:       0.0
 (Enter C:\G03W\l703.exe)
 Compute integral first derivatives, UseDBF=F.
 Integral derivatives from FoFDir, PRISM(SPDF).
 Calling FoFCou, ICntrl=  2527 FMM=F ISym2X=1 I1Cent= 0 ISCF1= 0.
 FoFCou: FMM=F IPFlag=           0 FMFlag=           0 FMFlg1=           0
 NFxFlg=           0 DoJE=F BraDBF=F KetDBF=F FulRan=T.
 Petite list used in FoFCou.
 Leave Link  703 at Tue Apr 13 00:24:09 2004, MaxMem=   56000000 cpu:       2.0
 (Enter C:\G03W\l716.exe)
 Dipole        = 8.15797535D-01 3.90354358D-01 0.00000000D+00
 ***** Axes restored to original set *****
 -------------------------------------------------------------------
 Center     Atomic                   Forces (Hartrees/Bohr)
 Number     Number              X              Y              Z
 -------------------------------------------------------------------
    1          1          -0.000120418   -0.000068163    0.000000000
    2          6          -0.000269496    0.000368697    0.000000000
    3          1           0.000017745    0.000086556    0.000000000
    4          6          -0.000790459   -0.000157982    0.000000000
    5          1          -0.000033439    0.000216675    0.000000000
    6          6           0.001273937   -0.000887881    0.000000000
    7          7          -0.000720110    0.000683378    0.000000000
    8          1          -0.000017610   -0.000096356    0.000000000
    9          7           0.000659850   -0.000144924    0.000000000
 -------------------------------------------------------------------
 Cartesian Forces:  Max     0.001273937 RMS     0.000421469
 Leave Link  716 at Tue Apr 13 00:24:10 2004, MaxMem=   56000000 cpu:       0.0
 (Enter C:\G03W\l103.exe)

 GradGradGradGradGradGradGradGradGradGradGradGradGradGradGradGradGradGrad
 Berny optimization.
 Internal  Forces:  Max     0.000765051 RMS     0.000209795
 Search for a local minimum.
 Step number   3 out of a maximum of  48
 All quantities printed in internal units (Hartrees-Bohrs-Radians)
 Update second derivatives using D2CorX and points  1  2  3
 Trust test= 1.33D+00 RLast= 8.19D-03 DXMaxT set to 3.00D-01
     Eigenvalues ---    0.01767   0.01899   0.01972   0.02091   0.02119
     Eigenvalues ---    0.02214   0.14503   0.16000   0.16002   0.16100
     Eigenvalues ---    0.21327   0.23544   0.30506   0.36413   0.36629
     Eigenvalues ---    0.37303   0.41891   0.44231   0.46307   0.48186
     Eigenvalues ---    0.529211000.000001000.000001000.000001000.00000
     Eigenvalues --- 1000.000001000.000001000.000001000.000001000.00000
     Eigenvalues --- 1000.000001000.000001000.000001000.000001000.00000
     Eigenvalues --- 1000.000001000.000001000.00000
 RFO step:  Lambda=-2.70278794D-06.
 Quartic linear search produced a step of  0.55666.
 Iteration  1 RMS(Cart)=  0.00064174 RMS(Int)=  0.00000061
 Iteration  2 RMS(Cart)=  0.00000074 RMS(Int)=  0.00000024
 Variable       Old X    -DE/DX   Delta X   Delta X   Delta X     New X
                                 (Linear)    (Quad)   (Total)
    R1        2.05132  -0.00014  -0.00007  -0.00030  -0.00037   2.05095
    R2        2.63547   0.00010   0.00073  -0.00010   0.00062   2.63609
    R3        2.60419  -0.00044  -0.00080  -0.00061  -0.00141   2.60278
    R4        2.04881  -0.00006  -0.00019   0.00011  -0.00008   2.04873
    R5        2.69326  -0.00077  -0.00179  -0.00125  -0.00304   2.69022
    R6        2.05181  -0.00014   0.00004  -0.00040  -0.00036   2.05145
    R7        2.57454   0.00076   0.00264   0.00053   0.00317   2.57771
    R8        2.66282   0.00018   0.00160  -0.00035   0.00125   2.66407
    R9        1.92483  -0.00010   0.00055  -0.00052   0.00002   1.92486
    A1        2.28230  -0.00008   0.00052  -0.00069  -0.00017   2.28214
    A2        2.14314  -0.00006   0.00005  -0.00013  -0.00008   2.14307
    A3        1.85774   0.00014  -0.00057   0.00082   0.00024   1.85798
    A4        2.21597  -0.00009  -0.00109   0.00012  -0.00098   2.21499
    A5        1.83879   0.00004   0.00113  -0.00098   0.00015   1.83894
    A6        2.22842   0.00006  -0.00004   0.00087   0.00083   2.22925
    A7        2.23118   0.00011   0.00087   0.00053   0.00140   2.23259
    A8        1.96769   0.00010  -0.00019   0.00106   0.00088   1.96857
    A9        2.08431  -0.00021  -0.00068  -0.00160  -0.00228   2.08203
   A10        1.79017  -0.00032  -0.00111  -0.00076  -0.00187   1.78831
   A11        1.97038   0.00005   0.00074  -0.00014   0.00060   1.97098
   A12        2.24458   0.00001  -0.00064   0.00056  -0.00008   2.24450
   A13        2.06822  -0.00005  -0.00010  -0.00042  -0.00052   2.06770
    D1        0.00000   0.00000   0.00000   0.00000   0.00000   0.00000
    D2        3.14159   0.00000   0.00000   0.00000   0.00000   3.14159
    D3        3.14159   0.00000   0.00000   0.00000   0.00000   3.14159
    D4        0.00000   0.00000   0.00000   0.00000   0.00000   0.00000
    D5        3.14159   0.00000   0.00000   0.00000   0.00000   3.14159
    D6        0.00000   0.00000   0.00000   0.00000   0.00000   0.00000
    D7        0.00000   0.00000   0.00000   0.00000   0.00000   0.00000
    D8        3.14159   0.00000   0.00000   0.00000   0.00000   3.14159
    D9        3.14159   0.00000   0.00000   0.00000   0.00000   3.14159
   D10        0.00000   0.00000   0.00000   0.00000   0.00000   0.00000
   D11        0.00000   0.00000   0.00000   0.00000   0.00000   0.00000
   D12        3.14159   0.00000   0.00000   0.00000   0.00000   3.14159
   D13        0.00000   0.00000   0.00000   0.00000   0.00000   0.00000
   D14        3.14159   0.00000   0.00000   0.00000   0.00000   3.14159
   D15        0.00000   0.00000   0.00000   0.00000   0.00000   0.00000
   D16        3.14159   0.00000   0.00000   0.00000   0.00000   3.14159
         Item               Value     Threshold  Converged?
 Maximum Force            0.000765     0.000450     NO 
 RMS     Force            0.000210     0.000300     YES
 Maximum Displacement     0.001989     0.001800     NO 
 RMS     Displacement     0.000642     0.001200     YES
 Predicted change in Energy=-3.406407D-06
 GradGradGradGradGradGradGradGradGradGradGradGradGradGradGradGradGradGrad

 Leave Link  103 at Tue Apr 13 00:24:11 2004, MaxMem=   56000000 cpu:       0.0
 (Enter C:\G03W\l202.exe)
                          Input orientation:                          
 ---------------------------------------------------------------------
 Center     Atomic     Atomic              Coordinates (Angstroms)
 Number     Number      Type              X           Y           Z
 ---------------------------------------------------------------------
    1          1             0        2.131212    0.732759    0.000000
    2          6             0        1.126130    0.323220    0.000000
    3          1             0        1.295591   -1.892414    0.000000
    4          6             0        0.681482   -0.998976    0.000000
    5          1             0       -1.454098   -1.736450    0.000000
    6          6             0       -0.739869   -0.918915    0.000000
    7          7             0       -1.196703    0.366378    0.000000
    8          1             0       -0.064757    2.130676    0.000000
    9          7             0       -0.001534    1.114050    0.000000
 ---------------------------------------------------------------------
                    Distance matrix (angstroms):
                    1          2          3          4          5
     1  H    0.000000
     2  C    1.085317   0.000000
     3  H    2.754959   2.222106   0.000000
     4  C    2.258457   1.394961   1.084141   0.000000
     5  H    4.353326   3.301488   2.754108   2.259329   0.000000
     6  C    3.312271   2.241619   2.256280   1.423604   1.085581
     7  N    3.348023   2.323235   3.363581   2.322019   2.118523
     8  H    2.603162   2.164511   4.246858   3.217390   4.109128
     9  N    2.166562   1.377330   3.274349   2.220674   3.199264
                    6          7          8          9
     6  C    0.000000
     7  N    1.364066   0.000000
     8  H    3.123425   2.096199   0.000000
     9  N    2.162888   1.409767   1.018590   0.000000
 Stoichiometry    C3H4N2
 Framework group  CS[SG(C3H4N2)]
 Deg. of freedom    15
 Full point group                 CS      NOp   2
 Largest Abelian subgroup         CS      NOp   2
 Largest concise Abelian subgroup C1      NOp   1
                         Standard orientation:                         
 ---------------------------------------------------------------------
 Center     Atomic     Atomic              Coordinates (Angstroms)
 Number     Number      Type              X           Y           Z
 ---------------------------------------------------------------------
    1          1             0        2.132918    0.732898    0.000000
    2          6             0        1.128020    0.322907    0.000000
    3          1             0        1.298477   -1.892651    0.000000
    4          6             0        0.683966   -0.999489    0.000000
    5          1             0       -1.451281   -1.737923    0.000000
    6          6             0       -0.737421   -0.920067    0.000000
    7          7             0       -1.194833    0.365020    0.000000
    8          1             0       -0.063680    2.129827    0.000000
    9          7             0        0.000000    1.113229    0.000000
 ---------------------------------------------------------------------
 Rotational constants (GHZ):      9.3031465      9.0555185      4.5888312
 Leave Link  202 at Tue Apr 13 00:24:12 2004, MaxMem=   56000000 cpu:       0.0
 (Enter C:\G03W\l301.exe)
 Standard basis: 3-21G (6D, 7F)
[...]
     31  0.000000D+00  0.000000D+00  0.000000D+00  0.000000D+00  0.000000D+00
     32  0.000000D+00  0.000000D+00  0.000000D+00  0.000000D+00  0.000000D+00
     33  0.000000D+00  0.000000D+00  0.000000D+00  0.000000D+00  0.000000D+00
     34  0.000000D+00  0.000000D+00  0.000000D+00  0.000000D+00  0.000000D+00
     35  0.000000D+00  0.000000D+00  0.000000D+00  0.000000D+00  0.000000D+00
     36  0.000000D+00  0.000000D+00  0.000000D+00  0.000000D+00  0.000000D+00
     37  0.000000D+00  0.000000D+00  0.000000D+00  0.000000D+00  0.000000D+00
     38  0.000000D+00  0.000000D+00  0.000000D+00  0.000000D+00  0.000000D+00
               16            17            18            19            20
     16  0.793012D-01
     17 -0.535459D-01  0.115926D+00
     18 -0.257553D-01 -0.623802D-01  0.881355D-01
     19  0.378391D-01 -0.819407D-01  0.441016D-01  0.135291D+00
     20 -0.722118D-02  0.266948D-01 -0.194736D-01 -0.884897D-01  0.121118D+00
     21  0.174897D-02 -0.622785D-02  0.447887D-02  0.394594D-01 -0.560268D-01
     22  0.547221D-02 -0.204669D-01  0.149947D-01  0.490303D-01 -0.650914D-01
     23  0.000000D+00  0.000000D+00  0.000000D+00  0.000000D+00  0.000000D+00
     24  0.000000D+00  0.000000D+00  0.000000D+00  0.000000D+00  0.000000D+00
     25  0.000000D+00  0.000000D+00  0.000000D+00  0.000000D+00  0.000000D+00
     26  0.000000D+00  0.000000D+00  0.000000D+00  0.000000D+00  0.000000D+00
     27  0.000000D+00  0.000000D+00  0.000000D+00  0.000000D+00  0.000000D+00
     28  0.000000D+00  0.000000D+00  0.000000D+00  0.000000D+00  0.000000D+00
     29  0.000000D+00  0.000000D+00  0.000000D+00  0.000000D+00  0.000000D+00
     30  0.000000D+00  0.000000D+00  0.000000D+00  0.000000D+00  0.000000D+00
     31  0.000000D+00  0.000000D+00  0.000000D+00  0.000000D+00  0.000000D+00
     32  0.000000D+00  0.000000D+00  0.000000D+00  0.000000D+00  0.000000D+00
     33  0.000000D+00  0.000000D+00  0.000000D+00  0.000000D+00  0.000000D+00
     34  0.000000D+00  0.000000D+00  0.000000D+00  0.000000D+00  0.000000D+00
     35  0.000000D+00  0.000000D+00  0.000000D+00  0.000000D+00  0.000000D+00
     36  0.000000D+00  0.000000D+00  0.000000D+00  0.000000D+00  0.000000D+00
     37  0.000000D+00  0.000000D+00  0.000000D+00  0.000000D+00  0.000000D+00
     38  0.000000D+00  0.000000D+00  0.000000D+00  0.000000D+00  0.000000D+00
               21            22            23            24            25
     21  0.821193D-01
     22 -0.260924D-01  0.911838D-01
     23  0.000000D+00  0.000000D+00  0.647740D-02
     24  0.000000D+00  0.000000D+00  0.145212D-02  0.791358D-02
     25  0.000000D+00  0.000000D+00  0.145143D-02 -0.824568D-03  0.932137D-02
     26  0.000000D+00  0.000000D+00 -0.357385D-02  0.563689D-02  0.704537D-02
     27  0.000000D+00  0.000000D+00 -0.152154D-02 -0.486031D-02 -0.846624D-03
     28  0.000000D+00  0.000000D+00 -0.186764D-02 -0.169989D-02  0.206958D-02
     29  0.000000D+00  0.000000D+00  0.300709D-02 -0.280891D-02 -0.793781D-02
     30  0.000000D+00  0.000000D+00  0.266100D-02  0.351517D-03 -0.502161D-02
     31  0.000000D+00  0.000000D+00  0.334649D-02 -0.395331D-02  0.144370D-02
     32  0.000000D+00  0.000000D+00  0.319128D-02 -0.703032D-02 -0.421623D-02
     33  0.000000D+00  0.000000D+00 -0.173373D-02  0.257880D-02 -0.857183D-03
     34  0.000000D+00  0.000000D+00 -0.188894D-02 -0.498214D-03 -0.651712D-02
     35  0.000000D+00  0.000000D+00 -0.137243D-02  0.516929D-02 -0.416571D-03
     36  0.000000D+00  0.000000D+00 -0.151283D-02  0.238599D-02 -0.553625D-02
     37  0.000000D+00  0.000000D+00 -0.103162D-02 -0.140537D-02  0.518486D-02
     38  0.000000D+00  0.000000D+00 -0.723933D-03 -0.421509D-02  0.259226D-02
               26            27            28            29            30
     26  0.162561D-01
     27 -0.418539D-02  0.865267D-02
     28  0.223733D-02  0.532131D-03  0.446003D-02
     29 -0.137538D-01  0.804453D-02 -0.301549D-02  0.179064D-01
     30 -0.733109D-02 -0.760043D-04  0.912408D-03  0.684639D-02  0.783480D-02
     31 -0.585610D-02  0.301140D-02 -0.444611D-03  0.472591D-02  0.126989D-02
     32 -0.144378D-01 -0.932304D-03 -0.828097D-03  0.574222D-02  0.584642D-02
     33  0.345534D-02 -0.363865D-03 -0.275025D-03 -0.115367D-02 -0.106483D-02
     34 -0.512639D-02 -0.430757D-02 -0.658510D-03 -0.137366D-03  0.351170D-02
     35  0.612515D-02  0.541908D-02 -0.900896D-03  0.455780D-02 -0.176217D-02
     36 -0.163743D-02  0.185181D-02 -0.124778D-02  0.547710D-02  0.237752D-02
     37  0.481111D-02 -0.829978D-02  0.242225D-02 -0.139011D-01 -0.317909D-02
     38 -0.898904D-03 -0.108035D-02 -0.106978D-02 -0.406840D-02 -0.405782D-02
               31            32            33            34            35
     31  0.117802D-01
     32  0.543727D-02  0.195062D-01
     33  0.440063D-02 -0.489607D-02  0.876030D-02
     34 -0.194234D-02  0.917286D-02 -0.536404D-03  0.105788D-01
     35 -0.256191D-02 -0.154963D-01  0.405133D-02 -0.888301D-02  0.174393D-01
     36 -0.829943D-02 -0.277023D-02 -0.435799D-02  0.117122D-02  0.573958D-02
     37 -0.137446D-02  0.587665D-02 -0.175230D-02  0.549882D-02 -0.134592D-01
     38  0.169805D-02  0.578401D-02 -0.183128D-02  0.225468D-02 -0.784052D-02
               36            37            38
     36  0.107410D-01
     37 -0.690020D-02  0.168377D-01
     38 -0.414457D-02  0.730547D-02  0.729607D-02
 Leave Link  716 at Tue Apr 13 00:25:59 2004, MaxMem=   56000000 cpu:       0.0
 (Enter C:\G03W\l103.exe)

 GradGradGradGradGradGradGradGradGradGradGradGradGradGradGradGradGradGrad
 Berny optimization.
 Internal  Forces:  Max     0.000172235 RMS     0.000054354
 Search for a local minimum.
 Step number   1 out of a maximum of   2
 All quantities printed in internal units (Hartrees-Bohrs-Radians)
 Second derivative matrix not updated -- analytic derivatives used.
     Eigenvalues ---    0.00798   0.01211   0.01611   0.02699   0.05752
     Eigenvalues ---    0.06105   0.09204   0.10150   0.10401   0.11217
     Eigenvalues ---    0.19289   0.23959   0.29491   0.32957   0.36275
     Eigenvalues ---    0.36569   0.36881   0.39972   0.44264   0.45037
     Eigenvalues ---    0.515531000.000001000.000001000.000001000.00000
     Eigenvalues --- 1000.000001000.000001000.000001000.000001000.00000
     Eigenvalues --- 1000.000001000.000001000.000001000.000001000.00000
     Eigenvalues --- 1000.000001000.000001000.00000
 Angle between quadratic step and forces=  33.59 degrees.
 Linear search not attempted -- first point.
 Iteration  1 RMS(Cart)=  0.00023951 RMS(Int)=  0.00000004
 Iteration  2 RMS(Cart)=  0.00000005 RMS(Int)=  0.00000001
 Variable       Old X    -DE/DX   Delta X   Delta X   Delta X     New X
                                 (Linear)    (Quad)   (Total)
    R1        2.05095   0.00001   0.00000   0.00002   0.00002   2.05097
    R2        2.63609   0.00007   0.00000   0.00011   0.00011   2.63620
    R3        2.60278  -0.00014   0.00000  -0.00033  -0.00033   2.60245
    R4        2.04873  -0.00003   0.00000  -0.00007  -0.00007   2.04866
    R5        2.69022   0.00004   0.00000   0.00020   0.00020   2.69042
    R6        2.05145   0.00000   0.00000  -0.00001  -0.00001   2.05145
    R7        2.57771  -0.00017   0.00000  -0.00044  -0.00044   2.57727
    R8        2.66407   0.00000   0.00000  -0.00008  -0.00008   2.66399
    R9        1.92486  -0.00008   0.00000  -0.00020  -0.00020   1.92466
    A1        2.28214  -0.00002   0.00000  -0.00046  -0.00046   2.28168
    A2        2.14307   0.00004   0.00000   0.00045   0.00045   2.14351
    A3        1.85798  -0.00002   0.00000   0.00001   0.00001   1.85799
    A4        2.21499  -0.00003   0.00000  -0.00018  -0.00018   2.21481
    A5        1.83894   0.00004   0.00000   0.00007   0.00007   1.83901
    A6        2.22925  -0.00001   0.00000   0.00011   0.00011   2.22936
    A7        2.23259   0.00009   0.00000   0.00049   0.00049   2.23308
    A8        1.96857  -0.00011   0.00000  -0.00035  -0.00035   1.96822
    A9        2.08203   0.00002   0.00000  -0.00015  -0.00015   2.08188
   A10        1.78831   0.00014   0.00000   0.00042   0.00042   1.78873
   A11        1.97098  -0.00004   0.00000  -0.00016  -0.00016   1.97082
   A12        2.24450   0.00003   0.00000   0.00027   0.00027   2.24477
   A13        2.06770   0.00001   0.00000  -0.00010  -0.00010   2.06760
    D1        0.00000   0.00000   0.00000   0.00000   0.00000   0.00000
    D2        3.14159   0.00000   0.00000   0.00000   0.00000   3.14159
    D3        3.14159   0.00000   0.00000   0.00000   0.00000   3.14159
    D4        0.00000   0.00000   0.00000   0.00000   0.00000   0.00000
    D5        3.14159   0.00000   0.00000   0.00000   0.00000   3.14159
    D6        0.00000   0.00000   0.00000   0.00000   0.00000   0.00000
    D7        0.00000   0.00000   0.00000   0.00000   0.00000   0.00000
    D8        3.14159   0.00000   0.00000   0.00000   0.00000   3.14159
    D9        3.14159   0.00000   0.00000   0.00000   0.00000   3.14159
   D10        0.00000   0.00000   0.00000   0.00000   0.00000   0.00000
   D11        0.00000   0.00000   0.00000   0.00000   0.00000   0.00000
   D12        3.14159   0.00000   0.00000   0.00000   0.00000   3.14159
   D13        0.00000   0.00000   0.00000   0.00000   0.00000   0.00000
   D14        3.14159   0.00000   0.00000   0.00000   0.00000   3.14159
   D15        0.00000   0.00000   0.00000   0.00000   0.00000   0.00000
   D16        3.14159   0.00000   0.00000   0.00000   0.00000   3.14159
         Item               Value     Threshold  Converged?
 Maximum Force            0.000172     0.000450     YES
 RMS     Force            0.000054     0.000300     YES
 Maximum Displacement     0.000734     0.001800     YES
 RMS     Displacement     0.000240     0.001200     YES
 Predicted change in Energy=-1.728577D-07
 Optimization completed.
    -- Stationary point found.
                           ----------------------------
                           !   Optimized Parameters   !
                           ! (Angstroms and Degrees)  !
 --------------------------                            --------------------------
 ! Name  Definition              Value          Derivative Info.                !
 --------------------------------------------------------------------------------
 ! R1    R(1,2)                  1.0853         -DE/DX =    0.0                 !
 ! R2    R(2,4)                  1.395          -DE/DX =    0.0001              !
 ! R3    R(2,9)                  1.3773         -DE/DX =   -0.0001              !
 ! R4    R(3,4)                  1.0841         -DE/DX =    0.0                 !
 ! R5    R(4,6)                  1.4236         -DE/DX =    0.0                 !
 ! R6    R(5,6)                  1.0856         -DE/DX =    0.0                 !
 ! R7    R(6,7)                  1.3641         -DE/DX =   -0.0002              !
 ! R8    R(7,9)                  1.4098         -DE/DX =    0.0                 !
 ! R9    R(8,9)                  1.0186         -DE/DX =   -0.0001              !
 ! A1    A(1,2,4)              130.7569         -DE/DX =    0.0                 !
 ! A2    A(1,2,9)              122.7887         -DE/DX =    0.0                 !
 ! A3    A(4,2,9)              106.4544         -DE/DX =    0.0                 !
 ! A4    A(2,4,3)              126.9096         -DE/DX =    0.0                 !
 ! A5    A(2,4,6)              105.3636         -DE/DX =    0.0                 !
 ! A6    A(3,4,6)              127.7268         -DE/DX =    0.0                 !
 ! A7    A(4,6,5)              127.9177         -DE/DX =    0.0001              !
 ! A8    A(4,6,7)              112.7908         -DE/DX =   -0.0001              !
 ! A9    A(5,6,7)              119.2915         -DE/DX =    0.0                 !
 ! A10   A(6,7,9)              102.4624         -DE/DX =    0.0001              !
 ! A11   A(2,9,7)              112.9289         -DE/DX =    0.0                 !
 ! A12   A(2,9,8)              128.6005         -DE/DX =    0.0                 !
 ! A13   A(7,9,8)              118.4706         -DE/DX =    0.0                 !
 ! D1    D(1,2,4,3)              0.0            -DE/DX =    0.0                 !
 ! D2    D(1,2,4,6)            180.0            -DE/DX =    0.0                 !
 ! D3    D(9,2,4,3)            180.0            -DE/DX =    0.0                 !
 ! D4    D(9,2,4,6)              0.0            -DE/DX =    0.0                 !
 ! D5    D(1,2,9,7)            180.0            -DE/DX =    0.0                 !
 ! D6    D(1,2,9,8)              0.0            -DE/DX =    0.0                 !
 ! D7    D(4,2,9,7)              0.0            -DE/DX =    0.0                 !
 ! D8    D(4,2,9,8)            180.0            -DE/DX =    0.0                 !
 ! D9    D(2,4,6,5)            180.0            -DE/DX =    0.0                 !
 ! D10   D(2,4,6,7)              0.0            -DE/DX =    0.0                 !
 ! D11   D(3,4,6,5)              0.0            -DE/DX =    0.0                 !
 ! D12   D(3,4,6,7)            180.0            -DE/DX =    0.0                 !
 ! D13   D(4,6,7,9)              0.0            -DE/DX =    0.0                 !
 ! D14   D(5,6,7,9)            180.0            -DE/DX =    0.0                 !
 ! D15   D(6,7,9,2)              0.0            -DE/DX =    0.0                 !
 ! D16   D(6,7,9,8)            180.0            -DE/DX =    0.0                 !
 --------------------------------------------------------------------------------
 GradGradGradGradGradGradGradGradGradGradGradGradGradGradGradGradGradGrad

 Leave Link  103 at Tue Apr 13 00:26:00 2004, MaxMem=   56000000 cpu:       0.0
 (Enter C:\G03W\l9999.exe)
 1|1|UNPC-UNK|Freq|RPBEPBE|3-21G|C3H4N2|PCUSER|13-Apr-2004|0||#P GEOM=A
 LLCHECK GUESS=READ SCRF=CHECK GENCHK RPBEPBE/3-21G FREQ||1hpyraz casno
 =288131 method=61 basis=2||0,1|H,2.1332473286,0.7319385748,0.|C,1.1281
 653248,0.3223996894,0.|H,1.2976256857,-1.8932349857,0.|C,0.683516785,-
 0.9997970175,0.|H,-1.4520630324,-1.7372705499,0.|C,-0.7378344032,-0.91
 9735561,0.|N,-1.1946684531,0.3655576827,0.|H,-0.0627220254,2.129855293
 5,0.|N,0.0005007107,1.1132293176,0.||Version=x86-Win32-G03RevB.05|Stat
 e=1-A'|HF=-224.6739361|RMSD=4.057e-009|RMSF=7.699e-005|Dipole=0.817305
 8,0.3906086,0.|DipoleDeriv=0.0003859,-0.0437866,0.,-0.0402024,0.075823
 3,0.,0.,0.,0.2006085,-0.0430952,-0.1683643,0.,0.0045216,0.2960125,0.,0
 .,0.,-0.0893089,0.0530295,0.0712725,0.,0.0646295,0.0217888,0.,0.,0.,0.
 1715629,-0.1290123,-0.1430924,0.,-0.0893802,-0.1412676,0.,0.,0.,-0.221
 9326,0.0276111,-0.059957,0.,-0.0711808,0.0283696,0.,0.,0.,0.1644151,0.
 2292426,0.1064061,0.,0.0838993,-0.0134025,0.,0.,0.,-0.1135064,-0.30190
 85,0.2523224,0.,0.1419957,-0.0303706,0.,0.,0.,-0.1774975,0.189714,-0.0
 194391,0.,-0.0051003,0.2488975,0.,0.,0.,0.3588955,-0.025967,0.0046382,
 0.,-0.0891824,-0.485851,0.,0.,0.,-0.2932367|Polar=44.3831263,2.2241047
 ,46.05474,0.,0.,12.4976153|PG=CS [SG(C3H4N2)]|NImag=0||0.31905269,0.11
 010431,0.09257118,0.,0.,0.01935662,-0.30422145,-0.11158811,0.,0.768201
 99,-0.10384897,-0.09774854,0.,0.13182662,0.61026972,0.,0.,-0.02448027,
 0.,0.,0.11688759,-0.00008976,0.00080530,0.,0.01028460,-0.01315857,0.,0
 .14910160,-0.00068587,0.00026034,0.,0.01962762,-0.01027146,0.,-0.14817
 318,0.26607216,0.,0.,-0.00273091,0.,0.,-0.00102723,0.,0.,0.02228626,0.
 00189825,-0.02293191,0.,-0.12090911,-0.06022294,0.,-0.14969573,0.13653
 812,0.,0.58775225,0.00394158,0.00281305,0.,-0.07965822,-0.31119079,0.,
 0.14000806,-0.25736961,0.,-0.13072948,0.76628507,0.,0.,0.00141312,0.,0
 .,-0.06494795,0.,0.,-0.02743318,0.,0.,0.12015041,0.00009315,-0.0012774
 8,0.,-0.00535927,0.00124184,0.,0.00021422,0.00058879,0.,-0.00667830,-0
 .02134900,0.,0.18636985,-0.00008146,0.00050364,0.,0.00375374,-0.000646
 94,0.,-0.00095621,-0.00006619,0.,0.00666957,0.00742863,0.,0.15418103,0
 .22896651,0.,0.,0.00070982,0.,0.,0.00420196,0.,0.,-0.00193329,0.,0.,0.
 00099479,0.,0.,0.02333076,-0.00039691,-0.00206331,0.,-0.04450879,-0.08
 155033,0.,-0.00314910,-0.00535641,0.,-0.26186781,0.01589592,0.,-0.1860
 1311,-0.14320772,0.,0.64406192,0.00227980,-0.00594814,0.,-0.02490047,0
 .00285151,0.,0.02549353,0.00472546,0.,-0.00902221,-0.10228164,0.,-0.15
 008299,-0.21275063,0.,0.15652559,0.69189667,0.,0.,0.00472223,0.,0.,0.0
 1344700,0.,0.,-0.00199189,0.,0.,-0.06661163,0.,0.,-0.02920990,0.,0.,0.
 13317228,-0.00043139,0.00423303,0.,-0.09199404,0.01291587,0.,-0.005120
 76,-0.00283247,0.,-0.03992019,0.01658729,0.,0.00868868,-0.02028911,0.,
 -0.10907072,0.03854216,0.,0.38061939,0.00179902,-0.00275382,0.,-0.0181
 3148,-0.02243281,0.,0.00196568,0.00065905,0.,0.07503853,-0.02251471,0.
 ,0.01056185,-0.01791768,0.,0.09047715,-0.26104163,0.,-0.05058119,0.444
 95238,0.,0.,0.00564685,0.,0.,0.01537143,0.,0.,0.00606299,0.,0.,0.02003
 839,0.,0.,-0.00674857,0.,0.,-0.06628697,0.,0.,0.09227994,-0.00028563,-
 0.00058947,0.,0.00897549,0.02492822,0.,0.00086152,0.00097446,0.,-0.005
 89877,0.00356788,0.,0.00099706,-0.00142927,0.,-0.00812816,-0.00543842,
 0.,0.00703680,-0.03067292,0.,0.06261161,0.00060626,-0.00015013,0.,-0.0
 0804780,-0.00556989,0.,-0.00027493,-0.00021310,0.,0.00255001,0.0016363
 7,0.,0.00036079,-0.00025237,0.,-0.00378791,0.00184125,0.,0.00506361,-0
 .01097678,0.,-0.02551396,0.44174742,0.,0.,-0.00133534,0.,0.,-0.0065357
 6,0.,0.,0.00197942,0.,0.,0.00318294,0.,0.,0.00194187,0.,0.,0.00396193,
 0.,0.,-0.01006972,0.,0.,0.01288309,-0.01561896,0.02330764,0.,-0.220469
 44,0.08786826,0.,-0.00240660,-0.00068105,0.,-0.00468061,0.05173597,0.,
 0.00168771,0.00135943,0.,-0.03092733,-0.03339698,0.,-0.14980778,-0.080
 45663,0.,-0.06616993,0.02904393,0.,0.48839293,-0.01411467,0.01045242,0
 .,0.08711811,-0.16526081,0.,-0.00570968,-0.00379666,0.,0.00211030,-0.0
 8480638,0.,0.00577518,-0.00526499,0.,-0.02693297,-0.11929286,0.,-0.003
 63917,-0.10797400,0.,0.03417348,-0.42806279,0.,-0.07878058,0.90400606,
 0.,0.,-0.00330213,0.,0.,-0.05291678,0.,0.,0.00478784,0.,0.,0.01321311,
 0.,0.,0.00671256,0.,0.,0.00879696,0.,0.,-0.05629436,0.,0.,-0.00600842,
 0.,0.,0.08501122||-0.00002231,0.00003251,0.,0.00009444,-0.00015684,0.,
 0.00001598,-0.00002390,0.,-0.00001183,-0.00000799,0.,0.00003647,-0.000
 02663,0.,0.00017701,-0.00001699,0.,-0.00019136,0.00018373,0.,-0.000002
 45,0.00008075,0.,-0.00009596,-0.00006462,0.|||@


 THOUGH I SPEAK WITH THE TONGUES OF MEN AND OF ANGELS, 
 AND HAVE NOT LOVE,
 I AM BECOME AS SOUNDING BRASS, A TINKLING CYMBAL.
 AND THOUGH I HAVE THE GIFT OF PROPHECY,
 AND UNDERSTAND ALL MYSTERIES, AND ALL KNOWLEDGE.
 AND THOUGH I HAVE ALL FAITH, SO THAT I COULD REMOVE MOUNTAINS,
 AND HAVE NOT LOVE, I AM NOTHING.
 AND THOUGH I BESTOW ALL MY GOODS TO FEED THE POOR,
 AND THOUGH I GIVE MY BODY TO BE BURNED,
 AND HAVE NOT LOVE IT PROFITETH ME NOTHING.
 LOVE SUFFERETH LONG, AND IS KIND,
 LOVE ENVIETH NOT,
 LOVE VAUNTETH NOT ITSELF, IS NOT PUFFED UP,
 DOTH NOT BEHAVE ITSELF UNSEEMLY, SEEKETH NOT HER OWN,
 IS NOT EASILY PROVOKED, THINKETH NO EVIL,
 REJOICETH NOT IN INIQUITY, BUT REJOICETH IN THE TRUTH,
 BEARETH ALL THINGS, BELIEVETH ALL THINGS,
 HOPETH ALL THINGS, ENDURETH ALL THINGS.
 LOVE NEVER FAILETH, BUT WHETHER THERE BE PROPHECIES, THEY SHALL FAIL, 
 WHETHER THERE BE TONGUES, THEY SHALL CEASE,
 WHETHER THERE BE KNOWLEDGE, IT SHALL VANISH AWAY.
 FOR WE KNOW IN PART, AND WE PROPHESY IN PART.
 BUT WHEN THAT WHICH IS PERFECT IS COME, THEN THAT WHICH IS IN PART 
 SHALL BE DONE AWAY. 
 WHEN I WAS A CHILD, I SPAKE AS A CHILD, I UNDERSTOOD AS A CHILD, 
 I THOUGHT AS A CHILD.
 BUT WHEN I BECAME A MAN, I PUT AWAY CHILDISH THINGS.
 FOR NOW WE SEE THROUGH A GLASS, DARKLY, BUT THEN FACE TO FACE.
 NOW I KNOW IN PART. BUT THEN SHALL I KNOW EVEN AS ALSO I AM KNOWN.
 AND NOW ABIDETH FAITH, HOPE AND LOVE, THESE THREE.
 BUT THE GREATEST OF THESE IS LOVE.

                     I CORINTHIANS 13
 Job cpu time:  0 days  0 hours  1 minutes 23.0 seconds.
 File lengths (MBytes):  RWF=     11 Int=      0 D2E=      0 Chk=      4 Scr=      1
 Normal termination of Gaussian 03 at Tue Apr 13 00:26:01 2004.
