 Entering Link 1 = C:\G03W\l1.exe PID=      1884.
  
 Copyright (c) 1988,1990,1992,1993,1995,1998,2003, Gaussian, Inc.
                  All Rights Reserved.
  
 This is the Gaussian(R) 03 program.  It is based on the
 the Gaussian(R) 98 system (copyright 1998, Gaussian, Inc.),
 the Gaussian(R) 94 system (copyright 1995, Gaussian, Inc.),
 the Gaussian 92(TM) system (copyright 1992, Gaussian, Inc.),
 the Gaussian 90(TM) system (copyright 1990, Gaussian, Inc.),
 the Gaussian 88(TM) system (copyright 1988, Gaussian, Inc.),
 the Gaussian 86(TM) system (copyright 1986, Carnegie Mellon
 University), and the Gaussian 82(TM) system (copyright 1983,
 Carnegie Mellon University). Gaussian is a federally registered
 trademark of Gaussian, Inc.
  
 This software contains proprietary and confidential information,
 including trade secrets, belonging to Gaussian, Inc.
  
 This software is provided under written license and may be
 used, copied, transmitted, or stored only in accord with that
 written license.
  
 The following legend is applicable only to US Government
 contracts under DFARS:
  
                    RESTRICTED RIGHTS LEGEND
  
 Use, duplication or disclosure by the US Government is subject
 to restrictions as set forth in subparagraph (c)(1)(ii) of the
 Rights in Technical Data and Computer Software clause at DFARS
 252.227-7013.
  
 Gaussian, Inc.
 Carnegie Office Park, Building 6, Pittsburgh, PA 15106 USA
  
 The following legend is applicable only to US Government
 contracts under FAR:
  
                    RESTRICTED RIGHTS LEGEND
  
 Use, reproduction and disclosure by the US Government is subject
 to restrictions as set forth in subparagraph (c) of the
 Commercial Computer Software - Restricted Rights clause at FAR
 52.227-19.
  
 Gaussian, Inc.
 Carnegie Office Park, Building 6, Pittsburgh, PA 15106 USA
  
  
 ---------------------------------------------------------------
 Warning -- This program may not be used in any manner that
 competes with the business of Gaussian, Inc. or will provide
 assistance to any competitor of Gaussian, Inc.  The licensee
 of this program is prohibited from giving any competitor of
 Gaussian, Inc. access to this program.  By using this program,
 the user acknowledges that Gaussian, Inc. is engaged in the
 business of creating and licensing software in the field of
 computational chemistry and represents and warrants to the
 licensee that it is not a competitor of Gaussian, Inc. and that
 it will not use this program in any manner prohibited above.
 ---------------------------------------------------------------
  

 Cite this work as:
 Gaussian 03, Revision B.05,
 M. J. Frisch, G. W. Trucks, H. B. Schlegel, G. E. Scuseria, 
 M. A. Robb, J. R. Cheeseman, J. A. Montgomery, Jr., T. Vreven, 
 K. N. Kudin, J. C. Burant, J. M. Millam, S. S. Iyengar, J. Tomasi, 
 V. Barone, B. Mennucci, M. Cossi, G. Scalmani, N. Rega, 
 G. A. Petersson, H. Nakatsuji, M. Hada, M. Ehara, K. Toyota, 
 R. Fukuda, J. Hasegawa, M. Ishida, T. Nakajima, Y. Honda, O. Kitao, 
 H. Nakai, M. Klene, X. Li, J. E. Knox, H. P. Hratchian, J. B. Cross, 
 C. Adamo, J. Jaramillo, R. Gomperts, R. E. Stratmann, O. Yazyev, 
 A. J. Austin, R. Cammi, C. Pomelli, J. W. Ochterski, P. Y. Ayala, 
 K. Morokuma, G. A. Voth, P. Salvador, J. J. Dannenberg, 
 V. G. Zakrzewski, S. Dapprich, A. D. Daniels, M. C. Strain, 
 O. Farkas, D. K. Malick, A. D. Rabuck, K. Raghavachari, 
 J. B. Foresman, J. V. Ortiz, Q. Cui, A. G. Baboul, S. Clifford, 
 J. Cioslowski, B. B. Stefanov, G. Liu, A. Liashenko, P. Piskorz, 
 I. Komaromi, R. L. Martin, D. J. Fox, T. Keith, M. A. Al-Laham, 
 C. Y. Peng, A. Nanayakkara, M. Challacombe, P. M. W. Gill, 
 B. Johnson, W. Chen, M. W. Wong, C. Gonzalez, and J. A. Pople, 
 Gaussian, Inc., Pittsburgh PA, 2003.
 
 **********************************************
 Gaussian 03:  x86-Win32-G03RevB.05  8-Nov-2003
                  08-Feb-2005 
 **********************************************
 %mem=24000000
 ----------------------------
 #PBEPBE/6-311G(d,p) opt freq
 ----------------------------
 1/14=-1,18=20,26=3,38=1/1,3;
 2/9=110,17=6,18=5,40=1/2;
 3/5=4,6=6,7=101,11=2,16=1,25=1,30=1,74=1009/1,2,3;
 4//1;
 5/5=2,38=5/2;
 6/7=2,8=2,9=2,10=2,28=1/1;
 7//1,2,3,16;
 1/14=-1,18=20/3(1);
 99//99;
 2/9=110/2;
 3/5=4,6=6,7=101,11=2,16=1,25=1,30=1,74=1009/1,2,3;
 4/5=5,16=3/1;
 5/5=2,38=5/2;
 7//1,2,3,16;
 1/14=-1,18=20/3(-5);
 2/9=110/2;
 6/7=2,8=2,9=2,10=2,19=2,28=1/1;
 99/9=1/99;
 Leave Link    1 at Tue Feb 08 14:10:48 2005, MaxMem=   24000000 cpu:       1.0
 (Enter C:\G03W\l101.exe)
 --------------------------------------------------
 1H pyrazole C3H4N2 casno=288131 method=61 basis=21
 --------------------------------------------------
 Symbolic Z-matrix:
 Charge =  0 Multiplicity = 1
 H                    -1.9125    0.       -0.75938 
 C                    -1.08438   0.       -0.21875 
 H                     0.43438   0.       -1.63125 
 C                     0.15      0.       -0.68438 
 H                     1.9125    0.        0.37188 
 C                     0.92188   0.        0.375 
 N                     0.18125   0.        1.41875 
 H                    -1.74063   0.        1.63125 
 N                    -1.00313   0.        1.05313 
 
                    Isotopes and Nuclear Properties:

  Atom         1           2           3           4           5           6           7           8           9
 IAtWgt=           1          12           1          12           1          12          14           1          14
 AtmWgt=   1.0078250  12.0000000   1.0078250  12.0000000   1.0078250  12.0000000  14.0030740   1.0078250  14.0030740
 IAtSpn=           1           0           1           0           1           0           2           1           2
 AtZEff=   0.0000000   0.0000000   0.0000000   0.0000000   0.0000000   0.0000000   0.0000000   0.0000000   0.0000000
 AtQMom=   0.0000000   0.0000000   0.0000000   0.0000000   0.0000000   0.0000000   1.5600000   0.0000000   1.5600000
 AtGFac=   2.7928460   0.0000000   2.7928460   0.0000000   2.7928460   0.0000000   0.4037610   2.7928460   0.4037610
 Leave Link  101 at Tue Feb 08 14:10:48 2005, MaxMem=   24000000 cpu:       0.0
 (Enter C:\G03W\l103.exe)

 GradGradGradGradGradGradGradGradGradGradGradGradGradGradGradGradGradGrad
 Berny optimization.
 Initialization pass.
                           ----------------------------
                           !    Initial Parameters    !
                           ! (Angstroms and Degrees)  !
 --------------------------                            --------------------------
 ! Name  Definition              Value          Derivative Info.                !
 --------------------------------------------------------------------------------
 ! R1    R(1,2)                  0.989          estimate D2E/DX2                !
 ! R2    R(2,4)                  1.3193         estimate D2E/DX2                !
 ! R3    R(2,9)                  1.2745         estimate D2E/DX2                !
 ! R4    R(3,4)                  0.9887         estimate D2E/DX2                !
 ! R5    R(4,6)                  1.3108         estimate D2E/DX2                !
 ! R6    R(5,6)                  0.9906         estimate D2E/DX2                !
 ! R7    R(6,7)                  1.2798         estimate D2E/DX2                !
 ! R8    R(7,9)                  1.2395         estimate D2E/DX2                !
 ! R9    R(8,9)                  0.9371         estimate D2E/DX2                !
 ! A1    A(1,2,4)              126.195          estimate D2E/DX2                !
 ! A2    A(1,2,9)              126.7929         estimate D2E/DX2                !
 ! A3    A(4,2,9)              107.012          estimate D2E/DX2                !
 ! A4    A(2,4,3)              127.3838         estimate D2E/DX2                !
 ! A5    A(2,4,6)              105.4104         estimate D2E/DX2                !
 ! A6    A(3,4,6)              127.2058         estimate D2E/DX2                !
 ! A7    A(4,6,5)              125.8968         estimate D2E/DX2                !
 ! A8    A(4,6,7)              108.5636         estimate D2E/DX2                !
 ! A9    A(5,6,7)              125.5395         estimate D2E/DX2                !
 ! A10   A(6,7,9)              108.203          estimate D2E/DX2                !
 ! A11   A(2,9,7)              110.811          estimate D2E/DX2                !
 ! A12   A(2,9,8)              124.4376         estimate D2E/DX2                !
 ! A13   A(7,9,8)              124.7513         estimate D2E/DX2                !
 ! D1    D(1,2,4,3)              0.0            estimate D2E/DX2                !
 ! D2    D(1,2,4,6)            180.0            estimate D2E/DX2                !
 ! D3    D(9,2,4,3)            180.0            estimate D2E/DX2                !
 ! D4    D(9,2,4,6)              0.0            estimate D2E/DX2                !
 ! D5    D(1,2,9,7)            180.0            estimate D2E/DX2                !
 ! D6    D(1,2,9,8)              0.0            estimate D2E/DX2                !
 ! D7    D(4,2,9,7)              0.0            estimate D2E/DX2                !
 ! D8    D(4,2,9,8)            180.0            estimate D2E/DX2                !
 ! D9    D(2,4,6,5)            180.0            estimate D2E/DX2                !
 ! D10   D(2,4,6,7)              0.0            estimate D2E/DX2                !
 ! D11   D(3,4,6,5)              0.0            estimate D2E/DX2                !
 ! D12   D(3,4,6,7)            180.0            estimate D2E/DX2                !
 ! D13   D(4,6,7,9)              0.0            estimate D2E/DX2                !
 ! D14   D(5,6,7,9)            180.0            estimate D2E/DX2                !
 ! D15   D(6,7,9,2)              0.0            estimate D2E/DX2                !
 ! D16   D(6,7,9,8)            180.0            estimate D2E/DX2                !
 --------------------------------------------------------------------------------
 Trust Radius=3.00D-01 FncErr=1.00D-07 GrdErr=1.00D-06
 Number of steps in this run=  48 maximum allowed number of steps= 100.
 GradGradGradGradGradGradGradGradGradGradGradGradGradGradGradGradGradGrad

 Leave Link  103 at Tue Feb 08 14:10:49 2005, MaxMem=   24000000 cpu:       0.0
 (Enter C:\G03W\l202.exe)
                          Input orientation:                          
 ---------------------------------------------------------------------
 Center     Atomic     Atomic              Coordinates (Angstroms)
 Number     Number      Type              X           Y           Z
 ---------------------------------------------------------------------
    1          1             0       -1.912500    0.000000   -0.759375
    2          6             0       -1.084375    0.000000   -0.218750
    3          1             0        0.434375    0.000000   -1.631250
    4          6             0        0.150000    0.000000   -0.684375
    5          1             0        1.912500    0.000000    0.371875
    6          6             0        0.921875    0.000000    0.375000
    7          7             0        0.181250    0.000000    1.418750
    8          1             0       -1.740625    0.000000    1.631250
    9          7             0       -1.003125    0.000000    1.053125
 ---------------------------------------------------------------------
                    Distance matrix (angstroms):
                    1          2          3          4          5
     1  H    0.000000
     2  C    0.988972   0.000000
     3  H    2.503595   2.074068   0.000000
     4  C    2.063863   1.319276   0.988656   0.000000
     5  H    3.988778   3.054521   2.489450   2.054768   0.000000
     6  C    3.052947   2.092266   2.064630   1.310750   0.990630
     7  N    3.021261   2.069592   3.060486   2.103357   2.023159
     8  H    2.396796   1.962948   3.921037   2.989412   3.864110
     9  N    2.027836   1.274468   3.045041   2.085331   2.994156
                    6          7          8          9
     6  C    0.000000
     7  N    1.279820   0.000000
     8  H    2.943989   1.933587   0.000000
     9  N    2.040950   1.239526   0.937088   0.000000
 Stoichiometry    C3H4N2
 Framework group  CS[SG(C3H4N2)]
 Deg. of freedom    15
 Full point group                 CS      NOp   2
 Largest Abelian subgroup         CS      NOp   2
 Largest concise Abelian subgroup C1      NOp   1
                         Standard orientation:                         
 ---------------------------------------------------------------------
 Center     Atomic     Atomic              Coordinates (Angstroms)
 Number     Number      Type              X           Y           Z
 ---------------------------------------------------------------------
    1          1             0        1.974407    0.585689    0.000000
    2          6             0        1.028833    0.295936    0.000000
    3          1             0        1.140941   -1.775099    0.000000
    4          6             0        0.595873   -0.950271    0.000000
    5          1             0       -1.344123   -1.627388    0.000000
    6          6             0       -0.712074   -0.864589    0.000000
    7          7             0       -1.039336    0.372682    0.000000
    8          1             0        0.028336    1.984773    0.000000
    9          7             0        0.000000    1.048113    0.000000
 ---------------------------------------------------------------------
 Rotational constants (GHZ):     11.1878017     10.4520035      5.4036966
 Leave Link  202 at Tue Feb 08 14:10:49 2005, MaxMem=   24000000 cpu:       0.0
 (Enter C:\G03W\l301.exe)
 Standard basis: 6-311G(d,p) (5D, 7F)
 There are    85 symmetry adapted basis functions of A'  symmetry.
 There are    29 symmetry adapted basis functions of A"  symmetry.
 Integral buffers will be    262144 words long.
 Raffenetti 2 integral format.
 Two-electron integral symmetry is turned on.
   114 basis functions,   192 primitive gaussians,   119 cartesian basis functions
    18 alpha electrons       18 beta electrons
       nuclear repulsion energy       173.7391745845 Hartrees.
 IExCor=1009 DFT=T Ex=PBE Corr=PBE ExCW=0 ScaHFX=  0.000000
 ScaDFX=  1.000000  1.000000  1.000000  1.000000
 IRadAn=      0 IRanWt=     -1 IRanGd=            0 ICorTp=0
 NAtoms=    9 NActive=    9 NUniq=    9 SFac= 1.00D+00 NAtFMM=   60 Big=F
 Leave Link  301 at Tue Feb 08 14:10:50 2005, MaxMem=   24000000 cpu:       0.0
 (Enter C:\G03W\l302.exe)
 NPDir=0 NMtPBC=     1 NCelOv=     1 NCel=       1 NClECP=     1 NCelD=      1
         NCelK=      1 NCelE2=     1 NClLst=     1 CellRange=     0.0.
 One-electron integrals computed using PRISM.
 NBasis=   114 RedAO= T  NBF=    85    29
 NBsUse=   114 1.00D-06 NBFU=    85    29
 Precomputing XC quadrature grid using
 IXCGrd= 2 IRadAn=           0 IRanWt=          -1 IRanGd=           0.
 NRdTot=     561 NPtTot=       71150 NUsed=       73694 NTot=       73710
 NSgBfM=   119   119   119   119.
 Leave Link  302 at Tue Feb 08 14:10:51 2005, MaxMem=   24000000 cpu:       0.0
 (Enter C:\G03W\l303.exe)
 DipDrv:  MaxL=1.
 Leave Link  303 at Tue Feb 08 14:10:51 2005, MaxMem=   24000000 cpu:       0.0
 (Enter C:\G03W\l401.exe)
 Harris functional with IExCor= 1009 diagonalized for initial guess.
 ExpMin= 1.03D-01 ExpMax= 6.29D+03 ExpMxC= 9.49D+02 IAcc=1 IRadAn=         1 AccDes= 1.00D-06
 HarFok:  IExCor=1009 AccDes= 1.00D-06 IRadAn=         1 IDoV=1
 ScaDFX=  1.000000  1.000000  1.000000  1.000000
 Harris En= -226.126654374509    
 Initial guess orbital symmetries:
       Occupied  (A') (A') (A') (A') (A') (A') (A') (A') (A') (A')
                 (A') (A') (A') (A") (A') (A") (A') (A")
       Virtual   (A") (A") (A') (A') (A') (A') (A') (A') (A') (A')
                 (A') (A") (A') (A') (A') (A") (A') (A') (A") (A')
                 (A') (A') (A') (A") (A') (A') (A") (A') (A') (A')
                 (A') (A") (A') (A") (A') (A') (A") (A") (A') (A')
                 (A") (A') (A') (A') (A") (A') (A') (A') (A") (A")
                 (A') (A') (A') (A") (A") (A') (A') (A") (A') (A')
                 (A') (A") (A') (A") (A") (A') (A') (A') (A') (A")
                 (A') (A") (A') (A') (A") (A') (A') (A') (A') (A')
                 (A') (A') (A") (A') (A") (A') (A') (A') (A') (A')
                 (A') (A') (A') (A') (A') (A')
 The electronic state of the initial guess is 1-A'.
 Leave Link  401 at Tue Feb 08 14:10:53 2005, MaxMem=   24000000 cpu:       1.0
 (Enter C:\G03W\l502.exe)
 Closed shell SCF:
 Requested convergence on RMS density matrix=1.00D-08 within 128 cycles.
 Requested convergence on MAX density matrix=1.00D-06.
 Requested convergence on             energy=1.00D-06.
 No special actions if energy rises.
 Using DIIS extrapolation, IDIIS=  1040.
 Integral symmetry usage will be decided dynamically.
        73693 words used for storage of precomputed grid.
 IEnd=    138141 IEndB=    138141 NGot=  24000000 MDV=  23892780
 LenX=  23892780
 Fock matrices will be formed incrementally for  20 cycles.
 Integral accuracy reduced to 1.0D-05 until final iterations.

 Cycle   1  Pass 0  IDiag  1:
 FoFCou: FMM=F IPFlag=           0 FMFlag=           0 FMFlg1=           0
 NFxFlg=           0 DoJE=T BraDBF=F KetDBF=F FulRan=T.
 Petite list used in FoFCou.
 E= -225.721189145059    
 DIIS: error= 4.89D-02 at cycle   1 NSaved=   1.
 NSaved= 1 IEnMin= 1 EnMin= -225.721189145059     IErMin= 1 ErrMin= 4.89D-02
 ErrMax= 4.89D-02 EMaxC= 1.00D-01 BMatC= 1.90D-01 BMatP= 1.90D-01
 IDIUse=3 WtCom= 5.11D-01 WtEn= 4.89D-01
 Coeff-Com:  0.100D+01
 Coeff-En:   0.100D+01
 Coeff:      0.100D+01
 Gap=     0.154 Goal=   None    Shift=    0.000
 GapD=    0.154 DampG=1.000 DampE=0.500 DampFc=0.5000 IDamp=-1.
 Damping current iteration by 5.00D-01
 RMSDP=9.89D-03 MaxDP=2.04D-01              OVMax= 2.85D-01

 Cycle   2  Pass 0  IDiag  1:
 RMSU=  4.91D-03    CP:  9.70D-01
 E= -225.778665879778     Delta-E=       -0.057476734719 Rises=F Damp=T
 DIIS: error= 1.81D-02 at cycle   2 NSaved=   2.
 NSaved= 2 IEnMin= 2 EnMin= -225.778665879778     IErMin= 2 ErrMin= 1.81D-02
 ErrMax= 1.81D-02 EMaxC= 1.00D-01 BMatC= 1.94D-02 BMatP= 1.90D-01
 IDIUse=3 WtCom= 8.19D-01 WtEn= 1.81D-01
 Coeff-Com:  0.190D+00 0.810D+00
 Coeff-En:   0.330D+00 0.670D+00
 Coeff:      0.216D+00 0.784D+00
 Gap=     0.235 Goal=   None    Shift=    0.000
 RMSDP=2.73D-03 MaxDP=5.08D-02 DE=-5.75D-02 OVMax= 2.48D-01

 Cycle   3  Pass 0  IDiag  1:
 RMSU=  2.35D-03    CP:  9.73D-01  7.17D-01
 E= -225.899528305539     Delta-E=       -0.120862425761 Rises=F Damp=F
 DIIS: error= 1.92D-02 at cycle   3 NSaved=   3.
 NSaved= 3 IEnMin= 3 EnMin= -225.899528305539     IErMin= 2 ErrMin= 1.81D-02
 ErrMax= 1.92D-02 EMaxC= 1.00D-01 BMatC= 1.69D-02 BMatP= 1.94D-02
 IDIUse=3 WtCom= 8.08D-01 WtEn= 1.92D-01
 Coeff-Com:  0.862D-01 0.489D+00 0.425D+00
 Coeff-En:   0.000D+00 0.000D+00 0.100D+01
 Coeff:      0.696D-01 0.395D+00 0.536D+00
 Gap=     0.227 Goal=   None    Shift=    0.000
 RMSDP=1.48D-03 MaxDP=2.26D-02 DE=-1.21D-01 OVMax= 8.47D-02

 Cycle   4  Pass 0  IDiag  1:
 RMSU=  1.07D-03    CP:  9.79D-01  6.98D-01  5.72D-01
 E= -225.908161419139     Delta-E=       -0.008633113601 Rises=F Damp=F
 DIIS: error= 1.25D-02 at cycle   4 NSaved=   4.
 NSaved= 4 IEnMin= 4 EnMin= -225.908161419139     IErMin= 4 ErrMin= 1.25D-02
 ErrMax= 1.25D-02 EMaxC= 1.00D-01 BMatC= 7.64D-03 BMatP= 1.69D-02
 IDIUse=3 WtCom= 8.75D-01 WtEn= 1.25D-01
 Coeff-Com:  0.289D-01 0.162D+00 0.385D+00 0.424D+00
 Coeff-En:   0.000D+00 0.000D+00 0.354D+00 0.646D+00
 Coeff:      0.252D-01 0.141D+00 0.382D+00 0.452D+00
 Gap=     0.231 Goal=   None    Shift=    0.000
 RMSDP=6.07D-04 MaxDP=9.85D-03 DE=-8.63D-03 OVMax= 3.71D-02

 Cycle   5  Pass 0  IDiag  1:
 RMSU=  2.04D-04    CP:  9.76D-01  6.86D-01  6.95D-01  5.47D-01
 E= -225.915100726872     Delta-E=       -0.006939307733 Rises=F Damp=F
 DIIS: error= 1.55D-03 at cycle   5 NSaved=   5.
 NSaved= 5 IEnMin= 5 EnMin= -225.915100726872     IErMin= 5 ErrMin= 1.55D-03
 ErrMax= 1.55D-03 EMaxC= 1.00D-01 BMatC= 1.17D-04 BMatP= 7.64D-03
 IDIUse=3 WtCom= 9.84D-01 WtEn= 1.55D-02
 Coeff-Com:  0.591D-02 0.454D-01 0.149D+00 0.215D+00 0.585D+00
 Coeff-En:   0.000D+00 0.000D+00 0.000D+00 0.000D+00 0.100D+01
 Coeff:      0.582D-02 0.447D-01 0.146D+00 0.211D+00 0.592D+00
 Gap=     0.231 Goal=   None    Shift=    0.000
 RMSDP=1.18D-04 MaxDP=2.31D-03 DE=-6.94D-03 OVMax= 9.27D-03

 Cycle   6  Pass 0  IDiag  1:
 RMSU=  1.02D-04    CP:  9.76D-01  6.82D-01  6.85D-01  5.77D-01  7.98D-01
 E= -225.915142240428     Delta-E=       -0.000041513556 Rises=F Damp=F
 DIIS: error= 1.39D-03 at cycle   6 NSaved=   6.
 NSaved= 6 IEnMin= 6 EnMin= -225.915142240428     IErMin= 6 ErrMin= 1.39D-03
 ErrMax= 1.39D-03 EMaxC= 1.00D-01 BMatC= 7.10D-05 BMatP= 1.17D-04
 IDIUse=3 WtCom= 9.86D-01 WtEn= 1.39D-02
 Coeff-Com: -0.108D-02 0.596D-02 0.410D-01 0.828D-01 0.465D+00 0.406D+00
 Coeff-En:   0.000D+00 0.000D+00 0.000D+00 0.000D+00 0.400D+00 0.600D+00
 Coeff:     -0.106D-02 0.588D-02 0.404D-01 0.816D-01 0.465D+00 0.409D+00
 Gap=     0.231 Goal=   None    Shift=    0.000
 RMSDP=7.21D-05 MaxDP=1.86D-03 DE=-4.15D-05 OVMax= 4.51D-03

 Cycle   7  Pass 0  IDiag  1:
 RMSU=  1.43D-05    CP:  9.76D-01  6.89D-01  6.92D-01  5.74D-01  8.21D-01
                    CP:  4.22D-01
 E= -225.915206070500     Delta-E=       -0.000063830071 Rises=F Damp=F
 DIIS: error= 1.30D-04 at cycle   7 NSaved=   7.
 NSaved= 7 IEnMin= 7 EnMin= -225.915206070500     IErMin= 7 ErrMin= 1.30D-04
 ErrMax= 1.30D-04 EMaxC= 1.00D-01 BMatC= 1.01D-06 BMatP= 7.10D-05
 IDIUse=3 WtCom= 9.99D-01 WtEn= 1.30D-03
 Coeff-Com: -0.745D-03 0.173D-02 0.172D-01 0.375D-01 0.236D+00 0.223D+00
 Coeff-Com:  0.485D+00
 Coeff-En:   0.000D+00 0.000D+00 0.000D+00 0.000D+00 0.000D+00 0.000D+00
 Coeff-En:   0.100D+01
 Coeff:     -0.744D-03 0.173D-02 0.172D-01 0.374D-01 0.236D+00 0.223D+00
 Coeff:      0.485D+00
 Gap=     0.231 Goal=   None    Shift=    0.000
 RMSDP=8.95D-06 MaxDP=1.61D-04 DE=-6.38D-05 OVMax= 5.14D-04

 Initial convergence to 1.0D-05 achieved.  Increase integral accuracy.
 Cycle   8  Pass 1  IDiag  1:
 E= -225.915216535829     Delta-E=       -0.000010465329 Rises=F Damp=F
 DIIS: error= 3.97D-05 at cycle   1 NSaved=   1.
 NSaved= 1 IEnMin= 1 EnMin= -225.915216535829     IErMin= 1 ErrMin= 3.97D-05
 ErrMax= 3.97D-05 EMaxC= 1.00D-01 BMatC= 1.26D-07 BMatP= 1.26D-07
 IDIUse=1 WtCom= 1.00D+00 WtEn= 0.00D+00
 Coeff-Com:  0.100D+01
 Coeff:      0.100D+01
 Gap=     0.231 Goal=   None    Shift=    0.000
 RMSDP=8.95D-06 MaxDP=1.61D-04 DE=-1.05D-05 OVMax= 3.64D-04

 Cycle   9  Pass 1  IDiag  1:
 RMSU=  9.92D-06    CP:  1.00D+00
 E= -225.915216328126     Delta-E=        0.000000207703 Rises=F Damp=F
 DIIS: error= 7.84D-05 at cycle   2 NSaved=   2.
 NSaved= 2 IEnMin= 1 EnMin= -225.915216535829     IErMin= 1 ErrMin= 3.97D-05
 ErrMax= 7.84D-05 EMaxC= 1.00D-01 BMatC= 3.55D-07 BMatP= 1.26D-07
 IDIUse=1 WtCom= 1.00D+00 WtEn= 0.00D+00
 Coeff-Com:  0.634D+00 0.366D+00
 Coeff:      0.634D+00 0.366D+00
 Gap=     0.231 Goal=   None    Shift=    0.000
 RMSDP=4.77D-06 MaxDP=9.62D-05 DE= 2.08D-07 OVMax= 2.37D-04

 Cycle  10  Pass 1  IDiag  1:
 RMSU=  3.93D-06    CP:  1.00D+00  7.32D-01
 E= -225.915216648590     Delta-E=       -0.000000320464 Rises=F Damp=F
 DIIS: error= 1.72D-05 at cycle   3 NSaved=   3.
 NSaved= 3 IEnMin= 3 EnMin= -225.915216648590     IErMin= 3 ErrMin= 1.72D-05
 ErrMax= 1.72D-05 EMaxC= 1.00D-01 BMatC= 1.17D-08 BMatP= 1.26D-07
 IDIUse=1 WtCom= 1.00D+00 WtEn= 0.00D+00
 Coeff-Com:  0.269D+00 0.196D+00 0.535D+00
 Coeff:      0.269D+00 0.196D+00 0.535D+00
 Gap=     0.231 Goal=   None    Shift=    0.000
 RMSDP=1.34D-06 MaxDP=3.17D-05 DE=-3.20D-07 OVMax= 9.04D-05

 Cycle  11  Pass 1  IDiag  1:
 RMSU=  9.26D-07    CP:  1.00D+00  7.55D-01  7.64D-01
 E= -225.915216653987     Delta-E=       -0.000000005397 Rises=F Damp=F
 DIIS: error= 1.14D-05 at cycle   4 NSaved=   4.
 NSaved= 4 IEnMin= 4 EnMin= -225.915216653987     IErMin= 4 ErrMin= 1.14D-05
 ErrMax= 1.14D-05 EMaxC= 1.00D-01 BMatC= 5.74D-09 BMatP= 1.17D-08
 IDIUse=1 WtCom= 1.00D+00 WtEn= 0.00D+00
 Coeff-Com:  0.221D-01 0.452D-01 0.422D+00 0.511D+00
 Coeff:      0.221D-01 0.452D-01 0.422D+00 0.511D+00
 Gap=     0.231 Goal=   None    Shift=    0.000
 RMSDP=5.03D-07 MaxDP=1.01D-05 DE=-5.40D-09 OVMax= 3.73D-05

 Cycle  12  Pass 1  IDiag  1:
 RMSU=  1.49D-07    CP:  1.00D+00  7.53D-01  8.33D-01  5.72D-01
 E= -225.915216659056     Delta-E=       -0.000000005069 Rises=F Damp=F
 DIIS: error= 8.39D-07 at cycle   5 NSaved=   5.
 NSaved= 5 IEnMin= 5 EnMin= -225.915216659056     IErMin= 5 ErrMin= 8.39D-07
 ErrMax= 8.39D-07 EMaxC= 1.00D-01 BMatC= 6.07D-11 BMatP= 5.74D-09
 IDIUse=1 WtCom= 1.00D+00 WtEn= 0.00D+00
 Coeff-Com:  0.209D-02 0.149D-01 0.173D+00 0.231D+00 0.579D+00
 Coeff:      0.209D-02 0.149D-01 0.173D+00 0.231D+00 0.579D+00
 Gap=     0.231 Goal=   None    Shift=    0.000
 RMSDP=8.32D-08 MaxDP=1.17D-06 DE=-5.07D-09 OVMax= 4.24D-06

 Cycle  13  Pass 1  IDiag  1:
 RMSU=  5.27D-08    CP:  1.00D+00  7.54D-01  8.35D-01  5.68D-01  5.86D-01
 E= -225.915216659055     Delta-E=        0.000000000002 Rises=F Damp=F
 DIIS: error= 8.11D-07 at cycle   6 NSaved=   6.
 NSaved= 6 IEnMin= 5 EnMin= -225.915216659056     IErMin= 6 ErrMin= 8.11D-07
 ErrMax= 8.11D-07 EMaxC= 1.00D-01 BMatC= 2.42D-11 BMatP= 6.07D-11
 IDIUse=1 WtCom= 1.00D+00 WtEn= 0.00D+00
 Coeff-Com: -0.371D-03 0.688D-02 0.883D-01 0.121D+00 0.411D+00 0.373D+00
 Coeff:     -0.371D-03 0.688D-02 0.883D-01 0.121D+00 0.411D+00 0.373D+00
 Gap=     0.231 Goal=   None    Shift=    0.000
 RMSDP=3.32D-08 MaxDP=5.52D-07 DE= 1.59D-12 OVMax= 2.18D-06

 Cycle  14  Pass 1  IDiag  1:
 RMSU=  1.34D-08    CP:  1.00D+00  7.54D-01  8.35D-01  5.69D-01  6.38D-01
                    CP:  4.47D-01
 E= -225.915216659069     Delta-E=       -0.000000000014 Rises=F Damp=F
 DIIS: error= 6.81D-08 at cycle   7 NSaved=   7.
 NSaved= 7 IEnMin= 7 EnMin= -225.915216659069     IErMin= 7 ErrMin= 6.81D-08
 ErrMax= 6.81D-08 EMaxC= 1.00D-01 BMatC= 3.16D-13 BMatP= 2.42D-11
 IDIUse=1 WtCom= 1.00D+00 WtEn= 0.00D+00
 Coeff-Com: -0.217D-03 0.208D-02 0.272D-01 0.377D-01 0.146D+00 0.169D+00
 Coeff-Com:  0.618D+00
 Coeff:     -0.217D-03 0.208D-02 0.272D-01 0.377D-01 0.146D+00 0.169D+00
 Coeff:      0.618D+00
 Gap=     0.231 Goal=   None    Shift=    0.000
 RMSDP=5.77D-09 MaxDP=8.43D-08 DE=-1.41D-11 OVMax= 2.22D-07

 SCF Done:  E(RPBE-PBE) =  -225.915216659     A.U. after   14 cycles
             Convg  =    0.5768D-08             -V/T =  1.9949
             S**2   =   0.0000
 KE= 2.270843971929D+02 PE=-8.756370475353D+02 EE= 2.488982590989D+02
 Leave Link  502 at Tue Feb 08 14:11:28 2005, MaxMem=   24000000 cpu:      35.0
 (Enter C:\G03W\l601.exe)
 Copying SCF densities to generalized density rwf, ISCF=0 IROHF=0.

 **********************************************************************

            Population analysis using the SCF density.

 **********************************************************************

 Orbital symmetries:
       Occupied  (A') (A') (A') (A') (A') (A') (A') (A') (A') (A')
                 (A') (A") (A') (A') (A') (A") (A') (A")
       Virtual   (A") (A') (A") (A') (A') (A') (A') (A') (A') (A')
                 (A') (A") (A') (A') (A") (A') (A') (A") (A') (A')
                 (A") (A') (A') (A') (A') (A") (A') (A') (A') (A')
                 (A') (A') (A") (A') (A") (A') (A") (A") (A') (A')
                 (A") (A') (A') (A') (A") (A') (A') (A") (A') (A')
                 (A") (A') (A') (A") (A") (A') (A') (A") (A') (A')
                 (A') (A") (A') (A') (A") (A') (A") (A') (A") (A')
                 (A') (A") (A') (A') (A") (A') (A') (A') (A') (A')
                 (A') (A') (A") (A') (A") (A') (A') (A') (A') (A')
                 (A') (A') (A') (A') (A') (A')
 The electronic state is 1-A'.
 Alpha  occ. eigenvalues --  -14.04493 -13.96399  -9.87596  -9.85698  -9.83442
 Alpha  occ. eigenvalues --   -1.02758  -0.77076  -0.73058  -0.58668  -0.56123
 Alpha  occ. eigenvalues --   -0.50934  -0.42891  -0.42594  -0.38847  -0.35189
 Alpha  occ. eigenvalues --   -0.24012  -0.22181  -0.21783
 Alpha virt. eigenvalues --    0.01298   0.03066   0.05950   0.07131   0.08612
 Alpha virt. eigenvalues --    0.11486   0.20686   0.21470   0.24404   0.24948
 Alpha virt. eigenvalues --    0.34703   0.36283   0.38514   0.41107   0.41916
 Alpha virt. eigenvalues --    0.43275   0.45762   0.48097   0.49328   0.56455
 Alpha virt. eigenvalues --    0.59257   0.59696   0.61116   0.64483   0.66188
 Alpha virt. eigenvalues --    0.68274   0.68435   0.72032   0.77896   0.81503
 Alpha virt. eigenvalues --    0.86638   0.90212   0.92413   1.00195   1.07026
 Alpha virt. eigenvalues --    1.10349   1.13774   1.18893   1.20148   1.24897
 Alpha virt. eigenvalues --    1.35505   1.47931   1.51655   1.56819   1.57328
 Alpha virt. eigenvalues --    1.59740   1.62316   1.69840   1.71940   1.80442
 Alpha virt. eigenvalues --    1.83339   1.85334   1.92399   1.93888   1.95526
 Alpha virt. eigenvalues --    2.00584   2.04841   2.08418   2.13661   2.28788
 Alpha virt. eigenvalues --    2.33465   2.39995   2.45980   2.51665   2.53737
 Alpha virt. eigenvalues --    2.58329   2.58369   2.67419   2.70535   2.71072
 Alpha virt. eigenvalues --    2.73073   2.77552   2.80037   2.83419   2.91974
 Alpha virt. eigenvalues --    2.93010   3.13744   3.24773   3.38653   3.39054
 Alpha virt. eigenvalues --    3.55258   3.58275   3.58679   3.76047   3.85432
 Alpha virt. eigenvalues --    4.11992   4.17484   4.25107   4.49416   5.00331
 Alpha virt. eigenvalues --    5.56002  23.61016  24.04050  24.32320  35.32093
 Alpha virt. eigenvalues --   35.51661
          Condensed to atoms (all electrons):
              1          2          3          4          5          6
     1  H    0.571814   0.406312   0.000208  -0.036958  -0.000597   0.004862
     2  C    0.406312   5.062685  -0.063062   0.463316   0.016562  -0.077949
     3  H    0.000208  -0.063062   0.588215   0.423760  -0.005705  -0.041998
     4  C   -0.036958   0.463316   0.423760   5.043448  -0.066743   0.537914
     5  H   -0.000597   0.016562  -0.005705  -0.066743   0.561506   0.440057
     6  C    0.004862  -0.077949  -0.041998   0.537914   0.440057   4.673856
     7  N    0.009528  -0.222669   0.016135  -0.041619  -0.032351   0.578934
     8  H   -0.003406  -0.063453  -0.000191   0.016298  -0.000614   0.002646
     9  N   -0.036492   0.356258   0.009270  -0.022913   0.004137  -0.193492
              7          8          9
     1  H    0.009528  -0.003406  -0.036492
     2  C   -0.222669  -0.063453   0.356258
     3  H    0.016135  -0.000191   0.009270
     4  C   -0.041619   0.016298  -0.022913
     5  H   -0.032351  -0.000614   0.004137
     6  C    0.578934   0.002646  -0.193492
     7  N    6.557975  -0.041214   0.373261
     8  H   -0.041214   0.464604   0.403908
     9  N    0.373261   0.403908   6.252014
 Mulliken atomic charges:
              1
     1  H    0.084727
     2  C    0.122000
     3  H    0.073369
     4  C   -0.316503
     5  H    0.083749
     6  C    0.075168
     7  N   -0.197980
     8  H    0.221422
     9  N   -0.145951
 Sum of Mulliken charges=   0.00000
 Atomic charges with hydrogens summed into heavy atoms:
              1
     1  H    0.000000
     2  C    0.206727
     3  H    0.000000
     4  C   -0.243135
     5  H    0.000000
     6  C    0.158917
     7  N   -0.197980
     8  H    0.000000
     9  N    0.075471
 Sum of Mulliken charges=   0.00000
 Electronic spatial extent (au):  <R**2>=   258.7430
 Charge=     0.0000 electrons
 Dipole moment (field-independent basis, Debye):
    X=     1.9287    Y=     1.0592    Z=     0.0000  Tot=     2.2005
 Quadrupole moment (field-independent basis, Debye-Ang):
   XX=   -29.9515   YY=   -22.1409   ZZ=   -30.4762
   XY=     2.3598   XZ=     0.0000   YZ=     0.0000
 Traceless Quadrupole moment (field-independent basis, Debye-Ang):
   XX=    -2.4286   YY=     5.3819   ZZ=    -2.9533
   XY=     2.3598   XZ=     0.0000   YZ=     0.0000
 Octapole moment (field-independent basis, Debye-Ang**2):
  XXX=     7.4737  YYY=    11.2865  ZZZ=     0.0000  XYY=     0.3454
  XXY=    -2.1007  XXZ=     0.0000  XZZ=    -0.9408  YZZ=     2.2433
  YYZ=     0.0000  XYZ=     0.0000
 Hexadecapole moment (field-independent basis, Debye-Ang**3):
 XXXX=  -153.3816 YYYY=  -123.5644 ZZZZ=   -30.6002 XXXY=     6.5312
 XXXZ=     0.0000 YYYX=     0.0788 YYYZ=     0.0000 ZZZX=     0.0000
 ZZZY=     0.0000 XXYY=   -47.9776 XXZZ=   -33.0025 YYZZ=   -32.8406
 XXYZ=     0.0000 YYXZ=     0.0000 ZZXY=    -0.3762
 N-N= 1.737391745845D+02 E-N=-8.756370548245D+02  KE= 2.270843971929D+02
 Symmetry A'   KE= 2.186279552002D+02
 Symmetry A"   KE= 8.456441992626D+00
 No NMR shielding tensors so no spin-rotation constants.
 Leave Link  601 at Tue Feb 08 14:11:28 2005, MaxMem=   24000000 cpu:       0.0
 (Enter C:\G03W\l701.exe)
 Compute integral first derivatives.
 ... and contract with generalized density number  0.
 Leave Link  701 at Tue Feb 08 14:11:29 2005, MaxMem=   24000000 cpu:       0.0
 (Enter C:\G03W\l702.exe)
 L702 exits ... SP integral derivatives will be done elsewhere.
 Leave Link  702 at Tue Feb 08 14:11:30 2005, MaxMem=   24000000 cpu:       0.0
 (Enter C:\G03W\l703.exe)
 Compute integral first derivatives, UseDBF=F.
 Integral derivatives from FoFDir, PRISM(SPDF).
 Calling FoFCou, ICntrl=  2527 FMM=F ISym2X=1 I1Cent= 0 ISCF1= 0.
 FoFCou: FMM=F IPFlag=           0 FMFlag=           0 FMFlg1=           0
 NFxFlg=           0 DoJE=F BraDBF=F KetDBF=F FulRan=T.
 Petite list used in FoFCou.
 Leave Link  703 at Tue Feb 08 14:11:45 2005, MaxMem=   24000000 cpu:      15.0
 (Enter C:\G03W\l716.exe)
 Dipole        = 7.58820266D-01 4.16739793D-01 3.82312872D-32
 ***** Axes restored to original set *****
 -------------------------------------------------------------------
 Center     Atomic                   Forces (Hartrees/Bohr)
 Number     Number              X              Y              Z
 -------------------------------------------------------------------
    1          1          -0.078462229    0.000000000   -0.041326563
    2          6          -0.020259165    0.000000000   -0.055386597
    3          1           0.022591469    0.000000000   -0.085168650
    4          6          -0.009977874    0.000000000   -0.042317251
    5          1           0.086109244    0.000000000    0.010526414
    6          6           0.008257039    0.000000000    0.016538568
    7          7           0.086649861    0.000000000    0.142365699
    8          1          -0.062455999    0.000000000    0.062270015
    9          7          -0.032452346    0.000000000   -0.007501636
 -------------------------------------------------------------------
 Cartesian Forces:  Max     0.142365699 RMS     0.049264191
 Leave Link  716 at Tue Feb 08 14:11:45 2005, MaxMem=   24000000 cpu:       0.0
 (Enter C:\G03W\l103.exe)

 GradGradGradGradGradGradGradGradGradGradGradGradGradGradGradGradGradGrad
 Berny optimization.
 Internal  Forces:  Max     0.128171720 RMS     0.049215990
 Search for a local minimum.
 Step number   1 out of a maximum of  48
 All quantities printed in internal units (Hartrees-Bohrs-Radians)
 Second derivative matrix not updated -- first step.
     Eigenvalues ---    0.03204   0.03245   0.03263   0.03273   0.03342
     Eigenvalues ---    0.03375   0.16000   0.16000   0.16000   0.16000
     Eigenvalues ---    0.22000   0.22938   0.49374   0.49681   0.49740
     Eigenvalues ---    0.56490   0.56686   0.60708   0.68179   0.73042
     Eigenvalues ---    0.827791000.000001000.000001000.000001000.00000
     Eigenvalues --- 1000.000001000.000001000.000001000.000001000.00000
     Eigenvalues --- 1000.000001000.000001000.000001000.000001000.00000
     Eigenvalues --- 1000.000001000.000001000.00000
 RFO step:  Lambda=-1.23717630D-01.
 Linear search not attempted -- first point.
 Maximum step size (   0.300) exceeded in Quadratic search.
    -- Step size scaled by   0.714
 Iteration  1 RMS(Cart)=  0.06323869 RMS(Int)=  0.00067912
 Iteration  2 RMS(Cart)=  0.00084645 RMS(Int)=  0.00001074
 Iteration  3 RMS(Cart)=  0.00000050 RMS(Int)=  0.00001073
 Variable       Old X    -DE/DX   Delta X   Delta X   Delta X     New X
                                 (Linear)    (Quad)   (Total)
    R1        1.86889   0.08829   0.00000   0.10157   0.10157   1.97046
    R2        2.49307   0.08334   0.00000   0.07819   0.07821   2.57128
    R3        2.40839   0.11686   0.00000   0.09744   0.09744   2.50583
    R4        1.86829   0.08807   0.00000   0.10122   0.10122   1.96951
    R5        2.47696   0.12817   0.00000   0.11641   0.11643   2.59339
    R6        1.87202   0.08608   0.00000   0.09952   0.09952   1.97153
    R7        2.41851   0.08073   0.00000   0.06733   0.06732   2.48583
    R8        2.34237   0.12493   0.00000   0.09175   0.09173   2.43410
    R9        1.77084   0.08757   0.00000   0.08554   0.08554   1.85638
    A1        2.20252   0.01282   0.00000   0.03033   0.03032   2.23284
    A2        2.21295  -0.00268   0.00000  -0.00867  -0.00868   2.20428
    A3        1.86771  -0.01015   0.00000  -0.02166  -0.02164   1.84607
    A4        2.22327  -0.00310   0.00000  -0.00252  -0.00254   2.22073
    A5        1.83976   0.00084   0.00000  -0.00844  -0.00841   1.83135
    A6        2.22016   0.00226   0.00000   0.01096   0.01095   2.23111
    A7        2.19731   0.00078   0.00000   0.00951   0.00951   2.20682
    A8        1.89479   0.01864   0.00000   0.03180   0.03181   1.92660
    A9        2.19108  -0.01942   0.00000  -0.04131  -0.04131   2.14976
   A10        1.88850  -0.02580   0.00000  -0.04364  -0.04367   1.84482
   A11        1.93402   0.01647   0.00000   0.04194   0.04192   1.97594
   A12        2.17185   0.00105   0.00000   0.00238   0.00239   2.17424
   A13        2.17732  -0.01752   0.00000  -0.04433  -0.04432   2.13300
    D1        0.00000   0.00000   0.00000   0.00000   0.00000   0.00000
    D2        3.14159   0.00000   0.00000   0.00000   0.00000   3.14159
    D3        3.14159   0.00000   0.00000   0.00000   0.00000   3.14159
    D4        0.00000   0.00000   0.00000   0.00000   0.00000   0.00000
    D5        3.14159   0.00000   0.00000   0.00000   0.00000   3.14159
    D6        0.00000   0.00000   0.00000   0.00000   0.00000   0.00000
    D7        0.00000   0.00000   0.00000   0.00000   0.00000   0.00000
    D8        3.14159   0.00000   0.00000   0.00000   0.00000   3.14159
    D9        3.14159   0.00000   0.00000   0.00000   0.00000   3.14159
   D10        0.00000   0.00000   0.00000   0.00000   0.00000   0.00000
   D11        0.00000   0.00000   0.00000   0.00000   0.00000   0.00000
   D12        3.14159   0.00000   0.00000   0.00000   0.00000   3.14159
   D13        0.00000   0.00000   0.00000   0.00000   0.00000   0.00000
   D14        3.14159   0.00000   0.00000   0.00000   0.00000   3.14159
   D15        0.00000   0.00000   0.00000   0.00000   0.00000   0.00000
   D16        3.14159   0.00000   0.00000   0.00000   0.00000   3.14159
         Item               Value     Threshold  Converged?
 Maximum Force            0.128172     0.000450     NO 
 RMS     Force            0.049216     0.000300     NO 
 Maximum Displacement     0.176652     0.001800     NO 
 RMS     Displacement     0.063192     0.001200     NO 
 Predicted change in Energy=-6.236194D-02
 GradGradGradGradGradGradGradGradGradGradGradGradGradGradGradGradGradGrad

 Leave Link  103 at Tue Feb 08 14:11:46 2005, MaxMem=   24000000 cpu:       0.0
 (Enter C:\G03W\l202.exe)
                          Input orientation:                          
 ---------------------------------------------------------------------
 Center     Atomic     Atomic              Coordinates (Angstroms)
 Number     Number      Type              X           Y           Z
 ---------------------------------------------------------------------
    1          1             0       -2.005980    0.000000   -0.798415
    2          6             0       -1.118553    0.000000   -0.250928
    3          1             0        0.458790    0.000000   -1.722630
    4          6             0        0.156808    0.000000   -0.725120
    5          1             0        1.993399    0.000000    0.414932
    6          6             0        0.950306    0.000000    0.394584
    7          7             0        0.209209    0.000000    1.481400
    8          1             0       -1.772945    0.000000    1.691642
    9          7             0       -1.011659    0.000000    1.070785
 ---------------------------------------------------------------------
                    Distance matrix (angstroms):
                    1          2          3          4          5
     1  H    0.000000
     2  C    1.042722   0.000000
     3  H    2.632349   2.157294   0.000000
     4  C    2.164030   1.360662   1.042219   0.000000
     5  H    4.179383   3.182391   2.631387   2.161662   0.000000
     6  C    3.187926   2.167225   2.173519   1.372361   1.043291
     7  N    3.178777   2.182639   3.213737   2.207142   2.078626
     8  H    2.500938   2.049832   4.078958   3.092682   3.976849
     9  N    2.117212   1.326029   3.156800   2.142566   3.075795
                    6          7          8          9
     6  C    0.000000
     7  N    1.315444   0.000000
     8  H    3.016364   1.993273   0.000000
     9  N    2.075224   1.288070   0.982354   0.000000
 Stoichiometry    C3H4N2
 Framework group  CS[SG(C3H4N2)]
 Deg. of freedom    15
 Full point group                 CS      NOp   2
 Largest Abelian subgroup         CS      NOp   2
 Largest concise Abelian subgroup C1      NOp   1
                         Standard orientation:                         
 ---------------------------------------------------------------------
 Center     Atomic     Atomic              Coordinates (Angstroms)
 Number     Number      Type              X           Y           Z
 ---------------------------------------------------------------------
    1          1             0        2.071810    0.628644    0.000000
    2          6             0        1.082570    0.298986    0.000000
    3          1             0        1.199910   -1.855114    0.000000
    4          6             0        0.628326   -0.983614    0.000000
    5          1             0       -1.424336   -1.661379    0.000000
    6          6             0       -0.739665   -0.874180    0.000000
    7          7             0       -1.098108    0.391487    0.000000
    8          1             0        0.011987    2.047031    0.000000
    9          7             0        0.000000    1.064750    0.000000
 ---------------------------------------------------------------------
 Rotational constants (GHZ):     10.1239038      9.9406813      5.0157280
 Leave Link  202 at Tue Feb 08 14:11:47 2005, MaxMem=   24000000 cpu:       0.0
 (Enter C:\G03W\l301.exe)
 Standard basis: 6-311G(d,p) (5D, 7F)
 There are    85 symmetry adapted basis functions of A'  symmetry.
 There are    29 symmetry adapted basis functions of A"  symmetry.
 Integral buffers will be    262144 words long.
 Raffenetti 2 integral format.
 Two-electron integral symmetry is turned on.
   114 basis functions,   192 primitive gaussians,   119 cartesian basis functions
    18 alpha electrons       18 beta electrons
       nuclear repulsion energy       167.2803779129 Hartrees.
 IExCor=1009 DFT=T Ex=PBE Corr=PBE ExCW=0 ScaHFX=  0.000000
 ScaDFX=  1.000000  1.000000  1.000000  1.000000
 IRadAn=      0 IRanWt=     -1 IRanGd=            0 ICorTp=0
 NAtoms=    9 NActive=    9 NUniq=    9 SFac= 1.00D+00 NAtFMM=   60 Big=F
 Leave Link  301 at Tue Feb 08 14:11:47 2005, MaxMem=   24000000 cpu:       0.0
 (Enter C:\G03W\l302.exe)
 NPDir=0 NMtPBC=     1 NCelOv=     1 NCel=       1 NClECP=     1 NCelD=      1
         NCelK=      1 NCelE2=     1 NClLst=     1 CellRange=     0.0.
 One-electron integrals computed using PRISM.
 NBasis=   114 RedAO= T  NBF=    85    29
 NBsUse=   114 1.00D-06 NBFU=    85    29
 Precomputing XC quadrature grid using
 IXCGrd= 2 IRadAn=           0 IRanWt=          -1 IRanGd=           0.
 NRdTot=     564 NPtTot=       71150 NUsed=       73707 NTot=       73723
 NSgBfM=   119   119   119   119.
 Leave Link  302 at Tue Feb 08 14:11:48 2005, MaxMem=   24000000 cpu:       0.0
 (Enter C:\G03W\l303.exe)
 DipDrv:  MaxL=1.
 Leave Link  303 at Tue Feb 08 14:11:49 2005, MaxMem=   24000000 cpu:       0.0
 (Enter C:\G03W\l401.exe)
 Initial guess read from the read-write file:
 Guess basis will be translated and rotated to current coordinates.
 Initial guess orbital symmetries:
       Occupied  (A') (A') (A') (A') (A') (A') (A') (A') (A') (A')
                 (A') (A") (A') (A') (A') (A") (A') (A")
       Virtual   (A") (A') (A") (A') (A') (A') (A') (A') (A') (A')
                 (A') (A") (A') (A') (A") (A') (A') (A") (A') (A')
                 (A") (A') (A') (A') (A') (A") (A') (A') (A') (A')
                 (A') (A') (A") (A') (A") (A') (A") (A") (A') (A')
                 (A") (A') (A') (A') (A") (A') (A') (A") (A') (A')
                 (A") (A') (A') (A") (A") (A') (A') (A") (A') (A')
                 (A') (A") (A') (A') (A") (A') (A") (A') (A") (A')
                 (A') (A") (A') (A') (A") (A') (A') (A') (A') (A')
                 (A') (A') (A") (A') (A") (A') (A') (A') (A') (A')
                 (A') (A') (A') (A') (A') (A')
 The electronic state of the initial guess is 1-A'.
 Generating alternative initial guess.
 Harris functional with IExCor= 1009 diagonalized for initial guess.
 ExpMin= 1.03D-01 ExpMax= 6.29D+03 ExpMxC= 9.49D+02 IAcc=1 IRadAn=         1 AccDes= 1.00D-06
 HarFok:  IExCor=1009 AccDes= 1.00D-06 IRadAn=         1 IDoV=1
 ScaDFX=  1.000000  1.000000  1.000000  1.000000
 Harris En= -226.137917956437    
 Leave Link  401 at Tue Feb 08 14:11:50 2005, MaxMem=   24000000 cpu:       1.0
 (Enter C:\G03W\l502.exe)
 Closed shell SCF:
 Requested convergence on RMS density matrix=1.00D-08 within 128 cycles.
 Requested convergence on MAX density matrix=1.00D-06.
 Requested convergence on             energy=1.00D-06.
 No special actions if energy rises.
 Using DIIS extrapolation, IDIIS=  1040.
 Integral symmetry usage will be decided dynamically.
        73706 words used for storage of precomputed grid.
 IEnd=    138154 IEndB=    138154 NGot=  24000000 MDV=  23892767
 LenX=  23892767
 Fock matrices will be formed incrementally for  20 cycles.
 Integral accuracy reduced to 1.0D-05 until final iterations.

 Cycle   1  Pass 0  IDiag  1:
 FoFCou: FMM=F IPFlag=           0 FMFlag=           0 FMFlg1=           0
 NFxFlg=           0 DoJE=T BraDBF=F KetDBF=F FulRan=T.
 Petite list used in FoFCou.
 E= -225.968683833388    
 DIIS: error= 7.66D-03 at cycle   1 NSaved=   1.
 NSaved= 1 IEnMin= 1 EnMin= -225.968683833388     IErMin= 1 ErrMin= 7.66D-03
 ErrMax= 7.66D-03 EMaxC= 1.00D-01 BMatC= 7.90D-03 BMatP= 7.90D-03
 IDIUse=3 WtCom= 9.23D-01 WtEn= 7.66D-02
 Coeff-Com:  0.100D+01
 Coeff-En:   0.100D+01
 Coeff:      0.100D+01
 Gap=     0.220 Goal=   None    Shift=    0.000
 GapD=    0.220 DampG=1.000 DampE=1.000 DampFc=1.0000 IDamp=-1.
 RMSDP=1.13D-03 MaxDP=2.46D-02              OVMax= 2.29D-02

 Cycle   2  Pass 0  IDiag  1:
 RMSU=  1.13D-03    CP:  9.99D-01
 E= -225.973367909541     Delta-E=       -0.004684076153 Rises=F Damp=F
 DIIS: error= 4.49D-03 at cycle   2 NSaved=   2.
 NSaved= 2 IEnMin= 2 EnMin= -225.973367909541     IErMin= 2 ErrMin= 4.49D-03
 ErrMax= 4.49D-03 EMaxC= 1.00D-01 BMatC= 1.68D-03 BMatP= 7.90D-03
 IDIUse=3 WtCom= 9.55D-01 WtEn= 4.49D-02
 Coeff-Com:  0.254D+00 0.746D+00
 Coeff-En:   0.000D+00 0.100D+01
 Coeff:      0.243D+00 0.757D+00
 Gap=     0.216 Goal=   None    Shift=    0.000
 RMSDP=4.75D-04 MaxDP=9.27D-03 DE=-4.68D-03 OVMax= 1.58D-02

 Cycle   3  Pass 0  IDiag  1:
 RMSU=  4.72D-04    CP:  1.00D+00  9.81D-01
 E= -225.973743618213     Delta-E=       -0.000375708672 Rises=F Damp=F
 DIIS: error= 3.52D-03 at cycle   3 NSaved=   3.
 NSaved= 3 IEnMin= 3 EnMin= -225.973743618213     IErMin= 3 ErrMin= 3.52D-03
 ErrMax= 3.52D-03 EMaxC= 1.00D-01 BMatC= 1.36D-03 BMatP= 1.68D-03
 IDIUse=3 WtCom= 9.65D-01 WtEn= 3.52D-02
 Coeff-Com:  0.429D-01 0.469D+00 0.488D+00
 Coeff-En:   0.000D+00 0.440D+00 0.560D+00
 Coeff:      0.414D-01 0.468D+00 0.490D+00
 Gap=     0.216 Goal=   None    Shift=    0.000
 RMSDP=2.67D-04 MaxDP=4.69D-03 DE=-3.76D-04 OVMax= 1.28D-02

 Cycle   4  Pass 0  IDiag  1:
 RMSU=  1.58D-04    CP:  9.99D-01  1.00D+00  5.60D-01
 E= -225.974796942009     Delta-E=       -0.001053323796 Rises=F Damp=F
 DIIS: error= 1.43D-03 at cycle   4 NSaved=   4.
 NSaved= 4 IEnMin= 4 EnMin= -225.974796942009     IErMin= 4 ErrMin= 1.43D-03
 ErrMax= 1.43D-03 EMaxC= 1.00D-01 BMatC= 1.55D-04 BMatP= 1.36D-03
 IDIUse=3 WtCom= 9.86D-01 WtEn= 1.43D-02
 Coeff-Com:  0.151D-01 0.278D+00 0.332D+00 0.375D+00
 Coeff-En:   0.000D+00 0.000D+00 0.862D-02 0.991D+00
 Coeff:      0.149D-01 0.274D+00 0.328D+00 0.384D+00
 Gap=     0.216 Goal=   None    Shift=    0.000
 RMSDP=1.06D-04 MaxDP=2.23D-03 DE=-1.05D-03 OVMax= 6.64D-03

 Cycle   5  Pass 0  IDiag  1:
 RMSU=  5.26D-05    CP:  9.99D-01  9.79D-01  5.49D-01  4.43D-01
 E= -225.974919519873     Delta-E=       -0.000122577864 Rises=F Damp=F
 DIIS: error= 5.05D-04 at cycle   5 NSaved=   5.
 NSaved= 5 IEnMin= 5 EnMin= -225.974919519873     IErMin= 5 ErrMin= 5.05D-04
 ErrMax= 5.05D-04 EMaxC= 1.00D-01 BMatC= 1.00D-05 BMatP= 1.55D-04
 IDIUse=3 WtCom= 9.95D-01 WtEn= 5.05D-03
 Coeff-Com:  0.258D-02 0.891D-01 0.116D+00 0.235D+00 0.556D+00
 Coeff-En:   0.000D+00 0.000D+00 0.000D+00 0.732D-01 0.927D+00
 Coeff:      0.257D-02 0.887D-01 0.116D+00 0.235D+00 0.558D+00
 Gap=     0.216 Goal=   None    Shift=    0.000
 RMSDP=3.04D-05 MaxDP=4.69D-04 DE=-1.23D-04 OVMax= 2.29D-03

 Cycle   6  Pass 0  IDiag  1:
 RMSU=  1.27D-05    CP:  9.99D-01  9.84D-01  5.45D-01  5.31D-01  5.61D-01
 E= -225.974928267297     Delta-E=       -0.000008747424 Rises=F Damp=F
 DIIS: error= 2.34D-04 at cycle   6 NSaved=   6.
 NSaved= 6 IEnMin= 6 EnMin= -225.974928267297     IErMin= 6 ErrMin= 2.34D-04
 ErrMax= 2.34D-04 EMaxC= 1.00D-01 BMatC= 1.85D-06 BMatP= 1.00D-05
 IDIUse=3 WtCom= 9.98D-01 WtEn= 2.34D-03
 Coeff-Com:  0.496D-03 0.409D-01 0.554D-01 0.129D+00 0.385D+00 0.389D+00
 Coeff-En:   0.000D+00 0.000D+00 0.000D+00 0.000D+00 0.132D+00 0.868D+00
 Coeff:      0.495D-03 0.408D-01 0.552D-01 0.129D+00 0.384D+00 0.390D+00
 Gap=     0.216 Goal=   None    Shift=    0.000
 RMSDP=8.87D-06 MaxDP=1.63D-04 DE=-8.75D-06 OVMax= 5.86D-04

 Initial convergence to 1.0D-05 achieved.  Increase integral accuracy.
 Cycle   7  Pass 1  IDiag  1:
 E= -225.974935875394     Delta-E=       -0.000007608097 Rises=F Damp=F
 DIIS: error= 4.24D-05 at cycle   1 NSaved=   1.
 NSaved= 1 IEnMin= 1 EnMin= -225.974935875394     IErMin= 1 ErrMin= 4.24D-05
 ErrMax= 4.24D-05 EMaxC= 1.00D-01 BMatC= 1.13D-07 BMatP= 1.13D-07
 IDIUse=1 WtCom= 1.00D+00 WtEn= 0.00D+00
 Coeff-Com:  0.100D+01
 Coeff:      0.100D+01
 Gap=     0.216 Goal=   None    Shift=    0.000
 RMSDP=8.87D-06 MaxDP=1.63D-04 DE=-7.61D-06 OVMax= 4.69D-04

 Cycle   8  Pass 1  IDiag  1:
 RMSU=  8.36D-06    CP:  1.00D+00
 E= -225.974935479258     Delta-E=        0.000000396136 Rises=F Damp=F
 DIIS: error= 1.09D-04 at cycle   2 NSaved=   2.
 NSaved= 2 IEnMin= 1 EnMin= -225.974935875394     IErMin= 1 ErrMin= 4.24D-05
 ErrMax= 1.09D-04 EMaxC= 1.00D-01 BMatC= 5.32D-07 BMatP= 1.13D-07
 IDIUse=3 WtCom= 4.89D-01 WtEn= 5.11D-01
 Coeff-Com:  0.694D+00 0.306D+00
 Coeff-En:   0.783D+00 0.217D+00
 Coeff:      0.739D+00 0.261D+00
 Gap=     0.216 Goal=   None    Shift=    0.000
 RMSDP=4.11D-06 MaxDP=7.27D-05 DE= 3.96D-07 OVMax= 3.09D-04

 Cycle   9  Pass 1  IDiag  1:
 RMSU=  2.96D-06    CP:  1.00D+00  6.61D-01
 E= -225.974935976516     Delta-E=       -0.000000497258 Rises=F Damp=F
 DIIS: error= 8.75D-06 at cycle   3 NSaved=   3.
 NSaved= 3 IEnMin= 3 EnMin= -225.974935976516     IErMin= 3 ErrMin= 8.75D-06
 ErrMax= 8.75D-06 EMaxC= 1.00D-01 BMatC= 5.14D-09 BMatP= 1.13D-07
 IDIUse=1 WtCom= 1.00D+00 WtEn= 0.00D+00
 Coeff-Com:  0.188D+00 0.230D-01 0.789D+00
 Coeff:      0.188D+00 0.230D-01 0.789D+00
 Gap=     0.216 Goal=   None    Shift=    0.000
 RMSDP=7.55D-07 MaxDP=1.17D-05 DE=-4.97D-07 OVMax= 3.65D-05

 Cycle  10  Pass 1  IDiag  1:
 RMSU=  7.30D-07    CP:  1.00D+00  6.40D-01  1.03D+00
 E= -225.974935978372     Delta-E=       -0.000000001857 Rises=F Damp=F
 DIIS: error= 6.68D-06 at cycle   4 NSaved=   4.
 NSaved= 4 IEnMin= 4 EnMin= -225.974935978372     IErMin= 4 ErrMin= 6.68D-06
 ErrMax= 6.68D-06 EMaxC= 1.00D-01 BMatC= 2.88D-09 BMatP= 5.14D-09
 IDIUse=1 WtCom= 1.00D+00 WtEn= 0.00D+00
 Coeff-Com:  0.538D-01-0.176D-01 0.531D+00 0.433D+00
 Coeff:      0.538D-01-0.176D-01 0.531D+00 0.433D+00
 Gap=     0.216 Goal=   None    Shift=    0.000
 RMSDP=4.98D-07 MaxDP=9.32D-06 DE=-1.86D-09 OVMax= 3.34D-05

 Cycle  11  Pass 1  IDiag  1:
 RMSU=  2.46D-07    CP:  1.00D+00  6.41D-01  1.04D+00  4.10D-01
 E= -225.974935980574     Delta-E=       -0.000000002202 Rises=F Damp=F
 DIIS: error= 2.56D-06 at cycle   5 NSaved=   5.
 NSaved= 5 IEnMin= 5 EnMin= -225.974935980574     IErMin= 5 ErrMin= 2.56D-06
 ErrMax= 2.56D-06 EMaxC= 1.00D-01 BMatC= 4.84D-10 BMatP= 2.88D-09
 IDIUse=1 WtCom= 1.00D+00 WtEn= 0.00D+00
 Coeff-Com:  0.674D-02-0.181D-01 0.254D+00 0.307D+00 0.450D+00
 Coeff:      0.674D-02-0.181D-01 0.254D+00 0.307D+00 0.450D+00
 Gap=     0.216 Goal=   None    Shift=    0.000
 RMSDP=1.72D-07 MaxDP=3.80D-06 DE=-2.20D-09 OVMax= 1.21D-05

 Cycle  12  Pass 1  IDiag  1:
 RMSU=  7.07D-08    CP:  1.00D+00  6.39D-01  1.05D+00  5.12D-01  4.57D-01
 E= -225.974935980984     Delta-E=       -0.000000000410 Rises=F Damp=F
 DIIS: error= 6.40D-07 at cycle   6 NSaved=   6.
 NSaved= 6 IEnMin= 6 EnMin= -225.974935980984     IErMin= 6 ErrMin= 6.40D-07
 ErrMax= 6.40D-07 EMaxC= 1.00D-01 BMatC= 2.29D-11 BMatP= 4.84D-10
 IDIUse=1 WtCom= 1.00D+00 WtEn= 0.00D+00
 Coeff-Com: -0.936D-03-0.923D-02 0.981D-01 0.135D+00 0.264D+00 0.512D+00
 Coeff:     -0.936D-03-0.923D-02 0.981D-01 0.135D+00 0.264D+00 0.512D+00
 Gap=     0.216 Goal=   None    Shift=    0.000
 RMSDP=3.66D-08 MaxDP=8.87D-07 DE=-4.10D-10 OVMax= 2.32D-06

 Cycle  13  Pass 1  IDiag  1:
 RMSU=  9.63D-09    CP:  1.00D+00  6.39D-01  1.05D+00  5.04D-01  4.91D-01
                    CP:  5.41D-01
 E= -225.974935981005     Delta-E=       -0.000000000021 Rises=F Damp=F
 DIIS: error= 8.54D-08 at cycle   7 NSaved=   7.
 NSaved= 7 IEnMin= 7 EnMin= -225.974935981005     IErMin= 7 ErrMin= 8.54D-08
 ErrMax= 8.54D-08 EMaxC= 1.00D-01 BMatC= 4.34D-13 BMatP= 2.29D-11
 IDIUse=1 WtCom= 1.00D+00 WtEn= 0.00D+00
 Coeff-Com: -0.525D-03-0.473D-02 0.497D-01 0.694D-01 0.137D+00 0.283D+00
 Coeff-Com:  0.466D+00
 Coeff:     -0.525D-03-0.473D-02 0.497D-01 0.694D-01 0.137D+00 0.283D+00
 Coeff:      0.466D+00
 Gap=     0.216 Goal=   None    Shift=    0.000
 RMSDP=4.66D-09 MaxDP=9.38D-08 DE=-2.06D-11 OVMax= 3.27D-07

 SCF Done:  E(RPBE-PBE) =  -225.974935981     A.U. after   13 cycles
             Convg  =    0.4657D-08             -V/T =  1.9998
             S**2   =   0.0000
 KE= 2.260230629562D+02 PE=-8.620648213577D+02 EE= 2.427864445076D+02
 Leave Link  502 at Tue Feb 08 14:12:22 2005, MaxMem=   24000000 cpu:      32.0
 (Enter C:\G03W\l701.exe)
 Compute integral first derivatives.
 ... and contract with generalized density number  0.
 Leave Link  701 at Tue Feb 08 14:12:23 2005, MaxMem=   24000000 cpu:       0.0
 (Enter C:\G03W\l702.exe)
 L702 exits ... SP integral derivatives will be done elsewhere.
 Leave Link  702 at Tue Feb 08 14:12:23 2005, MaxMem=   24000000 cpu:       0.0
 (Enter C:\G03W\l703.exe)
 Compute integral first derivatives, UseDBF=F.
 Integral derivatives from FoFDir, PRISM(SPDF).
 Calling FoFCou, ICntrl=  2527 FMM=F ISym2X=1 I1Cent= 0 ISCF1= 0.
 FoFCou: FMM=F IPFlag=           0 FMFlag=           0 FMFlg1=           0
 NFxFlg=           0 DoJE=F BraDBF=F KetDBF=F FulRan=T.
 Petite list used in FoFCou.
 Leave Link  703 at Tue Feb 08 14:12:38 2005, MaxMem=   24000000 cpu:      14.0
 (Enter C:\G03W\l716.exe)
 Dipole        = 7.86008218D-01 3.92861067D-01 2.28555425D-31
 ***** Axes restored to original set *****
 -------------------------------------------------------------------
 Center     Atomic                   Forces (Hartrees/Bohr)
 Number     Number              X              Y              Z
 -------------------------------------------------------------------
    1          1          -0.032101425    0.000000000   -0.011809874
    2          6           0.000132908    0.000000000   -0.023570689
    3          1           0.008845178    0.000000000   -0.032577070
    4          6          -0.002073706    0.000000000   -0.011707836
    5          1           0.033461186    0.000000000    0.007055544
    6          6          -0.000009424    0.000000000   -0.001397864
    7          7           0.041638641    0.000000000    0.056849650
    8          1          -0.020448359    0.000000000    0.025124257
    9          7          -0.029444999    0.000000000   -0.007966118
 -------------------------------------------------------------------
 Cartesian Forces:  Max     0.056849650 RMS     0.020297164
 Leave Link  716 at Tue Feb 08 14:12:39 2005, MaxMem=   24000000 cpu:       0.0
 (Enter C:\G03W\l103.exe)

 GradGradGradGradGradGradGradGradGradGradGradGradGradGradGradGradGradGrad
 Berny optimization.
 Internal  Forces:  Max     0.055666698 RMS     0.018990117
 Search for a local minimum.
 Step number   2 out of a maximum of  48
 All quantities printed in internal units (Hartrees-Bohrs-Radians)
 Update second derivatives using D2CorX and points  1  2
 Trust test= 9.58D-01 RLast= 3.00D-01 DXMaxT set to 4.24D-01
     Eigenvalues ---    0.03204   0.03247   0.03260   0.03273   0.03342
     Eigenvalues ---    0.03375   0.15901   0.16000   0.16000   0.16016
     Eigenvalues ---    0.22018   0.23514   0.49439   0.49711   0.50815
     Eigenvalues ---    0.57128   0.58014   0.61533   0.68508   0.72681
     Eigenvalues ---    0.810401000.000001000.000001000.000001000.00000
     Eigenvalues --- 1000.000001000.000001000.000001000.000001000.00000
     Eigenvalues --- 1000.000001000.000001000.000001000.000001000.00000
     Eigenvalues --- 1000.000001000.000001000.00000
 RFO step:  Lambda=-2.34400226D-03.
 Quartic linear search produced a step of  0.81513.
 Iteration  1 RMS(Cart)=  0.05837209 RMS(Int)=  0.00137859
 Iteration  2 RMS(Cart)=  0.00166476 RMS(Int)=  0.00003569
 Iteration  3 RMS(Cart)=  0.00000282 RMS(Int)=  0.00003560
 Iteration  4 RMS(Cart)=  0.00000000 RMS(Int)=  0.00003560
 Variable       Old X    -DE/DX   Delta X   Delta X   Delta X     New X
                                 (Linear)    (Quad)   (Total)
    R1        1.97046   0.03352   0.08279   0.00344   0.08623   2.05669
    R2        2.57128   0.03197   0.06375  -0.00111   0.06259   2.63387
    R3        2.50583   0.04213   0.07942  -0.00745   0.07193   2.57776
    R4        1.96951   0.03374   0.08251   0.00452   0.08702   2.05653
    R5        2.59339   0.04487   0.09490  -0.01406   0.08087   2.67425
    R6        1.97153   0.03359   0.08112   0.00683   0.08795   2.05948
    R7        2.48583   0.03114   0.05487  -0.00053   0.05441   2.54023
    R8        2.43410   0.05567   0.07478   0.01416   0.08895   2.52305
    R9        1.85638   0.03172   0.06973  -0.00469   0.06503   1.92141
    A1        2.23284   0.00740   0.02472   0.04458   0.06935   2.30219
    A2        2.20428  -0.00603  -0.00707  -0.05700  -0.06403   2.14025
    A3        1.84607  -0.00137  -0.01764   0.01243  -0.00532   1.84075
    A4        2.22073  -0.00163  -0.00207  -0.00007  -0.00212   2.21861
    A5        1.83135   0.00133  -0.00686  -0.00472  -0.01161   1.81973
    A6        2.23111   0.00030   0.00892   0.00479   0.01373   2.24484
    A7        2.20682   0.00264   0.00775   0.03608   0.04380   2.25062
    A8        1.92660   0.00732   0.02593   0.00550   0.03150   1.95810
    A9        2.14976  -0.00996  -0.03368  -0.04159  -0.07530   2.07447
   A10        1.84482  -0.00945  -0.03560   0.00049  -0.03500   1.80982
   A11        1.97594   0.00217   0.03417  -0.01370   0.02044   1.99638
   A12        2.17424   0.00500   0.00195   0.04584   0.04781   2.22205
   A13        2.13300  -0.00717  -0.03612  -0.03213  -0.06824   2.06476
    D1        0.00000   0.00000   0.00000   0.00000   0.00000   0.00000
    D2        3.14159   0.00000   0.00000   0.00000   0.00000   3.14159
    D3        3.14159   0.00000   0.00000   0.00000   0.00000   3.14159
    D4        0.00000   0.00000   0.00000   0.00000   0.00000   0.00000
    D5        3.14159   0.00000   0.00000   0.00000   0.00000   3.14159
    D6        0.00000   0.00000   0.00000   0.00000   0.00000   0.00000
    D7        0.00000   0.00000   0.00000   0.00000   0.00000   0.00000
    D8        3.14159   0.00000   0.00000   0.00000   0.00000   3.14159
    D9        3.14159   0.00000   0.00000   0.00000   0.00000   3.14159
   D10        0.00000   0.00000   0.00000   0.00000   0.00000   0.00000
   D11        0.00000   0.00000   0.00000   0.00000   0.00000   0.00000
   D12        3.14159   0.00000   0.00000   0.00000   0.00000   3.14159
   D13        0.00000   0.00000   0.00000   0.00000   0.00000   0.00000
   D14        3.14159   0.00000   0.00000   0.00000   0.00000   3.14159
   D15        0.00000   0.00000   0.00000   0.00000   0.00000   0.00000
   D16        3.14159   0.00000   0.00000   0.00000   0.00000   3.14159
         Item               Value     Threshold  Converged?
 Maximum Force            0.055667     0.000450     NO 
 RMS     Force            0.018990     0.000300     NO 
 Maximum Displacement     0.178174     0.001800     NO 
 RMS     Displacement     0.058357     0.001200     NO 
 Predicted change in Energy=-9.959771D-03
 GradGradGradGradGradGradGradGradGradGradGradGradGradGradGradGradGradGrad

 Leave Link  103 at Tue Feb 08 14:12:39 2005, MaxMem=   24000000 cpu:       0.0
 (Enter C:\G03W\l202.exe)
                          Input orientation:                          
 ---------------------------------------------------------------------
 Center     Atomic     Atomic              Coordinates (Angstroms)
 Number     Number      Type              X           Y           Z
 ---------------------------------------------------------------------
    1          1             0       -2.100266    0.000000   -0.799776
    2          6             0       -1.138973    0.000000   -0.289454
    3          1             0        0.487564    0.000000   -1.809969
    4          6             0        0.169655    0.000000   -0.769169
    5          1             0        2.055452    0.000000    0.485136
    6          6             0        0.969065    0.000000    0.398565
    7          7             0        0.228809    0.000000    1.520611
    8          1             0       -1.783895    0.000000    1.750188
    9          7             0       -1.028036    0.000000    1.070118
 ---------------------------------------------------------------------
                    Distance matrix (angstroms):
                    1          2          3          4          5
     1  H    0.000000
     2  C    1.088354   0.000000
     3  H    2.778013   2.226565   0.000000
     4  C    2.270127   1.393784   1.088270   0.000000
     5  H    4.349827   3.286996   2.779529   2.264843   0.000000
     6  C    3.294968   2.217474   2.260413   1.415154   1.089831
     7  N    3.287672   2.268735   3.340617   2.290544   2.099723
     8  H    2.569515   2.139174   4.223062   3.188028   4.042394
     9  N    2.155500   1.364090   3.254528   2.194867   3.138488
                    6          7          8          9
     6  C    0.000000
     7  N    1.344234   0.000000
     8  H    3.066867   2.025755   0.000000
     9  N    2.106988   1.335142   1.016768   0.000000
 Stoichiometry    C3H4N2
 Framework group  CS[SG(C3H4N2)]
 Deg. of freedom    15
 Full point group                 CS      NOp   2
 Largest Abelian subgroup         CS      NOp   2
 Largest concise Abelian subgroup C1      NOp   1
                         Standard orientation:                         
 ---------------------------------------------------------------------
 Center     Atomic     Atomic              Coordinates (Angstroms)
 Number     Number      Type              X           Y           Z
 ---------------------------------------------------------------------
    1          1             0        2.125347    0.722130    0.000000
    2          6             0        1.120655    0.303672    0.000000
    3          1             0        1.262206   -1.918389    0.000000
    4          6             0        0.660135   -1.011834    0.000000
    5          1             0       -1.506376   -1.671942    0.000000
    6          6             0       -0.749567   -0.887740    0.000000
    7          7             0       -1.146174    0.396655    0.000000
    8          1             0       -0.045293    2.097168    0.000000
    9          7             0        0.000000    1.081409    0.000000
 ---------------------------------------------------------------------
 Rotational constants (GHZ):      9.6276022      9.3162002      4.7346709
 Leave Link  202 at Tue Feb 08 14:12:40 2005, MaxMem=   24000000 cpu:       0.0
 (Enter C:\G03W\l301.exe)
 Standard basis: 6-311G(d,p) (5D, 7F)
 There are    85 symmetry adapted basis functions of A'  symmetry.
 There are    29 symmetry adapted basis functions of A"  symmetry.
 Integral buffers will be    262144 words long.
 Raffenetti 2 integral format.
 Two-electron integral symmetry is turned on.
   114 basis functions,   192 primitive gaussians,   119 cartesian basis functions
    18 alpha electrons       18 beta electrons
       nuclear repulsion energy       162.4403942286 Hartrees.
 IExCor=1009 DFT=T Ex=PBE Corr=PBE ExCW=0 ScaHFX=  0.000000
 ScaDFX=  1.000000  1.000000  1.000000  1.000000
 IRadAn=      0 IRanWt=     -1 IRanGd=            0 ICorTp=0
 NAtoms=    9 NActive=    9 NUniq=    9 SFac= 1.00D+00 NAtFMM=   60 Big=F
 Leave Link  301 at Tue Feb 08 14:12:41 2005, MaxMem=   24000000 cpu:       0.0
 (Enter C:\G03W\l302.exe)
 NPDir=0 NMtPBC=     1 NCelOv=     1 NCel=       1 NClECP=     1 NCelD=      1
         NCelK=      1 NCelE2=     1 NClLst=     1 CellRange=     0.0.
 One-electron integrals computed using PRISM.
 NBasis=   114 RedAO= T  NBF=    85    29
 NBsUse=   114 1.00D-06 NBFU=    85    29
 Precomputing XC quadrature grid using
 IXCGrd= 2 IRadAn=           0 IRanWt=          -1 IRanGd=           0.
 NRdTot=     564 NPtTot=       71150 NUsed=       73707 NTot=       73723
 NSgBfM=   119   119   119   119.
 Leave Link  302 at Tue Feb 08 14:12:42 2005, MaxMem=   24000000 cpu:       1.0
 (Enter C:\G03W\l303.exe)
 DipDrv:  MaxL=1.
 Leave Link  303 at Tue Feb 08 14:12:42 2005, MaxMem=   24000000 cpu:       0.0
 (Enter C:\G03W\l401.exe)
 Initial guess read from the read-write file:
 Guess basis will be translated and rotated to current coordinates.
 Initial guess orbital symmetries:
       Occupied  (A') (A') (A') (A') (A') (A') (A') (A') (A') (A')
                 (A') (A') (A") (A') (A') (A') (A") (A")
       Virtual   (A") (A') (A") (A') (A') (A') (A') (A') (A') (A')
                 (A') (A') (A") (A') (A') (A') (A") (A') (A") (A')
                 (A') (A") (A') (A') (A') (A") (A') (A') (A') (A')
                 (A') (A') (A") (A') (A") (A') (A") (A") (A') (A')
                 (A") (A') (A') (A") (A') (A') (A') (A') (A") (A")
                 (A') (A') (A') (A") (A") (A') (A') (A") (A') (A')
                 (A') (A") (A') (A") (A') (A') (A") (A') (A') (A")
                 (A') (A') (A') (A") (A') (A") (A') (A') (A') (A')
                 (A') (A') (A") (A') (A") (A') (A') (A') (A') (A')
                 (A') (A') (A') (A') (A') (A')
 The electronic state of the initial guess is 1-A'.
 Generating alternative initial guess.
 Harris functional with IExCor= 1009 diagonalized for initial guess.
 ExpMin= 1.03D-01 ExpMax= 6.29D+03 ExpMxC= 9.49D+02 IAcc=1 IRadAn=         1 AccDes= 1.00D-06
 HarFok:  IExCor=1009 AccDes= 1.00D-06 IRadAn=         1 IDoV=1
 ScaDFX=  1.000000  1.000000  1.000000  1.000000
 Harris En= -226.120420250752    
 Leave Link  401 at Tue Feb 08 14:12:43 2005, MaxMem=   24000000 cpu:       0.0
 (Enter C:\G03W\l502.exe)
 Closed shell SCF:
 Requested convergence on RMS density matrix=1.00D-08 within 128 cycles.
 Requested convergence on MAX density matrix=1.00D-06.
 Requested convergence on             energy=1.00D-06.
 No special actions if energy rises.
 Using DIIS extrapolation, IDIIS=  1040.
 Integral symmetry usage will be decided dynamically.
        73706 words used for storage of precomputed grid.
 IEnd=    138154 IEndB=    138154 NGot=  24000000 MDV=  23892767
 LenX=  23892767
 Fock matrices will be formed incrementally for  20 cycles.
 Integral accuracy reduced to 1.0D-05 until final iterations.

 Cycle   1  Pass 0  IDiag  1:
 FoFCou: FMM=F IPFlag=           0 FMFlag=           0 FMFlg1=           0
 NFxFlg=           0 DoJE=T BraDBF=F KetDBF=F FulRan=T.
 Petite list used in FoFCou.
 E= -225.984558459450    
 DIIS: error= 4.80D-03 at cycle   1 NSaved=   1.
 NSaved= 1 IEnMin= 1 EnMin= -225.984558459450     IErMin= 1 ErrMin= 4.80D-03
 ErrMax= 4.80D-03 EMaxC= 1.00D-01 BMatC= 4.73D-03 BMatP= 4.73D-03
 IDIUse=3 WtCom= 9.52D-01 WtEn= 4.80D-02
 Coeff-Com:  0.100D+01
 Coeff-En:   0.100D+01
 Coeff:      0.100D+01
 Gap=     0.206 Goal=   None    Shift=    0.000
 GapD=    0.206 DampG=1.000 DampE=1.000 DampFc=1.0000 IDamp=-1.
 RMSDP=8.50D-04 MaxDP=1.70D-02              OVMax= 1.96D-02

 Cycle   2  Pass 0  IDiag  1:
 RMSU=  8.50D-04    CP:  1.00D+00
 E= -225.987968958409     Delta-E=       -0.003410498959 Rises=F Damp=F
 DIIS: error= 3.00D-03 at cycle   2 NSaved=   2.
 NSaved= 2 IEnMin= 2 EnMin= -225.987968958409     IErMin= 2 ErrMin= 3.00D-03
 ErrMax= 3.00D-03 EMaxC= 1.00D-01 BMatC= 9.41D-04 BMatP= 4.73D-03
 IDIUse=3 WtCom= 9.70D-01 WtEn= 3.00D-02
 Coeff-Com:  0.244D+00 0.756D+00
 Coeff-En:   0.000D+00 0.100D+01
 Coeff:      0.236D+00 0.764D+00
 Gap=     0.203 Goal=   None    Shift=    0.000
 RMSDP=3.60D-04 MaxDP=7.78D-03 DE=-3.41D-03 OVMax= 1.12D-02

 Cycle   3  Pass 0  IDiag  1:
 RMSU=  3.54D-04    CP:  1.00D+00  9.54D-01
 E= -225.988093134478     Delta-E=       -0.000124176069 Rises=F Damp=F
 DIIS: error= 2.78D-03 at cycle   3 NSaved=   3.
 NSaved= 3 IEnMin= 3 EnMin= -225.988093134478     IErMin= 3 ErrMin= 2.78D-03
 ErrMax= 2.78D-03 EMaxC= 1.00D-01 BMatC= 8.59D-04 BMatP= 9.41D-04
 IDIUse=3 WtCom= 9.72D-01 WtEn= 2.78D-02
 Coeff-Com:  0.415D-01 0.485D+00 0.474D+00
 Coeff-En:   0.000D+00 0.467D+00 0.533D+00
 Coeff:      0.403D-01 0.484D+00 0.475D+00
 Gap=     0.204 Goal=   None    Shift=    0.000
 RMSDP=2.06D-04 MaxDP=4.47D-03 DE=-1.24D-04 OVMax= 8.86D-03

 Cycle   4  Pass 0  IDiag  1:
 RMSU=  1.18D-04    CP:  1.00D+00  9.71D-01  5.43D-01
 E= -225.988757423097     Delta-E=       -0.000664288619 Rises=F Damp=F
 DIIS: error= 1.66D-03 at cycle   4 NSaved=   4.
 NSaved= 4 IEnMin= 4 EnMin= -225.988757423097     IErMin= 4 ErrMin= 1.66D-03
 ErrMax= 1.66D-03 EMaxC= 1.00D-01 BMatC= 1.05D-04 BMatP= 8.59D-04
 IDIUse=3 WtCom= 9.83D-01 WtEn= 1.66D-02
 Coeff-Com:  0.142D-01 0.287D+00 0.329D+00 0.370D+00
 Coeff-En:   0.000D+00 0.000D+00 0.371D-01 0.963D+00
 Coeff:      0.140D-01 0.282D+00 0.324D+00 0.380D+00
 Gap=     0.203 Goal=   None    Shift=    0.000
 RMSDP=7.89D-05 MaxDP=1.23D-03 DE=-6.64D-04 OVMax= 4.35D-03

 Cycle   5  Pass 0  IDiag  1:
 RMSU=  3.99D-05    CP:  1.00D+00  9.59D-01  5.29D-01  4.37D-01
 E= -225.988844653880     Delta-E=       -0.000087230783 Rises=F Damp=F
 DIIS: error= 4.13D-04 at cycle   5 NSaved=   5.
 NSaved= 5 IEnMin= 5 EnMin= -225.988844653880     IErMin= 5 ErrMin= 4.13D-04
 ErrMax= 4.13D-04 EMaxC= 1.00D-01 BMatC= 5.81D-06 BMatP= 1.05D-04
 IDIUse=3 WtCom= 9.96D-01 WtEn= 4.13D-03
 Coeff-Com:  0.188D-02 0.896D-01 0.114D+00 0.226D+00 0.568D+00
 Coeff-En:   0.000D+00 0.000D+00 0.000D+00 0.525D-01 0.948D+00
 Coeff:      0.187D-02 0.892D-01 0.114D+00 0.226D+00 0.569D+00
 Gap=     0.203 Goal=   None    Shift=    0.000
 RMSDP=2.23D-05 MaxDP=3.80D-04 DE=-8.72D-05 OVMax= 1.67D-03

 Cycle   6  Pass 0  IDiag  1:
 RMSU=  9.94D-06    CP:  1.00D+00  9.62D-01  5.30D-01  5.20D-01  5.71D-01
 E= -225.988849921521     Delta-E=       -0.000005267641 Rises=F Damp=F
 DIIS: error= 1.42D-04 at cycle   6 NSaved=   6.
 NSaved= 6 IEnMin= 6 EnMin= -225.988849921521     IErMin= 6 ErrMin= 1.42D-04
 ErrMax= 1.42D-04 EMaxC= 1.00D-01 BMatC= 9.39D-07 BMatP= 5.81D-06
 IDIUse=3 WtCom= 9.99D-01 WtEn= 1.42D-03
 Coeff-Com:  0.295D-03 0.433D-01 0.572D-01 0.127D+00 0.385D+00 0.388D+00
 Coeff-En:   0.000D+00 0.000D+00 0.000D+00 0.000D+00 0.110D+00 0.890D+00
 Coeff:      0.295D-03 0.432D-01 0.571D-01 0.126D+00 0.384D+00 0.389D+00
 Gap=     0.203 Goal=   None    Shift=    0.000
 RMSDP=7.05D-06 MaxDP=1.64D-04 DE=-5.27D-06 OVMax= 5.78D-04

 Initial convergence to 1.0D-05 achieved.  Increase integral accuracy.
 Cycle   7  Pass 1  IDiag  1:
 E= -225.988865993768     Delta-E=       -0.000016072248 Rises=F Damp=F
 DIIS: error= 3.75D-05 at cycle   1 NSaved=   1.
 NSaved= 1 IEnMin= 1 EnMin= -225.988865993768     IErMin= 1 ErrMin= 3.75D-05
 ErrMax= 3.75D-05 EMaxC= 1.00D-01 BMatC= 7.37D-08 BMatP= 7.37D-08
 IDIUse=1 WtCom= 1.00D+00 WtEn= 0.00D+00
 Coeff-Com:  0.100D+01
 Coeff:      0.100D+01
 Gap=     0.203 Goal=   None    Shift=    0.000
 RMSDP=7.05D-06 MaxDP=1.64D-04 DE=-1.61D-05 OVMax= 3.49D-04

 Cycle   8  Pass 1  IDiag  1:
 RMSU=  6.73D-06    CP:  1.00D+00
 E= -225.988865695284     Delta-E=        0.000000298484 Rises=F Damp=F
 DIIS: error= 1.09D-04 at cycle   2 NSaved=   2.
 NSaved= 2 IEnMin= 1 EnMin= -225.988865993768     IErMin= 1 ErrMin= 3.75D-05
 ErrMax= 1.09D-04 EMaxC= 1.00D-01 BMatC= 3.88D-07 BMatP= 7.37D-08
 IDIUse=3 WtCom= 4.89D-01 WtEn= 5.11D-01
 Coeff-Com:  0.710D+00 0.290D+00
 Coeff-En:   0.798D+00 0.202D+00
 Coeff:      0.755D+00 0.245D+00
 Gap=     0.203 Goal=   None    Shift=    0.000
 RMSDP=3.55D-06 MaxDP=5.87D-05 DE= 2.98D-07 OVMax= 2.56D-04

 Cycle   9  Pass 1  IDiag  1:
 RMSU=  2.58D-06    CP:  1.00D+00  6.37D-01
 E= -225.988866059481     Delta-E=       -0.000000364197 Rises=F Damp=F
 DIIS: error= 5.95D-06 at cycle   3 NSaved=   3.
 NSaved= 3 IEnMin= 3 EnMin= -225.988866059481     IErMin= 3 ErrMin= 5.95D-06
 ErrMax= 5.95D-06 EMaxC= 1.00D-01 BMatC= 4.49D-09 BMatP= 7.37D-08
 IDIUse=1 WtCom= 1.00D+00 WtEn= 0.00D+00
 Coeff-Com:  0.226D+00 0.457D-01 0.728D+00
 Coeff:      0.226D+00 0.457D-01 0.728D+00
 Gap=     0.203 Goal=   None    Shift=    0.000
 RMSDP=6.01D-07 MaxDP=1.33D-05 DE=-3.64D-07 OVMax= 2.83D-05

 Cycle  10  Pass 1  IDiag  1:
 RMSU=  5.95D-07    CP:  1.00D+00  6.29D-01  9.75D-01
 E= -225.988866060776     Delta-E=       -0.000000001295 Rises=F Damp=F
 DIIS: error= 6.04D-06 at cycle   4 NSaved=   4.
 NSaved= 4 IEnMin= 4 EnMin= -225.988866060776     IErMin= 3 ErrMin= 5.95D-06
 ErrMax= 6.04D-06 EMaxC= 1.00D-01 BMatC= 2.97D-09 BMatP= 4.49D-09
 IDIUse=1 WtCom= 1.00D+00 WtEn= 0.00D+00
 Coeff-Com:  0.391D-01-0.171D-01 0.497D+00 0.481D+00
 Coeff:      0.391D-01-0.171D-01 0.497D+00 0.481D+00
 Gap=     0.203 Goal=   None    Shift=    0.000
 RMSDP=3.30D-07 MaxDP=6.92D-06 DE=-1.30D-09 OVMax= 1.75D-05

 Cycle  11  Pass 1  IDiag  1:
 RMSU=  1.71D-07    CP:  1.00D+00  6.24D-01  1.01D+00  5.51D-01
 E= -225.988866063079     Delta-E=       -0.000000002302 Rises=F Damp=F
 DIIS: error= 1.46D-06 at cycle   5 NSaved=   5.
 NSaved= 5 IEnMin= 5 EnMin= -225.988866063079     IErMin= 5 ErrMin= 1.46D-06
 ErrMax= 1.46D-06 EMaxC= 1.00D-01 BMatC= 2.23D-10 BMatP= 2.97D-09
 IDIUse=1 WtCom= 1.00D+00 WtEn= 0.00D+00
 Coeff-Com:  0.566D-02-0.161D-01 0.246D+00 0.296D+00 0.469D+00
 Coeff:      0.566D-02-0.161D-01 0.246D+00 0.296D+00 0.469D+00
 Gap=     0.203 Goal=   None    Shift=    0.000
 RMSDP=1.06D-07 MaxDP=2.06D-06 DE=-2.30D-09 OVMax= 5.39D-06

 Cycle  12  Pass 1  IDiag  1:
 RMSU=  5.38D-08    CP:  1.00D+00  6.25D-01  1.01D+00  5.47D-01  4.89D-01
 E= -225.988866063236     Delta-E=       -0.000000000158 Rises=F Damp=F
 DIIS: error= 7.37D-07 at cycle   6 NSaved=   6.
 NSaved= 6 IEnMin= 6 EnMin= -225.988866063236     IErMin= 6 ErrMin= 7.37D-07
 ErrMax= 7.37D-07 EMaxC= 1.00D-01 BMatC= 2.42D-11 BMatP= 2.23D-10
 IDIUse=1 WtCom= 1.00D+00 WtEn= 0.00D+00
 Coeff-Com: -0.581D-03-0.962D-02 0.114D+00 0.149D+00 0.306D+00 0.441D+00
 Coeff:     -0.581D-03-0.962D-02 0.114D+00 0.149D+00 0.306D+00 0.441D+00
 Gap=     0.203 Goal=   None    Shift=    0.000
 RMSDP=3.99D-08 MaxDP=8.40D-07 DE=-1.58D-10 OVMax= 2.98D-06

 Cycle  13  Pass 1  IDiag  1:
 RMSU=  1.80D-08    CP:  1.00D+00  6.24D-01  1.02D+00  5.55D-01  5.44D-01
                    CP:  3.97D-01
 E= -225.988866063246     Delta-E=       -0.000000000010 Rises=F Damp=F
 DIIS: error= 2.87D-07 at cycle   7 NSaved=   7.
 NSaved= 7 IEnMin= 7 EnMin= -225.988866063246     IErMin= 7 ErrMin= 2.87D-07
 ErrMax= 2.87D-07 EMaxC= 1.00D-01 BMatC= 2.96D-12 BMatP= 2.42D-11
 IDIUse=1 WtCom= 1.00D+00 WtEn= 0.00D+00
 Coeff-Com: -0.640D-03-0.531D-02 0.591D-01 0.793D-01 0.174D+00 0.313D+00
 Coeff-Com:  0.381D+00
 Coeff:     -0.640D-03-0.531D-02 0.591D-01 0.793D-01 0.174D+00 0.313D+00
 Coeff:      0.381D+00
 Gap=     0.203 Goal=   None    Shift=    0.000
 RMSDP=1.31D-08 MaxDP=2.19D-07 DE=-9.66D-12 OVMax= 8.45D-07

 Cycle  14  Pass 1  IDiag  1:
 RMSU=  4.57D-09    CP:  1.00D+00  6.24D-01  1.02D+00  5.58D-01  5.28D-01
                    CP:  4.73D-01  3.85D-01
 E= -225.988866063282     Delta-E=       -0.000000000036 Rises=F Damp=F
 DIIS: error= 1.52D-08 at cycle   8 NSaved=   8.
 NSaved= 8 IEnMin= 8 EnMin= -225.988866063282     IErMin= 8 ErrMin= 1.52D-08
 ErrMax= 1.52D-08 EMaxC= 1.00D-01 BMatC= 2.08D-14 BMatP= 2.96D-12
 IDIUse=1 WtCom= 1.00D+00 WtEn= 0.00D+00
 Coeff-Com: -0.117D-03-0.639D-03 0.706D-02 0.100D-01 0.245D-01 0.573D-01
 Coeff-Com:  0.115D+00 0.787D+00
 Coeff:     -0.117D-03-0.639D-03 0.706D-02 0.100D-01 0.245D-01 0.573D-01
 Coeff:      0.115D+00 0.787D+00
 Gap=     0.203 Goal=   None    Shift=    0.000
 RMSDP=1.42D-09 MaxDP=2.51D-08 DE=-3.62D-11 OVMax= 6.04D-08

 SCF Done:  E(RPBE-PBE) =  -225.988866063     A.U. after   14 cycles
             Convg  =    0.1423D-08             -V/T =  2.0031
             S**2   =   0.0000
 KE= 2.252962187876D+02 PE=-8.519103599006D+02 EE= 2.381848808211D+02
 Leave Link  502 at Tue Feb 08 14:13:18 2005, MaxMem=   24000000 cpu:      34.0
 (Enter C:\G03W\l701.exe)
 Compute integral first derivatives.
 ... and contract with generalized density number  0.
 Leave Link  701 at Tue Feb 08 14:13:19 2005, MaxMem=   24000000 cpu:       0.0
 (Enter C:\G03W\l702.exe)
 L702 exits ... SP integral derivatives will be done elsewhere.
 Leave Link  702 at Tue Feb 08 14:13:19 2005, MaxMem=   24000000 cpu:       0.0
 (Enter C:\G03W\l703.exe)
 Compute integral first derivatives, UseDBF=F.
 Integral derivatives from FoFDir, PRISM(SPDF).
 Calling FoFCou, ICntrl=  2527 FMM=F ISym2X=1 I1Cent= 0 ISCF1= 0.
 FoFCou: FMM=F IPFlag=           0 FMFlag=           0 FMFlg1=           0
 NFxFlg=           0 DoJE=F BraDBF=F KetDBF=F FulRan=T.
 Petite list used in FoFCou.
 Leave Link  703 at Tue Feb 08 14:13:34 2005, MaxMem=   24000000 cpu:      14.0
 (Enter C:\G03W\l716.exe)
 Dipole        = 7.87709964D-01 3.88509334D-01 1.46757876D-31
 ***** Axes restored to original set *****
 -------------------------------------------------------------------
 Center     Atomic                   Forces (Hartrees/Bohr)
 Number     Number              X              Y              Z
 -------------------------------------------------------------------
    1          1           0.001066336    0.000000000    0.001374063
    2          6           0.004278374    0.000000000   -0.002644739
    3          1          -0.000402556    0.000000000    0.001933492
    4          6          -0.003445989    0.000000000    0.001497293
    5          1          -0.001357633    0.000000000   -0.000796591
    6          6           0.003174630    0.000000000    0.001238550
    7          7           0.011080251    0.000000000   -0.000803611
    8          1           0.000596666    0.000000000   -0.001730695
    9          7          -0.014990078    0.000000000   -0.000067763
 -------------------------------------------------------------------
 Cartesian Forces:  Max     0.014990078 RMS     0.003905872
[...]
     11  0.769286D-01
     12 -0.514080D-01  0.946881D-01
     13 -0.118635D-01  0.253370D-01  0.683457D-01
     14  0.241366D-01 -0.479773D-01 -0.452052D-01  0.904538D-01
     15 -0.122731D-01  0.226403D-01 -0.231405D-01 -0.452486D-01  0.683891D-01
     16 -0.247249D-02 -0.382786D-02 -0.104362D-01  0.251759D-01 -0.147397D-01
     17  0.776189D-02 -0.366007D-02  0.243461D-01 -0.538063D-01  0.294601D-01
     18 -0.528941D-02  0.748793D-02 -0.139099D-01  0.286303D-01 -0.147204D-01
     19 -0.136569D-01  0.150009D-01  0.186925D-02  0.103020D-01 -0.121712D-01
     20  0.331664D-01 -0.580516D-01 -0.634712D-02  0.102773D-02  0.531938D-02
     21 -0.168025D-01  0.285045D-01  0.780492D-02 -0.725316D-02 -0.551760D-03
     22 -0.163639D-01  0.295472D-01 -0.145780D-02  0.622543D-02 -0.476762D-02
     23  0.000000D+00  0.000000D+00  0.000000D+00  0.000000D+00  0.000000D+00
     24  0.000000D+00  0.000000D+00  0.000000D+00  0.000000D+00  0.000000D+00
     25  0.000000D+00  0.000000D+00  0.000000D+00  0.000000D+00  0.000000D+00
     26  0.000000D+00  0.000000D+00  0.000000D+00  0.000000D+00  0.000000D+00
     27  0.000000D+00  0.000000D+00  0.000000D+00  0.000000D+00  0.000000D+00
     28  0.000000D+00  0.000000D+00  0.000000D+00  0.000000D+00  0.000000D+00
     29  0.000000D+00  0.000000D+00  0.000000D+00  0.000000D+00  0.000000D+00
     30  0.000000D+00  0.000000D+00  0.000000D+00  0.000000D+00  0.000000D+00
     31  0.000000D+00  0.000000D+00  0.000000D+00  0.000000D+00  0.000000D+00
     32  0.000000D+00  0.000000D+00  0.000000D+00  0.000000D+00  0.000000D+00
     33  0.000000D+00  0.000000D+00  0.000000D+00  0.000000D+00  0.000000D+00
     34  0.000000D+00  0.000000D+00  0.000000D+00  0.000000D+00  0.000000D+00
     35  0.000000D+00  0.000000D+00  0.000000D+00  0.000000D+00  0.000000D+00
     36  0.000000D+00  0.000000D+00  0.000000D+00  0.000000D+00  0.000000D+00
     37  0.000000D+00  0.000000D+00  0.000000D+00  0.000000D+00  0.000000D+00
     38  0.000000D+00  0.000000D+00  0.000000D+00  0.000000D+00  0.000000D+00
               16            17            18            19            20
     16  0.759594D-01
     17 -0.508893D-01  0.111907D+00
     18 -0.250701D-01 -0.610177D-01  0.860879D-01
     19  0.345453D-01 -0.763238D-01  0.417784D-01  0.136103D+00
     20 -0.500416D-02  0.218831D-01 -0.168789D-01 -0.850820D-01  0.120223D+00
     21  0.782838D-03 -0.421326D-02  0.343042D-02  0.377511D-01 -0.547892D-01
     22  0.422132D-02 -0.176699D-01  0.134485D-01  0.473308D-01 -0.654336D-01
     23  0.000000D+00  0.000000D+00  0.000000D+00  0.000000D+00  0.000000D+00
     24  0.000000D+00  0.000000D+00  0.000000D+00  0.000000D+00  0.000000D+00
     25  0.000000D+00  0.000000D+00  0.000000D+00  0.000000D+00  0.000000D+00
     26  0.000000D+00  0.000000D+00  0.000000D+00  0.000000D+00  0.000000D+00
     27  0.000000D+00  0.000000D+00  0.000000D+00  0.000000D+00  0.000000D+00
     28  0.000000D+00  0.000000D+00  0.000000D+00  0.000000D+00  0.000000D+00
     29  0.000000D+00  0.000000D+00  0.000000D+00  0.000000D+00  0.000000D+00
     30  0.000000D+00  0.000000D+00  0.000000D+00  0.000000D+00  0.000000D+00
     31  0.000000D+00  0.000000D+00  0.000000D+00  0.000000D+00  0.000000D+00
     32  0.000000D+00  0.000000D+00  0.000000D+00  0.000000D+00  0.000000D+00
     33  0.000000D+00  0.000000D+00  0.000000D+00  0.000000D+00  0.000000D+00
     34  0.000000D+00  0.000000D+00  0.000000D+00  0.000000D+00  0.000000D+00
     35  0.000000D+00  0.000000D+00  0.000000D+00  0.000000D+00  0.000000D+00
     36  0.000000D+00  0.000000D+00  0.000000D+00  0.000000D+00  0.000000D+00
     37  0.000000D+00  0.000000D+00  0.000000D+00  0.000000D+00  0.000000D+00
     38  0.000000D+00  0.000000D+00  0.000000D+00  0.000000D+00  0.000000D+00
               21            22            23            24            25
     21  0.815333D-01
     22 -0.267441D-01  0.921777D-01
     23  0.000000D+00  0.000000D+00  0.577403D-02
     24  0.000000D+00  0.000000D+00  0.144489D-02  0.750432D-02
     25  0.000000D+00  0.000000D+00  0.112670D-02 -0.774763D-03  0.871951D-02
     26  0.000000D+00  0.000000D+00 -0.320243D-02  0.528467D-02  0.681805D-02
     27  0.000000D+00  0.000000D+00 -0.128054D-02 -0.458120D-02 -0.978014D-03
     28  0.000000D+00  0.000000D+00 -0.167496D-02 -0.164103D-02  0.164702D-02
     29  0.000000D+00  0.000000D+00  0.278926D-02 -0.263738D-02 -0.762726D-02
     30  0.000000D+00  0.000000D+00  0.239484D-02  0.302791D-03 -0.500223D-02
     31  0.000000D+00  0.000000D+00  0.301364D-02 -0.388562D-02  0.131144D-02
     32  0.000000D+00  0.000000D+00  0.281940D-02 -0.661331D-02 -0.431777D-02
     33  0.000000D+00  0.000000D+00 -0.138749D-02  0.227457D-02 -0.621646D-03
     34  0.000000D+00  0.000000D+00 -0.158172D-02 -0.453114D-03 -0.625085D-02
     35  0.000000D+00  0.000000D+00 -0.116977D-02  0.496818D-02 -0.119848D-03
     36  0.000000D+00  0.000000D+00 -0.134370D-02  0.252570D-02 -0.516047D-02
     37  0.000000D+00  0.000000D+00 -0.102587D-02 -0.140380D-02  0.484502D-02
     38  0.000000D+00  0.000000D+00 -0.669736D-03 -0.405858D-02  0.247478D-02
               26            27            28            29            30
     26  0.153051D-01
     27 -0.427867D-02  0.846918D-02
     28  0.168096D-02  0.652252D-03  0.380349D-02
     29 -0.130539D-01  0.820425D-02 -0.225691D-02  0.173263D-01
     30 -0.709427D-02  0.387320D-03  0.894330D-03  0.686515D-02  0.737216D-02
     31 -0.558782D-02  0.308788D-02 -0.328718D-03  0.457854D-02  0.116195D-02
     32 -0.137505D-01 -0.699889D-03 -0.688993D-03  0.555034D-02  0.556124D-02
     33  0.304041D-02 -0.267670D-03 -0.294217D-03 -0.938340D-03 -0.964887D-03
     34 -0.512224D-02 -0.405543D-02 -0.654492D-03  0.334607D-04  0.343440D-02
     35  0.601810D-02  0.535769D-02 -0.611376D-03  0.443824D-02 -0.153082D-02
     36 -0.129108D-02  0.196597D-02 -0.933981D-03  0.530843D-02  0.240848D-02
     37  0.446709D-02 -0.842536D-02  0.178762D-02 -0.135667D-01 -0.335369D-02
     38 -0.914066D-03 -0.136718D-02 -0.105774D-02 -0.412093D-02 -0.381149D-02
               31            32            33            34            35
     31  0.112998D-01
     32  0.520713D-02  0.185164D-01
     33  0.428585D-02 -0.438243D-02  0.800881D-02
     34 -0.180686D-02  0.892682D-02 -0.659479D-03  0.100742D-01
     35 -0.248676D-02 -0.149548D-01  0.375325D-02 -0.871481D-02  0.171595D-01
     36 -0.794242D-02 -0.303717D-02 -0.400869D-02  0.896568D-03  0.599506D-02
     37 -0.133571D-02  0.571977D-02 -0.171992D-02  0.533556D-02 -0.133234D-01
     38  0.174925D-02  0.570993D-02 -0.169595D-02  0.226473D-02 -0.793368D-02
               36            37            38
     36  0.103874D-01
     37 -0.700559D-02  0.166760D-01
     38 -0.438713D-02  0.745429D-02  0.717489D-02
 Leave Link  716 at Tue Feb 08 14:22:23 2005, MaxMem=   24000000 cpu:       0.0
 (Enter C:\G03W\l103.exe)

 GradGradGradGradGradGradGradGradGradGradGradGradGradGradGradGradGradGrad
 Berny optimization.
 Internal  Forces:  Max     0.000168338 RMS     0.000043007
 Search for a local minimum.
 Step number   1 out of a maximum of   2
 All quantities printed in internal units (Hartrees-Bohrs-Radians)
 Second derivative matrix not updated -- analytic derivatives used.
     Eigenvalues ---    0.00705   0.01070   0.01478   0.02576   0.05614
     Eigenvalues ---    0.05914   0.08697   0.09633   0.10315   0.11188
     Eigenvalues ---    0.20908   0.25325   0.32854   0.34998   0.35751
     Eigenvalues ---    0.35993   0.37799   0.41209   0.45488   0.46580
     Eigenvalues ---    0.538061000.000001000.000001000.000001000.00000
     Eigenvalues --- 1000.000001000.000001000.000001000.000001000.00000
     Eigenvalues --- 1000.000001000.000001000.000001000.000001000.00000
     Eigenvalues --- 1000.000001000.000001000.00000
 Angle between quadratic step and forces=  34.20 degrees.
 Linear search not attempted -- first point.
 Iteration  1 RMS(Cart)=  0.00013546 RMS(Int)=  0.00000004
 Iteration  2 RMS(Cart)=  0.00000004 RMS(Int)=  0.00000000
 Variable       Old X    -DE/DX   Delta X   Delta X   Delta X     New X
                                 (Linear)    (Quad)   (Total)
    R1        2.05279   0.00002   0.00000   0.00006   0.00006   2.05286
    R2        2.62152   0.00013   0.00000   0.00038   0.00038   2.62190
    R3        2.57706  -0.00017   0.00000  -0.00049  -0.00049   2.57657
    R4        2.05131   0.00002   0.00000   0.00005   0.00005   2.05135
    R5        2.67478   0.00001   0.00000   0.00004   0.00004   2.67482
    R6        2.05542   0.00004   0.00000   0.00011   0.00011   2.05553
    R7        2.53356   0.00000   0.00000   0.00004   0.00004   2.53360
    R8        2.55439  -0.00007   0.00000  -0.00024  -0.00024   2.55415
    R9        1.91655   0.00004   0.00000   0.00010   0.00010   1.91664
    A1        2.30484  -0.00005   0.00000  -0.00058  -0.00058   2.30426
    A2        2.12970   0.00004   0.00000   0.00054   0.00054   2.13025
    A3        1.84864   0.00001   0.00000   0.00003   0.00003   1.84868
    A4        2.21850   0.00001   0.00000  -0.00010  -0.00010   2.21840
    A5        1.82486  -0.00004   0.00000  -0.00014  -0.00014   1.82472
    A6        2.23982   0.00003   0.00000   0.00025   0.00025   2.24007
    A7        2.24456   0.00001   0.00000  -0.00001  -0.00001   2.24455
    A8        1.95780  -0.00005   0.00000  -0.00011  -0.00011   1.95769
    A9        2.08082   0.00003   0.00000   0.00012   0.00012   2.08094
   A10        1.81055   0.00005   0.00000   0.00009   0.00009   1.81065
   A11        1.98291   0.00003   0.00000   0.00012   0.00012   1.98304
   A12        2.22795  -0.00003   0.00000  -0.00015  -0.00015   2.22780
   A13        2.07233   0.00000   0.00000   0.00002   0.00002   2.07235
    D1        0.00000   0.00000   0.00000   0.00000   0.00000   0.00000
    D2        3.14159   0.00000   0.00000   0.00000   0.00000   3.14159
    D3        3.14159   0.00000   0.00000   0.00000   0.00000   3.14159
    D4        0.00000   0.00000   0.00000   0.00000   0.00000   0.00000
    D5        3.14159   0.00000   0.00000   0.00000   0.00000   3.14159
    D6        0.00000   0.00000   0.00000   0.00000   0.00000   0.00000
    D7        0.00000   0.00000   0.00000   0.00000   0.00000   0.00000
    D8        3.14159   0.00000   0.00000   0.00000   0.00000   3.14159
    D9        3.14159   0.00000   0.00000   0.00000   0.00000   3.14159
   D10        0.00000   0.00000   0.00000   0.00000   0.00000   0.00000
   D11        0.00000   0.00000   0.00000   0.00000   0.00000   0.00000
   D12        3.14159   0.00000   0.00000   0.00000   0.00000   3.14159
   D13        0.00000   0.00000   0.00000   0.00000   0.00000   0.00000
   D14        3.14159   0.00000   0.00000   0.00000   0.00000   3.14159
   D15        0.00000   0.00000   0.00000   0.00000   0.00000   0.00000
   D16        3.14159   0.00000   0.00000   0.00000   0.00000   3.14159
         Item               Value     Threshold  Converged?
 Maximum Force            0.000168     0.000450     YES
 RMS     Force            0.000043     0.000300     YES
 Maximum Displacement     0.000481     0.001800     YES
 RMS     Displacement     0.000135     0.001200     YES
 Predicted change in Energy=-1.231386D-07
 Optimization completed.
    -- Stationary point found.
                           ----------------------------
                           !   Optimized Parameters   !
                           ! (Angstroms and Degrees)  !
 --------------------------                            --------------------------
 ! Name  Definition              Value          Derivative Info.                !
 --------------------------------------------------------------------------------
 ! R1    R(1,2)                  1.0863         -DE/DX =    0.0                 !
 ! R2    R(2,4)                  1.3872         -DE/DX =    0.0001              !
 ! R3    R(2,9)                  1.3637         -DE/DX =   -0.0002              !
 ! R4    R(3,4)                  1.0855         -DE/DX =    0.0                 !
 ! R5    R(4,6)                  1.4154         -DE/DX =    0.0                 !
 ! R6    R(5,6)                  1.0877         -DE/DX =    0.0                 !
 ! R7    R(6,7)                  1.3407         -DE/DX =    0.0                 !
 ! R8    R(7,9)                  1.3517         -DE/DX =   -0.0001              !
 ! R9    R(8,9)                  1.0142         -DE/DX =    0.0                 !
 ! A1    A(1,2,4)              132.0574         -DE/DX =   -0.0001              !
 ! A2    A(1,2,9)              122.0231         -DE/DX =    0.0                 !
 ! A3    A(4,2,9)              105.9195         -DE/DX =    0.0                 !
 ! A4    A(2,4,3)              127.1107         -DE/DX =    0.0                 !
 ! A5    A(2,4,6)              104.557          -DE/DX =    0.0                 !
 ! A6    A(3,4,6)              128.3323         -DE/DX =    0.0                 !
 ! A7    A(4,6,5)              128.6038         -DE/DX =    0.0                 !
 ! A8    A(4,6,7)              112.1738         -DE/DX =    0.0                 !
 ! A9    A(5,6,7)              119.2224         -DE/DX =    0.0                 !
 ! A10   A(6,7,9)              103.7372         -DE/DX =    0.0                 !
 ! A11   A(2,9,7)              113.6126         -DE/DX =    0.0                 !
 ! A12   A(2,9,8)              127.6519         -DE/DX =    0.0                 !
 ! A13   A(7,9,8)              118.7355         -DE/DX =    0.0                 !
 ! D1    D(1,2,4,3)              0.0            -DE/DX =    0.0                 !
 ! D2    D(1,2,4,6)            180.0            -DE/DX =    0.0                 !
 ! D3    D(9,2,4,3)            180.0            -DE/DX =    0.0                 !
 ! D4    D(9,2,4,6)              0.0            -DE/DX =    0.0                 !
 ! D5    D(1,2,9,7)            180.0            -DE/DX =    0.0                 !
 ! D6    D(1,2,9,8)              0.0            -DE/DX =    0.0                 !
 ! D7    D(4,2,9,7)              0.0            -DE/DX =    0.0                 !
 ! D8    D(4,2,9,8)            180.0            -DE/DX =    0.0                 !
 ! D9    D(2,4,6,5)            180.0            -DE/DX =    0.0                 !
 ! D10   D(2,4,6,7)              0.0            -DE/DX =    0.0                 !
 ! D11   D(3,4,6,5)              0.0            -DE/DX =    0.0                 !
 ! D12   D(3,4,6,7)            180.0            -DE/DX =    0.0                 !
 ! D13   D(4,6,7,9)              0.0            -DE/DX =    0.0                 !
 ! D14   D(5,6,7,9)            180.0            -DE/DX =    0.0                 !
 ! D15   D(6,7,9,2)              0.0            -DE/DX =    0.0                 !
 ! D16   D(6,7,9,8)            180.0            -DE/DX =    0.0                 !
 --------------------------------------------------------------------------------
 GradGradGradGradGradGradGradGradGradGradGradGradGradGradGradGradGradGrad

 Leave Link  103 at Tue Feb 08 14:22:23 2005, MaxMem=   24000000 cpu:       0.0
 (Enter C:\G03W\l9999.exe)
 1|1|UNPC-UNK|Freq|RPBEPBE|6-311G(d,p)|C3H4N2|PCUSER|08-Feb-2005|0||#P 
 GEOM=ALLCHECK GUESS=READ SCRF=CHECK GENCHK RPBEPBE/6-311G(D,P) FREQ||1
 H pyrazole C3H4N2 casno=288131 method=61 basis=21||0,1|H,-1.9032909645
 ,0.,-1.1819690176|C,-0.9431662098,0.,-0.6738451579|H,0.6783809818,0.,-
 2.1872860206|C,0.3599752136,0.,-1.1495303894|H,2.248973112,0.,0.091159
 1585|C,1.1639326763,0.,0.0154140371|N,0.4295066777,0.,1.137064059|H,-1
 .6010766645,0.,1.3621330351|N,-0.8448547557,0.,0.6863262132||Version=x
 86-Win32-G03RevB.05|State=1-A'|HF=-225.9891374|RMSD=1.632e-009|RMSF=8.
 512e-005|Dipole=-0.7956884,0.,-0.3741549|DipoleDeriv=-0.0119319,0.,-0.
 0518694,0.,0.1842209,0.,-0.0392309,0.,0.0700271,0.1016812,0.,-0.128637
 ,0.,-0.1071935,0.,-0.2700917,0.,0.1969213,0.0961265,0.,0.0301492,0.,0.
 1671553,0.,0.0366797,0.,-0.0386492,-0.207547,0.,0.0156244,0.,-0.217786
 1,0.,-0.0395376,0.,-0.0172794,-0.0480873,0.,-0.0047894,0.,0.1485578,0.
 ,-0.0283681,0.,0.0840631,0.1835454,0.,0.1077136,0.,-0.0890453,0.,0.168
 8927,0.,0.162576,0.0028775,0.,-0.2064186,0.,-0.2176846,0.,-0.098641,0.
 ,-0.5569701,0.1925462,0.,-0.0428824,0.,0.3076855,0.,-0.0287875,0.,0.21
 09707,-0.3092107,0.,0.2811097,0.,-0.1759101,0.,0.2990845,0.,-0.1116594
 |Polar=52.6718609,0.,22.4427699,0.0525519,0.,48.7674152|PG=CS [SG(C3H4
 N2)]|NImag=0||0.28848433,0.,0.01837204,0.12921425,0.,0.11573655,-0.282
 95651,0.,-0.11202596,0.80842623,0.,-0.02176837,0.,0.,0.10768278,-0.120
 52152,0.,-0.11280573,0.09303860,0.,0.60525343,0.00019966,0.,-0.0007598
 7,0.00144109,0.,0.02425014,0.07127125,0.,-0.00243166,0.,0.,-0.00209348
 ,0.,0.,0.02018403,0.00041351,0.,-0.00019569,-0.00376288,0.,-0.00002050
 ,-0.08938116,0.,0.33095690,-0.00618146,0.,0.00899565,-0.32444964,0.,0.
 07237673,-0.07705123,0.,0.08382803,0.58517380,0.,0.00036138,0.,0.,-0.0
 5828938,0.,0.,-0.02357665,0.,0.,0.10733209,-0.01441412,0.,0.01153871,0
 .09633518,0.,-0.12971528,0.08122736,0.,-0.31823040,-0.11238630,0.,0.78
 720238,-0.00021841,0.,0.00025548,-0.00066515,0.,-0.00111469,-0.0001194
 8,0.,-0.00037386,-0.00485222,0.,0.00404261,0.35303207,0.,0.00085988,0.
 ,0.,0.00420077,0.,0.,-0.00177890,0.,0.,0.00040947,0.,0.,0.02233422,-0.
 00100257,0.,0.00101873,-0.00278326,0.,-0.00554470,0.00080562,0.,0.0001
 5132,-0.02045494,0.,0.00603370,0.02010170,0.,0.05153473,-0.00431958,0.
 ,0.00440004,-0.05332386,0.,0.00011528,0.01185803,0.,0.01199261,-0.1692
 6315,0.,-0.10428567,-0.33280673,0.,-0.03061112,0.83131778,0.,0.0043783
 4,0.,0.,0.01085532,0.,0.,-0.00302794,0.,0.,-0.06052737,0.,0.,-0.027043
 25,0.,0.,0.12741872,0.00065870,0.,-0.00231272,-0.06452840,0.,0.0292585
 5,-0.01415606,0.,-0.00855408,-0.07368847,0.,-0.22098551,-0.02402730,0.
 ,-0.05478402,-0.00043058,0.,0.56725007,0.00045787,0.,0.00018940,-0.053
 61851,0.,-0.05089046,-0.00184159,0.,-0.00087506,0.02291424,0.,0.035911
 11,-0.01364123,0.,0.02620735,-0.16394591,0.,0.13269497,0.46567978,0.,0
 .00626252,0.,0.,0.01631245,0.,0.,0.00636009,0.,0.,0.01866662,0.,0.,-0.
 00750291,0.,0.,-0.06757678,0.,0.,0.09898289,0.00214457,0.,-0.00540645,
 -0.01953425,0.,-0.06149520,-0.00566965,0.,-0.00402597,-0.02957023,0.,-
 0.07352511,-0.00088183,0.,0.00514876,0.09554080,0.,-0.27942495,-0.0415
 4826,0.,0.52254424,-0.00021500,0.,0.00031474,0.00931269,0.,-0.00387882
 ,0.00064470,0.,-0.00008454,0.00166341,0.,-0.00314453,-0.00040654,0.,0.
 00144152,-0.00761089,0.,-0.00493923,-0.02158910,0.,0.02276585,0.280533
 67,0.,-0.00141562,0.,0.,-0.00745137,0.,0.,0.00213109,0.,0.,0.00282963,
 0.,0.,0.00218122,0.,0.,0.00424563,0.,0.,-0.01188675,0.,0.,0.01198374,-
 0.00062291,0.,0.00003621,0.02379438,0.,-0.00573065,0.00119641,0.,0.000
 15887,-0.00207066,0.,-0.00671070,-0.00045501,0.,0.00089845,-0.00548754
 ,0.,0.00074612,-0.00994588,0.,0.01484173,-0.19622283,0.,0.23789183,0.0
 0474909,0.,-0.03058374,-0.10416634,0.,-0.01337525,-0.00640243,0.,-0.00
 175665,-0.02795377,0.,0.01671437,-0.00032230,0.,0.00629569,-0.11190569
 ,0.,0.04841639,-0.23441556,0.,-0.02324701,-0.26233294,0.,0.18981404,0.
 74274994,0.,-0.00461851,0.,0.,-0.04944873,0.,0.,0.00423342,0.,0.,0.012
 79421,0.,0.,0.00633950,0.,0.,0.01127733,0.,0.,-0.05961812,0.,0.,-0.002
 61758,0.,0.,0.08165849,0.00413009,0.,-0.00760961,-0.01053340,0.,-0.319
 19991,0.00248721,0.,-0.00024045,0.07297019,0.,-0.05560780,0.00245291,0
 .,-0.00445698,0.02876617,0.,-0.03119347,-0.09174317,0.,-0.11865705,0.1
 8374784,0.,-0.24213186,-0.19227784,0.,0.77909712||-0.00000517,0.,0.000
 05909,0.00012957,0.,-0.00030159,-0.00000526,0.,0.00001681,-0.00011572,
 0.,0.00007519,-0.00003966,0.,-0.00000315,-0.00000495,0.,-0.00005273,0.
 00011852,0.,0.00005497,0.00004494,0.,-0.00001121,-0.00012227,0.,0.0001
 6263|||@


 A MAN IS NEVER SO BRILLIANT AS WHEN HE TAKES THE WORDS RIGHT OUT
 OF YOUR MOUTH. -- ARNOT SHEPPARD, JR.
 Job cpu time:  0 days  0 hours  5 minutes 38.0 seconds.
 File lengths (MBytes):  RWF=     20 Int=      0 D2E=      0 Chk=      5 Scr=      1
 Normal termination of Gaussian 03 at Tue Feb 08 14:22:24 2005.
