 Entering Link 1 = C:\G03W\l1.exe PID=     40672.
  
 Copyright (c) 1988,1990,1992,1993,1995,1998,2003, Gaussian, Inc.
                  All Rights Reserved.
  
 This is the Gaussian(R) 03 program.  It is based on the
 the Gaussian(R) 98 system (copyright 1998, Gaussian, Inc.),
 the Gaussian(R) 94 system (copyright 1995, Gaussian, Inc.),
 the Gaussian 92(TM) system (copyright 1992, Gaussian, Inc.),
 the Gaussian 90(TM) system (copyright 1990, Gaussian, Inc.),
 the Gaussian 88(TM) system (copyright 1988, Gaussian, Inc.),
 the Gaussian 86(TM) system (copyright 1986, Carnegie Mellon
 University), and the Gaussian 82(TM) system (copyright 1983,
 Carnegie Mellon University). Gaussian is a federally registered
 trademark of Gaussian, Inc.
  
 This software contains proprietary and confidential information,
 including trade secrets, belonging to Gaussian, Inc.
  
 This software is provided under written license and may be
 used, copied, transmitted, or stored only in accord with that
 written license.
  
 The following legend is applicable only to US Government
 contracts under DFARS:
  
                    RESTRICTED RIGHTS LEGEND
  
 Use, duplication or disclosure by the US Government is subject
 to restrictions as set forth in subparagraph (c)(1)(ii) of the
 Rights in Technical Data and Computer Software clause at DFARS
 252.227-7013.
  
 Gaussian, Inc.
 Carnegie Office Park, Building 6, Pittsburgh, PA 15106 USA
  
 The following legend is applicable only to US Government
 contracts under FAR:
  
                    RESTRICTED RIGHTS LEGEND
  
 Use, reproduction and disclosure by the US Government is subject
 to restrictions as set forth in subparagraph (c) of the
 Commercial Computer Software - Restricted Rights clause at FAR
 52.227-19.
  
 Gaussian, Inc.
 Carnegie Office Park, Building 6, Pittsburgh, PA 15106 USA
  
  
 ---------------------------------------------------------------
 Warning -- This program may not be used in any manner that
 competes with the business of Gaussian, Inc. or will provide
 assistance to any competitor of Gaussian, Inc.  The licensee
 of this program is prohibited from giving any competitor of
 Gaussian, Inc. access to this program.  By using this program,
 the user acknowledges that Gaussian, Inc. is engaged in the
 business of creating and licensing software in the field of
 computational chemistry and represents and warrants to the
 licensee that it is not a competitor of Gaussian, Inc. and that
 it will not use this program in any manner prohibited above.
 ---------------------------------------------------------------
  

 Cite this work as:
 Gaussian 03, Revision B.05,
 M. J. Frisch, G. W. Trucks, H. B. Schlegel, G. E. Scuseria, 
 M. A. Robb, J. R. Cheeseman, J. A. Montgomery, Jr., T. Vreven, 
 K. N. Kudin, J. C. Burant, J. M. Millam, S. S. Iyengar, J. Tomasi, 
 V. Barone, B. Mennucci, M. Cossi, G. Scalmani, N. Rega, 
 G. A. Petersson, H. Nakatsuji, M. Hada, M. Ehara, K. Toyota, 
 R. Fukuda, J. Hasegawa, M. Ishida, T. Nakajima, Y. Honda, O. Kitao, 
 H. Nakai, M. Klene, X. Li, J. E. Knox, H. P. Hratchian, J. B. Cross, 
 C. Adamo, J. Jaramillo, R. Gomperts, R. E. Stratmann, O. Yazyev, 
 A. J. Austin, R. Cammi, C. Pomelli, J. W. Ochterski, P. Y. Ayala, 
 K. Morokuma, G. A. Voth, P. Salvador, J. J. Dannenberg, 
 V. G. Zakrzewski, S. Dapprich, A. D. Daniels, M. C. Strain, 
 O. Farkas, D. K. Malick, A. D. Rabuck, K. Raghavachari, 
 J. B. Foresman, J. V. Ortiz, Q. Cui, A. G. Baboul, S. Clifford, 
 J. Cioslowski, B. B. Stefanov, G. Liu, A. Liashenko, P. Piskorz, 
 I. Komaromi, R. L. Martin, D. J. Fox, T. Keith, M. A. Al-Laham, 
 C. Y. Peng, A. Nanayakkara, M. Challacombe, P. M. W. Gill, 
 B. Johnson, W. Chen, M. W. Wong, C. Gonzalez, and J. A. Pople, 
 Gaussian, Inc., Pittsburgh PA, 2003.
 
 **********************************************
 Gaussian 03:  x86-Win32-G03RevB.05  8-Nov-2003
                  29-Apr-2005 
 **********************************************
 %mem=56000000
 Default route:  MaxDisk=200GB
 --------------------------------
 #PBEPBE/6-311+G(3df,2p) opt freq
 --------------------------------
 1/14=-1,18=20,26=3,38=1/1,3;
 2/9=110,17=6,18=5,40=1/2;
 3/5=4,6=6,7=216,11=2,16=1,25=1,30=1,74=1009/1,2,3;
 4//1;
 5/5=2,38=5/2;
 6/7=2,8=2,9=2,10=2,28=1/1;
 7//1,2,3,16;
 1/14=-1,18=20/3(1);
 99//99;
 2/9=110/2;
 3/5=4,6=6,7=216,11=2,16=1,25=1,30=1,74=1009/1,2,3;
 4/5=5,16=3/1;
 5/5=2,38=5/2;
 7//1,2,3,16;
 1/14=-1,18=20/3(-5);
 2/9=110/2;
 6/7=2,8=2,9=2,10=2,19=2,28=1/1;
 99/9=1/99;
 Leave Link    1 at Fri Apr 29 11:14:44 2005, MaxMem=   56000000 cpu:       0.0
 (Enter C:\G03W\l101.exe)
 ----------------------------------------------------------
 1hpyraz 1H-Pyrazole C3H4N2 casno=288131 method=61 basis=10
 ----------------------------------------------------------
 Symbolic Z-matrix:
 Charge =  0 Multiplicity = 1
 H                     2.09805   0.72722   0. 
 C                     1.10731   0.30693   0. 
 H                     1.26253  -1.88793   0. 
 C                     0.66274  -0.99543   0. 
 H                    -1.4754   -1.68046   0. 
 C                    -0.7431   -0.88997   0. 
 N                    -1.14253   0.37527   0. 
 H                    -0.04911   2.0889    0. 
 N                     0.        1.08518   0. 
 
                    Isotopes and Nuclear Properties:

  Atom         1           2           3           4           5           6           7           8           9
 IAtWgt=           1          12           1          12           1          12          14           1          14
 AtmWgt=   1.0078250  12.0000000   1.0078250  12.0000000   1.0078250  12.0000000  14.0030740   1.0078250  14.0030740
 IAtSpn=           1           0           1           0           1           0           2           1           2
 AtZEff=   0.0000000   0.0000000   0.0000000   0.0000000   0.0000000   0.0000000   0.0000000   0.0000000   0.0000000
 AtQMom=   0.0000000   0.0000000   0.0000000   0.0000000   0.0000000   0.0000000   1.5600000   0.0000000   1.5600000
 AtGFac=   2.7928460   0.0000000   2.7928460   0.0000000   2.7928460   0.0000000   0.4037610   2.7928460   0.4037610
 Leave Link  101 at Fri Apr 29 11:14:45 2005, MaxMem=   56000000 cpu:       0.0
 (Enter C:\G03W\l103.exe)

 GradGradGradGradGradGradGradGradGradGradGradGradGradGradGradGradGradGrad
 Berny optimization.
 Initialization pass.
                           ----------------------------
                           !    Initial Parameters    !
                           ! (Angstroms and Degrees)  !
 --------------------------                            --------------------------
 ! Name  Definition              Value          Derivative Info.                !
 --------------------------------------------------------------------------------
 ! R1    R(1,2)                  1.0762         estimate D2E/DX2                !
 ! R2    R(2,4)                  1.3761         estimate D2E/DX2                !
 ! R3    R(2,9)                  1.3534         estimate D2E/DX2                !
 ! R4    R(3,4)                  1.0753         estimate D2E/DX2                !
 ! R5    R(4,6)                  1.4098         estimate D2E/DX2                !
 ! R6    R(5,6)                  1.0776         estimate D2E/DX2                !
 ! R7    R(6,7)                  1.3268         estimate D2E/DX2                !
 ! R8    R(7,9)                  1.3451         estimate D2E/DX2                !
 ! R9    R(8,9)                  1.0049         estimate D2E/DX2                !
 ! A1    A(1,2,4)              131.8351         estimate D2E/DX2                !
 ! A2    A(1,2,9)              121.9119         estimate D2E/DX2                !
 ! A3    A(4,2,9)              106.253          estimate D2E/DX2                !
 ! A4    A(2,4,3)              127.2494         estimate D2E/DX2                !
 ! A5    A(2,4,6)              104.5575         estimate D2E/DX2                !
 ! A6    A(3,4,6)              128.193          estimate D2E/DX2                !
 ! A7    A(4,6,5)              128.5214         estimate D2E/DX2                !
 ! A8    A(4,6,7)              111.811          estimate D2E/DX2                !
 ! A9    A(5,6,7)              119.6676         estimate D2E/DX2                !
 ! A10   A(6,7,9)              104.3338         estimate D2E/DX2                !
 ! A11   A(2,9,7)              113.0448         estimate D2E/DX2                !
 ! A12   A(2,9,8)              127.902          estimate D2E/DX2                !
 ! A13   A(7,9,8)              119.0532         estimate D2E/DX2                !
 ! D1    D(1,2,4,3)              0.0            estimate D2E/DX2                !
 ! D2    D(1,2,4,6)            180.0            estimate D2E/DX2                !
 ! D3    D(9,2,4,3)            180.0            estimate D2E/DX2                !
 ! D4    D(9,2,4,6)              0.0            estimate D2E/DX2                !
 ! D5    D(1,2,9,7)            180.0            estimate D2E/DX2                !
 ! D6    D(1,2,9,8)              0.0            estimate D2E/DX2                !
 ! D7    D(4,2,9,7)              0.0            estimate D2E/DX2                !
 ! D8    D(4,2,9,8)            180.0            estimate D2E/DX2                !
 ! D9    D(2,4,6,5)            180.0            estimate D2E/DX2                !
 ! D10   D(2,4,6,7)              0.0            estimate D2E/DX2                !
 ! D11   D(3,4,6,5)              0.0            estimate D2E/DX2                !
 ! D12   D(3,4,6,7)            180.0            estimate D2E/DX2                !
 ! D13   D(4,6,7,9)              0.0            estimate D2E/DX2                !
 ! D14   D(5,6,7,9)            180.0            estimate D2E/DX2                !
 ! D15   D(6,7,9,2)              0.0            estimate D2E/DX2                !
 ! D16   D(6,7,9,8)            180.0            estimate D2E/DX2                !
 --------------------------------------------------------------------------------
 Trust Radius=3.00D-01 FncErr=1.00D-07 GrdErr=1.00D-06
 Number of steps in this run=  48 maximum allowed number of steps= 100.
 GradGradGradGradGradGradGradGradGradGradGradGradGradGradGradGradGradGrad

 Leave Link  103 at Fri Apr 29 11:14:46 2005, MaxMem=   56000000 cpu:       0.0
 (Enter C:\G03W\l202.exe)
                          Input orientation:                          
 ---------------------------------------------------------------------
 Center     Atomic     Atomic              Coordinates (Angstroms)
 Number     Number      Type              X           Y           Z
 ---------------------------------------------------------------------
    1          1             0        2.098046    0.727216    0.000000
    2          6             0        1.107306    0.306928    0.000000
    3          1             0        1.262531   -1.887926    0.000000
    4          6             0        0.662736   -0.995433    0.000000
    5          1             0       -1.475397   -1.680458    0.000000
    6          6             0       -0.743099   -0.889970    0.000000
    7          7             0       -1.142532    0.375270    0.000000
    8          1             0       -0.049113    2.088897    0.000000
    9          7             0        0.000000    1.085176    0.000000
 ---------------------------------------------------------------------
                    Distance matrix (angstroms):
                    1          2          3          4          5
     1  H    0.000000
     2  C    1.076201   0.000000
     3  H    2.745369   2.200336   0.000000
     4  C    2.242239   1.376149   1.075313   0.000000
     5  H    4.308873   3.258843   2.745777   2.245189   0.000000
     6  C    3.269158   2.203761   2.240194   1.409785   1.077558
     7  N    3.259634   2.250876   3.302482   2.266676   2.082503
     8  H    2.542532   2.124316   4.187545   3.165410   4.030177
     9  N    2.128364   1.353439   3.230065   2.183610   3.134570
                    6          7          8          9
     6  C    0.000000
     7  N    1.326793   0.000000
     8  H    3.058638   2.032752   0.000000
     9  N    2.110308   1.345119   1.004922   0.000000
 Stoichiometry    C3H4N2
 Framework group  CS[SG(C3H4N2)]
 Deg. of freedom    15
 Full point group                 CS      NOp   2
 Largest Abelian subgroup         CS      NOp   2
 Largest concise Abelian subgroup C1      NOp   1
                         Standard orientation:                         
 ---------------------------------------------------------------------
 Center     Atomic     Atomic              Coordinates (Angstroms)
 Number     Number      Type              X           Y           Z
 ---------------------------------------------------------------------
    1          1             0        2.098046    0.727216    0.000000
    2          6             0        1.107306    0.306928    0.000000
    3          1             0        1.262531   -1.887926    0.000000
    4          6             0        0.662736   -0.995433    0.000000
    5          1             0       -1.475397   -1.680458    0.000000
    6          6             0       -0.743099   -0.889970    0.000000
    7          7             0       -1.142532    0.375270    0.000000
    8          1             0       -0.049113    2.088897    0.000000
    9          7             0        0.000000    1.085176    0.000000
 ---------------------------------------------------------------------
 Rotational constants (GHZ):      9.6807946      9.4953491      4.7935876
 Leave Link  202 at Fri Apr 29 11:14:48 2005, MaxMem=   56000000 cpu:       1.0
 (Enter C:\G03W\l301.exe)
 Standard basis: 6-311+G(3df,2p) (5D, 7F)
 There are   158 symmetry adapted basis functions of A'  symmetry.
 There are    73 symmetry adapted basis functions of A"  symmetry.
 Integral buffers will be    262144 words long.
 Raffenetti 2 integral format.
 Two-electron integral symmetry is turned on.
   231 basis functions,   334 primitive gaussians,   261 cartesian basis functions
    18 alpha electrons       18 beta electrons
       nuclear repulsion energy       163.4493079640 Hartrees.
 IExCor=1009 DFT=T Ex=PBE Corr=PBE ExCW=0 ScaHFX=  0.000000
 ScaDFX=  1.000000  1.000000  1.000000  1.000000
 IRadAn=      0 IRanWt=     -1 IRanGd=            0 ICorTp=0
 NAtoms=    9 NActive=    9 NUniq=    9 SFac= 1.00D+00 NAtFMM=   60 Big=F
 Leave Link  301 at Fri Apr 29 11:14:49 2005, MaxMem=   56000000 cpu:       0.0
 (Enter C:\G03W\l302.exe)
 NPDir=0 NMtPBC=     1 NCelOv=     1 NCel=       1 NClECP=     1 NCelD=      1
         NCelK=      1 NCelE2=     1 NClLst=     1 CellRange=     0.0.
 One-electron integrals computed using PRISM.
 NBasis=   231 RedAO= T  NBF=   158    73
 NBsUse=   231 1.00D-06 NBFU=   158    73
 Precomputing XC quadrature grid using
 IXCGrd= 2 IRadAn=           0 IRanWt=          -1 IRanGd=           0.
 NRdTot=     573 NPtTot=       73048 NUsed=       75646 NTot=       75662
 NSgBfM=   261   261   261   261.
 Leave Link  302 at Fri Apr 29 11:14:51 2005, MaxMem=   56000000 cpu:       1.0
 (Enter C:\G03W\l303.exe)
 DipDrv:  MaxL=1.
 Leave Link  303 at Fri Apr 29 11:14:52 2005, MaxMem=   56000000 cpu:       0.0
 (Enter C:\G03W\l401.exe)
 Harris functional with IExCor= 1009 diagonalized for initial guess.
 ExpMin= 4.38D-02 ExpMax= 6.29D+03 ExpMxC= 9.49D+02 IAcc=2 IRadAn=         4 AccDes= 0.00D+00
 HarFok:  IExCor=1009 AccDes= 0.00D+00 IRadAn=         4 IDoV=1
 ScaDFX=  1.000000  1.000000  1.000000  1.000000
 Harris En= -226.150237572453    
 Initial guess orbital symmetries:
       Occupied  (A') (A') (A') (A') (A') (A') (A') (A') (A') (A')
                 (A') (A') (A') (A') (A") (A') (A") (A")
       Virtual   (A") (A") (A') (A') (A') (A') (A') (A") (A') (A')
                 (A') (A") (A") (A') (A') (A') (A') (A') (A') (A')
                 (A") (A') (A") (A') (A') (A') (A') (A") (A') (A')
                 (A') (A') (A') (A') (A") (A') (A") (A") (A') (A")
                 (A") (A') (A') (A') (A') (A') (A') (A") (A") (A')
                 (A') (A') (A") (A") (A') (A') (A") (A') (A") (A')
                 (A') (A') (A') (A') (A') (A") (A') (A') (A") (A")
                 (A') (A') (A") (A") (A') (A') (A') (A") (A') (A")
                 (A') (A') (A') (A") (A') (A") (A') (A') (A') (A')
                 (A") (A') (A') (A') (A") (A') (A') (A') (A") (A')
                 (A") (A') (A') (A") (A') (A') (A') (A") (A') (A")
                 (A') (A') (A") (A') (A') (A") (A") (A') (A') (A")
                 (A") (A') (A") (A') (A") (A') (A') (A") (A') (A')
                 (A") (A') (A') (A") (A") (A') (A') (A') (A') (A")
                 (A') (A') (A') (A') (A') (A") (A') (A") (A") (A')
                 (A') (A') (A") (A') (A') (A") (A') (A') (A") (A')
                 (A") (A") (A') (A') (A') (A") (A") (A') (A') (A")
                 (A') (A") (A') (A") (A') (A') (A') (A') (A') (A')
                 (A') (A') (A') (A") (A") (A") (A") (A') (A') (A')
                 (A") (A") (A') (A') (A') (A') (A') (A') (A") (A")
                 (A') (A") (A') (A') (A") (A') (A') (A') (A') (A')
                 (A') (A') (A')
 The electronic state of the initial guess is 1-A'.
 Leave Link  401 at Fri Apr 29 11:14:58 2005, MaxMem=   56000000 cpu:       5.0
 (Enter C:\G03W\l502.exe)
 Closed shell SCF:
 Requested convergence on RMS density matrix=1.00D-08 within 128 cycles.
 Requested convergence on MAX density matrix=1.00D-06.
 Requested convergence on             energy=1.00D-06.
 No special actions if energy rises.
 Using DIIS extrapolation, IDIIS=  1040.
 Integral symmetry usage will be decided dynamically.
        75645 words used for storage of precomputed grid.
 IEnd=    317001 IEndB=    317001 NGot=  56000000 MDV=  55768022
 LenX=  55768022
 Fock matrices will be formed incrementally for  20 cycles.

 Cycle   1  Pass 1  IDiag  1:
 FoFCou: FMM=F IPFlag=           0 FMFlag=           0 FMFlg1=           0
 NFxFlg=           0 DoJE=T BraDBF=F KetDBF=F FulRan=T.
 Petite list used in FoFCou.
 E= -225.866272611392    
 DIIS: error= 2.66D-02 at cycle   1 NSaved=   1.
 NSaved= 1 IEnMin= 1 EnMin= -225.866272611392     IErMin= 1 ErrMin= 2.66D-02
 ErrMax= 2.66D-02 EMaxC= 1.00D-01 BMatC= 1.34D-01 BMatP= 1.34D-01
 IDIUse=3 WtCom= 7.34D-01 WtEn= 2.66D-01
 Coeff-Com:  0.100D+01
 Coeff-En:   0.100D+01
 Coeff:      0.100D+01
 Gap=     0.140 Goal=   None    Shift=    0.000
 GapD=    0.140 DampG=1.000 DampE=0.500 DampFc=0.5000 IDamp=-1.
 Damping current iteration by 5.00D-01
 RMSDP=4.91D-03 MaxDP=1.71D-01              OVMax= 3.32D-01

 Cycle   2  Pass 1  IDiag  1:
 RMSU=  2.39D-03    CP:  9.47D-01
 E= -225.888571175325     Delta-E=       -0.022298563934 Rises=F Damp=T
 DIIS: error= 1.31D-02 at cycle   2 NSaved=   2.
 NSaved= 2 IEnMin= 2 EnMin= -225.888571175325     IErMin= 2 ErrMin= 1.31D-02
 ErrMax= 1.31D-02 EMaxC= 1.00D-01 BMatC= 2.35D-02 BMatP= 1.34D-01
 IDIUse=3 WtCom= 8.69D-01 WtEn= 1.31D-01
 Coeff-Com:  0.260D+00 0.740D+00
 Coeff-En:   0.430D+00 0.570D+00
 Coeff:      0.283D+00 0.717D+00
 Gap=     0.211 Goal=   None    Shift=    0.000
 RMSDP=1.47D-03 MaxDP=7.19D-02 DE=-2.23D-02 OVMax= 2.74D-01

 Cycle   3  Pass 1  IDiag  1:
 RMSU=  1.08D-03    CP:  9.64D-01  5.94D-01
 E= -225.993557305520     Delta-E=       -0.104986130195 Rises=F Damp=F
 DIIS: error= 1.12D-02 at cycle   3 NSaved=   3.
 NSaved= 3 IEnMin= 3 EnMin= -225.993557305520     IErMin= 3 ErrMin= 1.12D-02
 ErrMax= 1.12D-02 EMaxC= 1.00D-01 BMatC= 1.68D-02 BMatP= 2.35D-02
 IDIUse=3 WtCom= 8.88D-01 WtEn= 1.12D-01
 Coeff-Com:  0.124D+00 0.471D+00 0.406D+00
 Coeff-En:   0.000D+00 0.000D+00 0.100D+01
 Coeff:      0.110D+00 0.418D+00 0.472D+00
 Gap=     0.201 Goal=   None    Shift=    0.000
 RMSDP=6.50D-04 MaxDP=2.05D-02 DE=-1.05D-01 OVMax= 8.35D-02

 Cycle   4  Pass 1  IDiag  1:
 RMSU=  4.92D-04    CP:  9.71D-01  5.93D-01  6.14D-01
 E= -226.004635740700     Delta-E=       -0.011078435180 Rises=F Damp=F
 DIIS: error= 6.95D-03 at cycle   4 NSaved=   4.
 NSaved= 4 IEnMin= 4 EnMin= -226.004635740700     IErMin= 4 ErrMin= 6.95D-03
 ErrMax= 6.95D-03 EMaxC= 1.00D-01 BMatC= 5.55D-03 BMatP= 1.68D-02
 IDIUse=3 WtCom= 9.30D-01 WtEn= 6.95D-02
 Coeff-Com:  0.380D-01 0.175D+00 0.353D+00 0.434D+00
 Coeff-En:   0.000D+00 0.000D+00 0.300D+00 0.700D+00
 Coeff:      0.353D-01 0.163D+00 0.350D+00 0.452D+00
 Gap=     0.202 Goal=   None    Shift=    0.000
 RMSDP=2.64D-04 MaxDP=8.93D-03 DE=-1.11D-02 OVMax= 3.58D-02

 Cycle   5  Pass 1  IDiag  1:
 RMSU=  1.15D-04    CP:  9.65D-01  5.92D-01  7.05D-01  5.80D-01
 E= -226.009820767786     Delta-E=       -0.005185027086 Rises=F Damp=F
 DIIS: error= 1.27D-03 at cycle   5 NSaved=   5.
 NSaved= 5 IEnMin= 5 EnMin= -226.009820767786     IErMin= 5 ErrMin= 1.27D-03
 ErrMax= 1.27D-03 EMaxC= 1.00D-01 BMatC= 1.19D-04 BMatP= 5.55D-03
 IDIUse=3 WtCom= 9.87D-01 WtEn= 1.27D-02
 Coeff-Com:  0.581D-02 0.502D-01 0.131D+00 0.216D+00 0.597D+00
 Coeff-En:   0.000D+00 0.000D+00 0.000D+00 0.000D+00 0.100D+01
 Coeff:      0.574D-02 0.495D-01 0.130D+00 0.213D+00 0.602D+00
 Gap=     0.202 Goal=   None    Shift=    0.000
 RMSDP=6.69D-05 MaxDP=2.12D-03 DE=-5.19D-03 OVMax= 9.09D-03

 Cycle   6  Pass 1  IDiag  1:
 RMSU=  6.24D-05    CP:  9.65D-01  5.93D-01  6.99D-01  6.11D-01  8.59D-01
 E= -226.009837984497     Delta-E=       -0.000017216711 Rises=F Damp=F
 DIIS: error= 9.54D-04 at cycle   6 NSaved=   6.
 NSaved= 6 IEnMin= 6 EnMin= -226.009837984497     IErMin= 6 ErrMin= 9.54D-04
 ErrMax= 9.54D-04 EMaxC= 1.00D-01 BMatC= 9.76D-05 BMatP= 1.19D-04
 IDIUse=3 WtCom= 9.90D-01 WtEn= 9.54D-03
 Coeff-Com: -0.188D-02 0.117D-01 0.437D-01 0.957D-01 0.489D+00 0.362D+00
 Coeff-En:   0.000D+00 0.000D+00 0.000D+00 0.000D+00 0.466D+00 0.534D+00
 Coeff:     -0.186D-02 0.116D-01 0.433D-01 0.947D-01 0.488D+00 0.364D+00
 Gap=     0.202 Goal=   None    Shift=    0.000
 RMSDP=3.67D-05 MaxDP=1.27D-03 DE=-1.72D-05 OVMax= 5.52D-03

 Cycle   7  Pass 1  IDiag  1:
 RMSU=  1.47D-05    CP:  9.65D-01  5.98D-01  7.04D-01  6.08D-01  8.84D-01
                    CP:  5.00D-01
 E= -226.009929647534     Delta-E=       -0.000091663037 Rises=F Damp=F
 DIIS: error= 1.18D-04 at cycle   7 NSaved=   7.
 NSaved= 7 IEnMin= 7 EnMin= -226.009929647534     IErMin= 7 ErrMin= 1.18D-04
 ErrMax= 1.18D-04 EMaxC= 1.00D-01 BMatC= 2.55D-06 BMatP= 9.76D-05
 IDIUse=3 WtCom= 9.99D-01 WtEn= 1.18D-03
 Coeff-Com: -0.154D-02 0.413D-02 0.195D-01 0.471D-01 0.274D+00 0.224D+00
 Coeff-Com:  0.433D+00
 Coeff-En:   0.000D+00 0.000D+00 0.000D+00 0.000D+00 0.000D+00 0.000D+00
 Coeff-En:   0.100D+01
 Coeff:     -0.153D-02 0.412D-02 0.195D-01 0.471D-01 0.273D+00 0.223D+00
 Coeff:      0.434D+00
 Gap=     0.202 Goal=   None    Shift=    0.000
 RMSDP=6.48D-06 MaxDP=2.14D-04 DE=-9.17D-05 OVMax= 7.03D-04

 Cycle   8  Pass 1  IDiag  1:
 RMSU=  4.83D-06    CP:  9.65D-01  5.97D-01  7.03D-01  6.10D-01  8.91D-01
                    CP:  5.34D-01  8.00D-01
 E= -226.009931611243     Delta-E=       -0.000001963708 Rises=F Damp=F
 DIIS: error= 3.45D-05 at cycle   8 NSaved=   8.
 NSaved= 8 IEnMin= 8 EnMin= -226.009931611243     IErMin= 8 ErrMin= 3.45D-05
 ErrMax= 3.45D-05 EMaxC= 1.00D-01 BMatC= 2.68D-07 BMatP= 2.55D-06
 IDIUse=1 WtCom= 1.00D+00 WtEn= 0.00D+00
 Coeff-Com: -0.239D-03-0.148D-05 0.146D-02 0.510D-02 0.452D-01 0.435D-01
 Coeff-Com:  0.262D+00 0.643D+00
 Coeff:     -0.239D-03-0.148D-05 0.146D-02 0.510D-02 0.452D-01 0.435D-01
 Coeff:      0.262D+00 0.643D+00
 Gap=     0.202 Goal=   None    Shift=    0.000
 RMSDP=1.94D-06 MaxDP=9.22D-05 DE=-1.96D-06 OVMax= 2.03D-04

 Cycle   9  Pass 1  IDiag  1:
 RMSU=  1.23D-06    CP:  9.65D-01  5.97D-01  7.04D-01  6.09D-01  8.89D-01
                    CP:  5.33D-01  8.42D-01  7.65D-01
 E= -226.009931852596     Delta-E=       -0.000000241353 Rises=F Damp=F
 DIIS: error= 3.75D-06 at cycle   9 NSaved=   9.
 NSaved= 9 IEnMin= 9 EnMin= -226.009931852596     IErMin= 9 ErrMin= 3.75D-06
 ErrMax= 3.75D-06 EMaxC= 1.00D-01 BMatC= 2.30D-09 BMatP= 2.68D-07
 IDIUse=1 WtCom= 1.00D+00 WtEn= 0.00D+00
 Coeff-Com: -0.485D-04-0.450D-04 0.191D-03 0.103D-02 0.108D-01 0.109D-01
 Coeff-Com:  0.782D-01 0.216D+00 0.683D+00
 Coeff:     -0.485D-04-0.450D-04 0.191D-03 0.103D-02 0.108D-01 0.109D-01
 Coeff:      0.782D-01 0.216D+00 0.683D+00
 Gap=     0.202 Goal=   None    Shift=    0.000
 RMSDP=2.84D-07 MaxDP=9.65D-06 DE=-2.41D-07 OVMax= 2.92D-05

 Cycle  10  Pass 1  IDiag  1:
 RMSU=  2.43D-07    CP:  9.65D-01  5.97D-01  7.04D-01  6.09D-01  8.90D-01
                    CP:  5.33D-01  8.48D-01  7.62D-01  9.60D-01
 E= -226.009931853259     Delta-E=       -0.000000000663 Rises=F Damp=F
 DIIS: error= 2.85D-06 at cycle  10 NSaved=  10.
 NSaved=10 IEnMin=10 EnMin= -226.009931853259     IErMin=10 ErrMin= 2.85D-06
 ErrMax= 2.85D-06 EMaxC= 1.00D-01 BMatC= 1.46D-09 BMatP= 2.30D-09
 IDIUse=1 WtCom= 1.00D+00 WtEn= 0.00D+00
 Coeff-Com: -0.540D-05-0.100D-04 0.681D-05 0.204D-03 0.268D-02 0.305D-02
 Coeff-Com:  0.254D-01 0.805D-01 0.455D+00 0.433D+00
 Coeff:     -0.540D-05-0.100D-04 0.681D-05 0.204D-03 0.268D-02 0.305D-02
 Coeff:      0.254D-01 0.805D-01 0.455D+00 0.433D+00
 Gap=     0.202 Goal=   None    Shift=    0.000
 RMSDP=1.36D-07 MaxDP=5.58D-06 DE=-6.63D-10 OVMax= 1.82D-05

 Cycle  11  Pass 1  IDiag  1:
 RMSU=  7.42D-08    CP:  9.65D-01  5.97D-01  7.04D-01  6.09D-01  8.90D-01
                    CP:  5.34D-01  8.47D-01  7.69D-01  9.65D-01  6.08D-01
 E= -226.009931854662     Delta-E=       -0.000000001403 Rises=F Damp=F
 DIIS: error= 3.16D-07 at cycle  11 NSaved=  11.
 NSaved=11 IEnMin=11 EnMin= -226.009931854662     IErMin=11 ErrMin= 3.16D-07
 ErrMax= 3.16D-07 EMaxC= 1.00D-01 BMatC= 2.17D-11 BMatP= 1.46D-09
 IDIUse=1 WtCom= 1.00D+00 WtEn= 0.00D+00
 Coeff-Com: -0.713D-06-0.258D-06-0.760D-05 0.142D-04 0.376D-03 0.571D-03
 Coeff-Com:  0.467D-02 0.168D-01 0.127D+00 0.175D+00 0.675D+00
 Coeff:     -0.713D-06-0.258D-06-0.760D-05 0.142D-04 0.376D-03 0.571D-03
 Coeff:      0.467D-02 0.168D-01 0.127D+00 0.175D+00 0.675D+00
 Gap=     0.202 Goal=   None    Shift=    0.000
 RMSDP=2.17D-08 MaxDP=9.58D-07 DE=-1.40D-09 OVMax= 1.67D-06

 Cycle  12  Pass 1  IDiag  1:
 RMSU=  1.24D-08    CP:  9.65D-01  5.97D-01  7.04D-01  6.09D-01  8.90D-01
                    CP:  5.34D-01  8.48D-01  7.69D-01  9.66D-01  6.26D-01
                    CP:  8.28D-01
 E= -226.009931854720     Delta-E=       -0.000000000058 Rises=F Damp=F
 DIIS: error= 3.69D-08 at cycle  12 NSaved=  12.
 NSaved=12 IEnMin=12 EnMin= -226.009931854720     IErMin=12 ErrMin= 3.69D-08
 ErrMax= 3.69D-08 EMaxC= 1.00D-01 BMatC= 2.09D-13 BMatP= 2.17D-11
 IDIUse=1 WtCom= 1.00D+00 WtEn= 0.00D+00
 Coeff-Com: -0.457D-06-0.264D-06-0.353D-05-0.421D-05 0.461D-05 0.377D-04
 Coeff-Com:  0.363D-03 0.166D-02 0.155D-01 0.280D-01 0.154D+00 0.801D+00
 Coeff:     -0.457D-06-0.264D-06-0.353D-05-0.421D-05 0.461D-05 0.377D-04
 Coeff:      0.363D-03 0.166D-02 0.155D-01 0.280D-01 0.154D+00 0.801D+00
 Gap=     0.202 Goal=   None    Shift=    0.000
 RMSDP=3.56D-09 MaxDP=2.23D-07 DE=-5.80D-11 OVMax= 1.53D-07

 SCF Done:  E(RPBE-PBE) =  -226.009931855     A.U. after   12 cycles
             Convg  =    0.3560D-08             -V/T =  2.0032
             S**2   =   0.0000
 KE= 2.252855440929D+02 PE=-8.537300846702D+02 EE= 2.389853007586D+02
 Leave Link  502 at Fri Apr 29 11:19:32 2005, MaxMem=   56000000 cpu:     273.0
 (Enter C:\G03W\l601.exe)
 Copying SCF densities to generalized density rwf, ISCF=0 IROHF=0.

 **********************************************************************

            Population analysis using the SCF density.

 **********************************************************************

 Orbital symmetries:
       Occupied  (A') (A') (A') (A') (A') (A') (A') (A') (A') (A')
                 (A') (A') (A") (A') (A') (A') (A") (A")
       Virtual   (A") (A') (A') (A") (A') (A') (A') (A") (A') (A")
                 (A') (A") (A') (A') (A') (A') (A') (A") (A') (A')
                 (A') (A") (A') (A') (A') (A') (A') (A") (A') (A')
                 (A') (A') (A') (A') (A") (A') (A") (A') (A") (A")
                 (A') (A") (A') (A') (A') (A') (A") (A') (A") (A')
                 (A') (A') (A") (A") (A') (A') (A") (A') (A") (A')
                 (A') (A') (A') (A') (A") (A') (A') (A") (A') (A")
                 (A') (A") (A') (A") (A') (A') (A') (A") (A') (A")
                 (A') (A') (A') (A') (A") (A') (A') (A") (A') (A')
                 (A') (A') (A") (A') (A") (A') (A') (A') (A') (A")
                 (A") (A') (A') (A") (A') (A') (A') (A") (A') (A")
                 (A') (A') (A') (A") (A") (A') (A') (A") (A') (A")
                 (A") (A') (A') (A") (A') (A") (A') (A") (A') (A')
                 (A") (A') (A') (A") (A") (A') (A') (A') (A") (A')
                 (A') (A') (A') (A') (A") (A') (A') (A") (A") (A')
                 (A') (A") (A') (A') (A') (A") (A') (A') (A') (A")
                 (A") (A") (A') (A') (A') (A") (A") (A') (A') (A")
                 (A') (A") (A') (A") (A') (A') (A') (A') (A') (A')
                 (A') (A') (A') (A") (A") (A") (A") (A') (A') (A')
                 (A") (A") (A') (A') (A') (A') (A') (A') (A") (A")
                 (A') (A") (A') (A") (A') (A') (A') (A') (A') (A')
                 (A') (A') (A')
 The electronic state is 1-A'.
 Alpha  occ. eigenvalues --  -14.05755 -13.99672  -9.91816  -9.89683  -9.87872
 Alpha  occ. eigenvalues --   -0.96829  -0.74962  -0.71272  -0.55814  -0.54424
 Alpha  occ. eigenvalues --   -0.49552  -0.40277  -0.39873  -0.38517  -0.35658
 Alpha  occ. eigenvalues --   -0.24997  -0.23623  -0.22757
 Alpha virt. eigenvalues --   -0.02532  -0.01388   0.01388   0.01766   0.02056
 Alpha virt. eigenvalues --    0.04188   0.04729   0.04767   0.06529   0.08581
 Alpha virt. eigenvalues --    0.10035   0.10113   0.10478   0.13641   0.14616
 Alpha virt. eigenvalues --    0.15312   0.15809   0.16433   0.16728   0.18264
 Alpha virt. eigenvalues --    0.19054   0.19572   0.20054   0.21402   0.23065
 Alpha virt. eigenvalues --    0.24577   0.25201   0.30256   0.30957   0.32831
 Alpha virt. eigenvalues --    0.35082   0.37674   0.38604   0.40429   0.42686
 Alpha virt. eigenvalues --    0.43014   0.43025   0.46406   0.46487   0.47559
 Alpha virt. eigenvalues --    0.49192   0.50434   0.52028   0.53237   0.54456
 Alpha virt. eigenvalues --    0.58560   0.60793   0.60807   0.61954   0.64017
 Alpha virt. eigenvalues --    0.65573   0.66831   0.67997   0.69031   0.70982
 Alpha virt. eigenvalues --    0.72089   0.75254   0.77229   0.77925   0.80469
 Alpha virt. eigenvalues --    0.86445   0.88097   0.91522   0.93223   0.94584
 Alpha virt. eigenvalues --    0.95322   0.98036   1.01578   1.01676   1.03510
 Alpha virt. eigenvalues --    1.06643   1.07041   1.07110   1.11600   1.12897
 Alpha virt. eigenvalues --    1.16505   1.17718   1.18150   1.20089   1.21287
 Alpha virt. eigenvalues --    1.21746   1.28090   1.30793   1.34672   1.37441
 Alpha virt. eigenvalues --    1.40064   1.43033   1.43112   1.47129   1.50737
 Alpha virt. eigenvalues --    1.56313   1.57784   1.58275   1.64205   1.69831
 Alpha virt. eigenvalues --    1.80470   1.85230   1.86693   1.97340   1.97986
 Alpha virt. eigenvalues --    1.98696   1.99972   2.03686   2.11393   2.15683
 Alpha virt. eigenvalues --    2.22458   2.24687   2.26433   2.38830   2.39114
 Alpha virt. eigenvalues --    2.43727   2.51042   2.55644   2.56738   2.61394
 Alpha virt. eigenvalues --    2.62089   2.65040   2.66212   2.72906   2.76911
 Alpha virt. eigenvalues --    2.81843   2.82417   2.87193   2.88234   2.95547
 Alpha virt. eigenvalues --    2.97058   3.01348   3.03723   3.07150   3.14804
 Alpha virt. eigenvalues --    3.16167   3.21990   3.25131   3.29061   3.33425
 Alpha virt. eigenvalues --    3.33880   3.38490   3.44594   3.49404   3.51629
 Alpha virt. eigenvalues --    3.57325   3.63145   3.68686   3.71765   3.71915
 Alpha virt. eigenvalues --    3.73806   3.82431   3.85079   3.89819   3.90756
 Alpha virt. eigenvalues --    3.94457   3.97125   3.98185   4.06380   4.12711
 Alpha virt. eigenvalues --    4.15921   4.17512   4.21783   4.22960   4.27109
 Alpha virt. eigenvalues --    4.30070   4.33017   4.41405   4.42131   4.57256
 Alpha virt. eigenvalues --    4.62590   4.70939   4.74125   4.77701   4.78487
 Alpha virt. eigenvalues --    4.91496   4.93144   4.93600   5.08558   5.20874
 Alpha virt. eigenvalues --    5.37156   5.50696   5.70626   5.78290   6.11045
 Alpha virt. eigenvalues --    6.17789   6.51693   6.54133   6.99545   7.03127
 Alpha virt. eigenvalues --    7.16150   7.18543   7.22563   7.33682   7.42447
 Alpha virt. eigenvalues --    7.43768   7.54032   7.62126   7.91167   8.00904
 Alpha virt. eigenvalues --    8.15649   8.32010   8.42479   9.98319  10.29026
 Alpha virt. eigenvalues --   10.33530  10.38551  10.60612  10.67751  10.68425
 Alpha virt. eigenvalues --   10.80330  11.28239  12.02611  24.25814  25.00134
 Alpha virt. eigenvalues --   25.26384  35.78797  35.92025
          Condensed to atoms (all electrons):
              1          2          3          4          5          6
     1  H    0.510715   0.485383  -0.001923  -0.118774  -0.000124   0.013131
     2  C    0.485383   5.599174  -0.090524  -0.132483   0.016425  -0.264600
     3  H   -0.001923  -0.090524   0.525657   0.490190  -0.001380  -0.073539
     4  C   -0.118774  -0.132483   0.490190   6.150449  -0.153831  -0.052767
     5  H   -0.000124   0.016425  -0.001380  -0.153831   0.531231   0.515481
     6  C    0.013131  -0.264600  -0.073539  -0.052767   0.515481   5.452634
     7  N    0.007257  -0.099075   0.002033  -0.007971  -0.060193   0.269913
     8  H   -0.000773  -0.047658  -0.000010  -0.003680  -0.000306   0.009995
     9  N   -0.042483   0.204145   0.012092  -0.118905   0.017771  -0.115070
              7          8          9
     1  H    0.007257  -0.000773  -0.042483
     2  C   -0.099075  -0.047658   0.204145
     3  H    0.002033  -0.000010   0.012092
     4  C   -0.007971  -0.003680  -0.118905
     5  H   -0.060193  -0.000306   0.017771
     6  C    0.269913   0.009995  -0.115070
     7  N    7.771292  -0.069656  -0.140181
     8  H   -0.069656   0.512434   0.429779
     9  N   -0.140181   0.429779   7.191037
 Mulliken atomic charges:
              1
     1  H    0.147590
     2  C    0.329213
     3  H    0.137404
     4  C   -0.052229
     5  H    0.134927
     6  C    0.244823
     7  N   -0.673420
     8  H    0.169875
     9  N   -0.438184
 Sum of Mulliken charges=   0.00000
 Atomic charges with hydrogens summed into heavy atoms:
              1
     1  H    0.000000
     2  C    0.476803
     3  H    0.000000
     4  C    0.085176
     5  H    0.000000
     6  C    0.379750
     7  N   -0.673420
     8  H    0.000000
     9  N   -0.268309
 Sum of Mulliken charges=   0.00000
 Electronic spatial extent (au):  <R**2>=   286.0947
 Charge=     0.0000 electrons
 Dipole moment (field-independent basis, Debye):
    X=     2.0752    Y=     0.8423    Z=     0.0000  Tot=     2.2396
 Quadrupole moment (field-independent basis, Debye-Ang):
   XX=   -30.3364   YY=   -22.5988   ZZ=   -32.1987
   XY=     2.5300   XZ=     0.0000   YZ=     0.0000
 Traceless Quadrupole moment (field-independent basis, Debye-Ang):
   XX=    -1.9584   YY=     5.7792   ZZ=    -3.8208
   XY=     2.5300   XZ=     0.0000   YZ=     0.0000
 Octapole moment (field-independent basis, Debye-Ang**2):
  XXX=     9.5029  YYY=    11.9591  ZZZ=     0.0000  XYY=     0.4356
  XXY=    -2.6512  XXZ=     0.0000  XZZ=    -0.9124  YZZ=     2.1627
  YYZ=     0.0000  XYZ=     0.0000
 Hexadecapole moment (field-independent basis, Debye-Ang**3):
 XXXX=  -182.3693 YYYY=  -137.6831 ZZZZ=   -36.7655 XXXY=    11.3376
 XXXZ=     0.0000 YYYX=    -1.3625 YYYZ=     0.0000 ZZZX=     0.0000
 ZZZY=     0.0000 XXYY=   -53.6574 XXZZ=   -40.3195 YYZZ=   -38.5467
 XXYZ=     0.0000 YYXZ=     0.0000 ZZXY=     0.1046
 N-N= 1.634493079640D+02 E-N=-8.537300834598D+02  KE= 2.252855440929D+02
 Symmetry A'   KE= 2.170196472592D+02
 Symmetry A"   KE= 8.265896833690D+00
 No NMR shielding tensors so no spin-rotation constants.
 Leave Link  601 at Fri Apr 29 11:19:34 2005, MaxMem=   56000000 cpu:       1.0
 (Enter C:\G03W\l701.exe)
 Compute integral first derivatives.
 ... and contract with generalized density number  0.
 Leave Link  701 at Fri Apr 29 11:19:35 2005, MaxMem=   56000000 cpu:       0.0
 (Enter C:\G03W\l702.exe)
 L702 exits ... SP integral derivatives will be done elsewhere.
 Leave Link  702 at Fri Apr 29 11:19:37 2005, MaxMem=   56000000 cpu:       0.0
 (Enter C:\G03W\l703.exe)
 Compute integral first derivatives, UseDBF=F.
 Integral derivatives from FoFDir, PRISM(SPDF).
 Calling FoFCou, ICntrl=  2527 FMM=F ISym2X=1 I1Cent= 0 ISCF1= 0.
 FoFCou: FMM=F IPFlag=           0 FMFlag=           0 FMFlg1=           0
 NFxFlg=           0 DoJE=F BraDBF=F KetDBF=F FulRan=T.
 Petite list used in FoFCou.
 Leave Link  703 at Fri Apr 29 11:25:14 2005, MaxMem=   56000000 cpu:     336.0
 (Enter C:\G03W\l716.exe)
 Dipole        = 8.16432127D-01 3.31369217D-01 0.00000000D+00
 ***** Axes restored to original set *****
 -------------------------------------------------------------------
 Center     Atomic                   Forces (Hartrees/Bohr)
 Number     Number              X              Y              Z
 -------------------------------------------------------------------
    1          1           0.005694138    0.002364268    0.000000000
    2          6           0.002932054    0.001608491    0.000000000
    3          1           0.003548963   -0.004927017    0.000000000
    4          6          -0.001772584   -0.003157861    0.000000000
    5          1          -0.004230276   -0.004290604    0.000000000
    6          6           0.004010684   -0.004711437    0.000000000
    7          7          -0.008586254    0.008625442    0.000000000
    8          1          -0.000462422    0.006973858    0.000000000
    9          7          -0.001134304   -0.002485141    0.000000000
 -------------------------------------------------------------------
 Cartesian Forces:  Max     0.008625442 RMS     0.003742661
 Leave Link  716 at Fri Apr 29 11:25:15 2005, MaxMem=   56000000 cpu:       0.0
 (Enter C:\G03W\l103.exe)

 GradGradGradGradGradGradGradGradGradGradGradGradGradGradGradGradGradGrad
 Berny optimization.
 Internal  Forces:  Max     0.010609036 RMS     0.003335477
 Search for a local minimum.
 Step number   1 out of a maximum of  48
 All quantities printed in internal units (Hartrees-Bohrs-Radians)
 Second derivative matrix not updated -- first step.
     Eigenvalues ---    0.02103   0.02178   0.02210   0.02253   0.02348
     Eigenvalues ---    0.02366   0.16000   0.16000   0.16000   0.16000
     Eigenvalues ---    0.22000   0.22917   0.36291   0.36457   0.36567
     Eigenvalues ---    0.40704   0.46557   0.46833   0.50952   0.54314
     Eigenvalues ---    0.583561000.000001000.000001000.000001000.00000
     Eigenvalues --- 1000.000001000.000001000.000001000.000001000.00000
     Eigenvalues --- 1000.000001000.000001000.000001000.000001000.00000
     Eigenvalues --- 1000.000001000.000001000.00000
 RFO step:  Lambda=-9.00182493D-04.
 Linear search not attempted -- first point.
 Iteration  1 RMS(Cart)=  0.00927523 RMS(Int)=  0.00000770
 Iteration  2 RMS(Cart)=  0.00000904 RMS(Int)=  0.00000062
 Iteration  3 RMS(Cart)=  0.00000000 RMS(Int)=  0.00000062
 Variable       Old X    -DE/DX   Delta X   Delta X   Delta X     New X
                                 (Linear)    (Quad)   (Total)
    R1        2.03372   0.00617   0.00000   0.01687   0.01687   2.05059
    R2        2.60055   0.00771   0.00000   0.01524   0.01524   2.61578
    R3        2.55763   0.00685   0.00000   0.01243   0.01243   2.57006
    R4        2.03205   0.00607   0.00000   0.01656   0.01656   2.04860
    R5        2.66411   0.00440   0.00000   0.01004   0.01004   2.67415
    R6        2.03629   0.00602   0.00000   0.01656   0.01656   2.05285
    R7        2.50727   0.01061   0.00000   0.01778   0.01778   2.52506
    R8        2.54191   0.00441   0.00000   0.00793   0.00793   2.54984
    R9        1.89903   0.00699   0.00000   0.01489   0.01489   1.91392
    A1        2.30096   0.00007   0.00000   0.00075   0.00075   2.30171
    A2        2.12776   0.00014   0.00000   0.00118   0.00118   2.12895
    A3        1.85446  -0.00020   0.00000  -0.00194  -0.00194   1.85253
    A4        2.22092  -0.00011   0.00000  -0.00060  -0.00060   2.22032
    A5        1.82487  -0.00020   0.00000  -0.00146  -0.00146   1.82341
    A6        2.23739   0.00031   0.00000   0.00206   0.00206   2.23945
    A7        2.24312  -0.00013   0.00000  -0.00049  -0.00049   2.24263
    A8        1.95147   0.00061   0.00000   0.00317   0.00317   1.95464
    A9        2.08859  -0.00048   0.00000  -0.00268  -0.00268   2.08592
   A10        1.82097  -0.00142   0.00000  -0.00494  -0.00493   1.81603
   A11        1.97300   0.00122   0.00000   0.00516   0.00517   1.97817
   A12        2.23231  -0.00048   0.00000  -0.00179  -0.00179   2.23052
   A13        2.07787  -0.00074   0.00000  -0.00338  -0.00338   2.07449
    D1        0.00000   0.00000   0.00000   0.00000   0.00000   0.00000
    D2        3.14159   0.00000   0.00000   0.00000   0.00000   3.14159
    D3        3.14159   0.00000   0.00000   0.00000   0.00000   3.14159
    D4        0.00000   0.00000   0.00000   0.00000   0.00000   0.00000
    D5        3.14159   0.00000   0.00000   0.00000   0.00000   3.14159
    D6        0.00000   0.00000   0.00000   0.00000   0.00000   0.00000
    D7        0.00000   0.00000   0.00000   0.00000   0.00000   0.00000
    D8        3.14159   0.00000   0.00000   0.00000   0.00000   3.14159
    D9        3.14159   0.00000   0.00000   0.00000   0.00000   3.14159
   D10        0.00000   0.00000   0.00000   0.00000   0.00000   0.00000
   D11        0.00000   0.00000   0.00000   0.00000   0.00000   0.00000
   D12        3.14159   0.00000   0.00000   0.00000   0.00000   3.14159
   D13        0.00000   0.00000   0.00000   0.00000   0.00000   0.00000
   D14        3.14159   0.00000   0.00000   0.00000   0.00000   3.14159
   D15        0.00000   0.00000   0.00000   0.00000   0.00000   0.00000
   D16        3.14159   0.00000   0.00000   0.00000   0.00000   3.14159
         Item               Value     Threshold  Converged?
 Maximum Force            0.010609     0.000450     NO 
 RMS     Force            0.003335     0.000300     NO 
 Maximum Displacement     0.023735     0.001800     NO 
 RMS     Displacement     0.009273     0.001200     NO 
 Predicted change in Energy=-4.510005D-04
 GradGradGradGradGradGradGradGradGradGradGradGradGradGradGradGradGradGrad

 Leave Link  103 at Fri Apr 29 11:25:17 2005, MaxMem=   56000000 cpu:       1.0
 (Enter C:\G03W\l202.exe)
                          Input orientation:                          
 ---------------------------------------------------------------------
 Center     Atomic     Atomic              Coordinates (Angstroms)
 Number     Number      Type              X           Y           Z
 ---------------------------------------------------------------------
    1          1             0        2.110606    0.733452    0.000000
    2          6             0        1.111924    0.309028    0.000000
    3          1             0        1.269742   -1.900384    0.000000
    4          6             0        0.664614   -1.000918    0.000000
    5          1             0       -1.485459   -1.688969    0.000000
    6          6             0       -0.746350   -0.892848    0.000000
    7          7             0       -1.150658    0.380718    0.000000
    8          1             0       -0.051743    2.100605    0.000000
    9          7             0       -0.002197    1.089016    0.000000
 ---------------------------------------------------------------------
                    Distance matrix (angstroms):
                    1          2          3          4          5
     1  H    0.000000
     2  C    1.085127   0.000000
     3  H    2.764805   2.215042   0.000000
     4  C    2.258082   1.384213   1.084075   0.000000
     5  H    4.335874   3.276948   2.763300   2.257482   0.000000
     6  C    3.287408   2.213073   2.253831   1.415097   1.086319
     7  N    3.280284   2.263718   3.325922   2.281256   2.096591
     8  H    2.558293   2.136322   4.213578   3.183177   4.051718
     9  N    2.142513   1.360017   3.248745   2.193733   3.149170
                    6          7          8          9
     6  C    0.000000
     7  N    1.336202   0.000000
     8  H    3.072986   2.040987   0.000000
     9  N    2.116968   1.349315   1.012802   0.000000
 Stoichiometry    C3H4N2
 Framework group  CS[SG(C3H4N2)]
 Deg. of freedom    15
 Full point group                 CS      NOp   2
 Largest Abelian subgroup         CS      NOp   2
 Largest concise Abelian subgroup C1      NOp   1
                         Standard orientation:                         
 ---------------------------------------------------------------------
 Center     Atomic     Atomic              Coordinates (Angstroms)
 Number     Number      Type              X           Y           Z
 ---------------------------------------------------------------------
    1          1             0        2.112499    0.730975    0.000000
    2          6             0        1.113456    0.307402    0.000000
    3          1             0        1.269392   -1.902144    0.000000
    4          6             0        0.665030   -1.002163    0.000000
    5          1             0       -1.485627   -1.688383    0.000000
    6          6             0       -0.745841   -0.892892    0.000000
    7          7             0       -1.149064    0.381018    0.000000
    8          1             0       -0.048685    2.099970    0.000000
    9          7             0        0.000000    1.088339    0.000000
 ---------------------------------------------------------------------
 Rotational constants (GHZ):      9.5984361      9.3829421      4.7447329
 Leave Link  202 at Fri Apr 29 11:25:18 2005, MaxMem=   56000000 cpu:       0.0
 (Enter C:\G03W\l301.exe)
 Standard basis: 6-311+G(3df,2p) (5D, 7F)
 There are   158 symmetry adapted basis functions of A'  symmetry.
 There are    73 symmetry adapted basis functions of A"  symmetry.
 Integral buffers will be    262144 words long.
 Raffenetti 2 integral format.
 Two-electron integral symmetry is turned on.
   231 basis functions,   334 primitive gaussians,   261 cartesian basis functions
    18 alpha electrons       18 beta electrons
       nuclear repulsion energy       162.5954375531 Hartrees.
 IExCor=1009 DFT=T Ex=PBE Corr=PBE ExCW=0 ScaHFX=  0.000000
 ScaDFX=  1.000000  1.000000  1.000000  1.000000
 IRadAn=      0 IRanWt=     -1 IRanGd=            0 ICorTp=0
 NAtoms=    9 NActive=    9 NUniq=    9 SFac= 1.00D+00 NAtFMM=   60 Big=F
 Leave Link  301 at Fri Apr 29 11:25:19 2005, MaxMem=   56000000 cpu:       0.0
 (Enter C:\G03W\l302.exe)
 NPDir=0 NMtPBC=     1 NCelOv=     1 NCel=       1 NClECP=     1 NCelD=      1
         NCelK=      1 NCelE2=     1 NClLst=     1 CellRange=     0.0.
 One-electron integrals computed using PRISM.
 NBasis=   231 RedAO= T  NBF=   158    73
 NBsUse=   231 1.00D-06 NBFU=   158    73
 Precomputing XC quadrature grid using
 IXCGrd= 2 IRadAn=           0 IRanWt=          -1 IRanGd=           0.
 NRdTot=     573 NPtTot=       73048 NUsed=       75646 NTot=       75662
 NSgBfM=   261   261   261   261.
 Leave Link  302 at Fri Apr 29 11:25:21 2005, MaxMem=   56000000 cpu:       1.0
 (Enter C:\G03W\l303.exe)
 DipDrv:  MaxL=1.
 Leave Link  303 at Fri Apr 29 11:25:22 2005, MaxMem=   56000000 cpu:       0.0
 (Enter C:\G03W\l401.exe)
 Initial guess read from the read-write file:
 Guess basis will be translated and rotated to current coordinates.
 Initial guess orbital symmetries:
       Occupied  (A') (A') (A') (A') (A') (A') (A') (A') (A') (A')
                 (A') (A') (A") (A') (A') (A') (A") (A")
       Virtual   (A") (A') (A') (A") (A') (A') (A') (A") (A') (A")
                 (A') (A") (A') (A') (A') (A') (A') (A") (A') (A')
                 (A') (A") (A') (A') (A') (A') (A') (A") (A') (A')
                 (A') (A') (A') (A') (A") (A') (A") (A') (A") (A")
                 (A') (A") (A') (A') (A') (A') (A") (A') (A") (A')
                 (A') (A') (A") (A") (A') (A') (A") (A') (A") (A')
                 (A') (A') (A') (A') (A") (A') (A') (A") (A') (A")
                 (A') (A") (A') (A") (A') (A') (A') (A") (A') (A")
                 (A') (A') (A') (A') (A") (A') (A') (A") (A') (A')
                 (A') (A') (A") (A') (A") (A') (A') (A') (A') (A")
                 (A") (A') (A') (A") (A') (A') (A') (A") (A') (A")
                 (A') (A') (A') (A") (A") (A') (A') (A") (A') (A")
                 (A") (A') (A') (A") (A') (A") (A') (A") (A') (A')
                 (A") (A') (A') (A") (A") (A') (A') (A') (A") (A')
                 (A') (A') (A') (A') (A") (A') (A') (A") (A") (A')
                 (A') (A") (A') (A') (A') (A") (A') (A') (A') (A")
                 (A") (A") (A') (A') (A') (A") (A") (A') (A') (A")
                 (A') (A") (A') (A") (A') (A') (A') (A') (A') (A')
                 (A') (A') (A') (A") (A") (A") (A") (A') (A') (A')
                 (A") (A") (A') (A') (A') (A') (A') (A') (A") (A")
                 (A') (A") (A') (A") (A') (A') (A') (A') (A') (A')
                 (A') (A') (A')
 The electronic state of the initial guess is 1-A'.
 Generating alternative initial guess.
 Harris functional with IExCor= 1009 diagonalized for initial guess.
 ExpMin= 4.38D-02 ExpMax= 6.29D+03 ExpMxC= 9.49D+02 IAcc=2 IRadAn=         4 AccDes= 0.00D+00
 HarFok:  IExCor=1009 AccDes= 0.00D+00 IRadAn=         4 IDoV=1
 ScaDFX=  1.000000  1.000000  1.000000  1.000000
 Harris En= -226.145275295305    
 Leave Link  401 at Fri Apr 29 11:25:29 2005, MaxMem=   56000000 cpu:       6.0
 (Enter C:\G03W\l502.exe)
 Closed shell SCF:
 Requested convergence on RMS density matrix=1.00D-08 within 128 cycles.
 Requested convergence on MAX density matrix=1.00D-06.
 Requested convergence on             energy=1.00D-06.
 No special actions if energy rises.
 Using DIIS extrapolation, IDIIS=  1040.
 Integral symmetry usage will be decided dynamically.
        75645 words used for storage of precomputed grid.
 IEnd=    317001 IEndB=    317001 NGot=  56000000 MDV=  55768022
 LenX=  55768022
 Fock matrices will be formed incrementally for  20 cycles.

 Cycle   1  Pass 1  IDiag  1:
 FoFCou: FMM=F IPFlag=           0 FMFlag=           0 FMFlg1=           0
 NFxFlg=           0 DoJE=T BraDBF=F KetDBF=F FulRan=T.
 Petite list used in FoFCou.
 E= -226.010271742190    
 DIIS: error= 6.26D-04 at cycle   1 NSaved=   1.
 NSaved= 1 IEnMin= 1 EnMin= -226.010271742190     IErMin= 1 ErrMin= 6.26D-04
 ErrMax= 6.26D-04 EMaxC= 1.00D-01 BMatC= 1.90D-04 BMatP= 1.90D-04
 IDIUse=3 WtCom= 9.94D-01 WtEn= 6.26D-03
 Coeff-Com:  0.100D+01
 Coeff-En:   0.100D+01
 Coeff:      0.100D+01
 Gap=     0.201 Goal=   None    Shift=    0.000
 RMSDP=1.13D-04 MaxDP=4.98D-03              OVMax= 3.26D-03

 Cycle   2  Pass 1  IDiag  1:
 RMSU=  1.10D-04    CP:  9.97D-01
 E= -226.010350151452     Delta-E=       -0.000078409262 Rises=F Damp=F
 DIIS: error= 5.32D-04 at cycle   2 NSaved=   2.
 NSaved= 2 IEnMin= 2 EnMin= -226.010350151452     IErMin= 2 ErrMin= 5.32D-04
 ErrMax= 5.32D-04 EMaxC= 1.00D-01 BMatC= 3.94D-05 BMatP= 1.90D-04
 IDIUse=3 WtCom= 9.95D-01 WtEn= 5.32D-03
 Coeff-Com:  0.238D+00 0.762D+00
 Coeff-En:   0.000D+00 0.100D+01
 Coeff:      0.237D+00 0.763D+00
 Gap=     0.200 Goal=   None    Shift=    0.000
 RMSDP=4.54D-05 MaxDP=1.36D-03 DE=-7.84D-05 OVMax= 3.20D-03

 Cycle   3  Pass 1  IDiag  1:
 RMSU=  4.27D-05    CP:  9.98D-01  9.02D-01
 E= -226.010346981264     Delta-E=        0.000003170188 Rises=F Damp=F
 DIIS: error= 5.12D-04 at cycle   3 NSaved=   3.
 NSaved= 3 IEnMin= 2 EnMin= -226.010350151452     IErMin= 3 ErrMin= 5.12D-04
 ErrMax= 5.12D-04 EMaxC= 1.00D-01 BMatC= 4.54D-05 BMatP= 3.94D-05
 IDIUse=3 WtCom= 3.06D-01 WtEn= 6.94D-01
 Coeff-Com:  0.348D-01 0.511D+00 0.454D+00
 Coeff-En:   0.000D+00 0.517D+00 0.483D+00
 Coeff:      0.107D-01 0.515D+00 0.474D+00
 Gap=     0.200 Goal=   None    Shift=    0.000
 RMSDP=2.60D-05 MaxDP=9.47D-04 DE= 3.17D-06 OVMax= 2.58D-03

 Cycle   4  Pass 1  IDiag  1:
 RMSU=  1.39D-05    CP:  9.98D-01  9.54D-01  5.40D-01
 E= -226.010382695208     Delta-E=       -0.000035713944 Rises=F Damp=F
 DIIS: error= 1.77D-04 at cycle   4 NSaved=   4.
 NSaved= 4 IEnMin= 4 EnMin= -226.010382695208     IErMin= 4 ErrMin= 1.77D-04
 ErrMax= 1.77D-04 EMaxC= 1.00D-01 BMatC= 5.39D-06 BMatP= 3.94D-05
 IDIUse=3 WtCom= 9.98D-01 WtEn= 1.77D-03
 Coeff-Com:  0.112D-01 0.320D+00 0.325D+00 0.344D+00
 Coeff-En:   0.000D+00 0.000D+00 0.280D-01 0.972D+00
 Coeff:      0.112D-01 0.319D+00 0.324D+00 0.345D+00
 Gap=     0.200 Goal=   None    Shift=    0.000
 RMSDP=9.87D-06 MaxDP=3.82D-04 DE=-3.57D-05 OVMax= 1.24D-03

 Cycle   5  Pass 1  IDiag  1:
 RMSU=  5.36D-06    CP:  9.98D-01  9.49D-01  5.00D-01  4.18D-01
 E= -226.010387189809     Delta-E=       -0.000004494601 Rises=F Damp=F
 DIIS: error= 4.79D-05 at cycle   5 NSaved=   5.
 NSaved= 5 IEnMin= 5 EnMin= -226.010387189809     IErMin= 5 ErrMin= 4.79D-05
 ErrMax= 4.79D-05 EMaxC= 1.00D-01 BMatC= 2.64D-07 BMatP= 5.39D-06
 IDIUse=1 WtCom= 1.00D+00 WtEn= 0.00D+00
 Coeff-Com:  0.158D-02 0.109D+00 0.121D+00 0.212D+00 0.557D+00
 Coeff:      0.158D-02 0.109D+00 0.121D+00 0.212D+00 0.557D+00
 Gap=     0.200 Goal=   None    Shift=    0.000
 RMSDP=2.48D-06 MaxDP=7.20D-05 DE=-4.49D-06 OVMax= 3.49D-04

 Cycle   6  Pass 1  IDiag  1:
 RMSU=  1.25D-06    CP:  9.98D-01  9.51D-01  5.04D-01  4.87D-01  6.46D-01
 E= -226.010387400601     Delta-E=       -0.000000210792 Rises=F Damp=F
 DIIS: error= 2.35D-05 at cycle   6 NSaved=   6.
 NSaved= 6 IEnMin= 6 EnMin= -226.010387400601     IErMin= 6 ErrMin= 2.35D-05
 ErrMax= 2.35D-05 EMaxC= 1.00D-01 BMatC= 5.62D-08 BMatP= 2.64D-07
 IDIUse=1 WtCom= 1.00D+00 WtEn= 0.00D+00
 Coeff-Com:  0.238D-03 0.507D-01 0.585D-01 0.118D+00 0.393D+00 0.379D+00
 Coeff:      0.238D-03 0.507D-01 0.585D-01 0.118D+00 0.393D+00 0.379D+00
 Gap=     0.200 Goal=   None    Shift=    0.000
 RMSDP=8.53D-07 MaxDP=2.69D-05 DE=-2.11D-07 OVMax= 1.10D-04

 Cycle   7  Pass 1  IDiag  1:
 RMSU=  4.09D-07    CP:  9.98D-01  9.51D-01  5.11D-01  4.72D-01  6.72D-01
                    CP:  4.80D-01
 E= -226.010387451311     Delta-E=       -0.000000050710 Rises=F Damp=F
 DIIS: error= 5.43D-06 at cycle   7 NSaved=   7.
 NSaved= 7 IEnMin= 7 EnMin= -226.010387451311     IErMin= 7 ErrMin= 5.43D-06
 ErrMax= 5.43D-06 EMaxC= 1.00D-01 BMatC= 3.46D-09 BMatP= 5.62D-08
 IDIUse=1 WtCom= 1.00D+00 WtEn= 0.00D+00
 Coeff-Com: -0.374D-04 0.175D-01 0.212D-01 0.449D-01 0.171D+00 0.234D+00
 Coeff-Com:  0.511D+00
 Coeff:     -0.374D-04 0.175D-01 0.212D-01 0.449D-01 0.171D+00 0.234D+00
 Coeff:      0.511D+00
 Gap=     0.200 Goal=   None    Shift=    0.000
 RMSDP=2.62D-07 MaxDP=7.72D-06 DE=-5.07D-08 OVMax= 3.97D-05

 Cycle   8  Pass 1  IDiag  1:
 RMSU=  1.85D-07    CP:  9.98D-01  9.50D-01  5.10D-01  4.73D-01  6.74D-01
                    CP:  5.15D-01  5.70D-01
 E= -226.010387453393     Delta-E=       -0.000000002082 Rises=F Damp=F
 DIIS: error= 2.88D-06 at cycle   8 NSaved=   8.
 NSaved= 8 IEnMin= 8 EnMin= -226.010387453393     IErMin= 8 ErrMin= 2.88D-06
 ErrMax= 2.88D-06 EMaxC= 1.00D-01 BMatC= 1.11D-09 BMatP= 3.46D-09
 IDIUse=1 WtCom= 1.00D+00 WtEn= 0.00D+00
 Coeff-Com: -0.631D-04 0.639D-02 0.802D-02 0.176D-01 0.758D-01 0.126D+00
 Coeff-Com:  0.388D+00 0.379D+00
 Coeff:     -0.631D-04 0.639D-02 0.802D-02 0.176D-01 0.758D-01 0.126D+00
 Coeff:      0.388D+00 0.379D+00
 Gap=     0.200 Goal=   None    Shift=    0.000
 RMSDP=1.19D-07 MaxDP=3.06D-06 DE=-2.08D-09 OVMax= 1.43D-05

 Cycle   9  Pass 1  IDiag  1:
 RMSU=  4.76D-08    CP:  9.98D-01  9.51D-01  5.10D-01  4.74D-01  6.76D-01
                    CP:  5.17D-01  6.76D-01  4.64D-01
 E= -226.010387454509     Delta-E=       -0.000000001115 Rises=F Damp=F
 DIIS: error= 1.62D-07 at cycle   9 NSaved=   9.
 NSaved= 9 IEnMin= 9 EnMin= -226.010387454509     IErMin= 9 ErrMin= 1.62D-07
 ErrMax= 1.62D-07 EMaxC= 1.00D-01 BMatC= 6.23D-12 BMatP= 1.11D-09
 IDIUse=1 WtCom= 1.00D+00 WtEn= 0.00D+00
 Coeff-Com: -0.138D-04 0.911D-03 0.115D-02 0.253D-02 0.133D-01 0.272D-01
 Coeff-Com:  0.911D-01 0.124D+00 0.740D+00
 Coeff:     -0.138D-04 0.911D-03 0.115D-02 0.253D-02 0.133D-01 0.272D-01
 Coeff:      0.911D-01 0.124D+00 0.740D+00
 Gap=     0.200 Goal=   None    Shift=    0.000
 RMSDP=1.37D-08 MaxDP=4.55D-07 DE=-1.12D-09 OVMax= 7.53D-07

 Cycle  10  Pass 1  IDiag  1:
 RMSU=  7.60D-09    CP:  9.98D-01  9.51D-01  5.10D-01  4.74D-01  6.77D-01
                    CP:  5.20D-01  6.72D-01  4.85D-01  8.43D-01
 E= -226.010387454531     Delta-E=       -0.000000000022 Rises=F Damp=F
 DIIS: error= 2.32D-08 at cycle  10 NSaved=  10.
 NSaved=10 IEnMin=10 EnMin= -226.010387454531     IErMin=10 ErrMin= 2.32D-08
 ErrMax= 2.32D-08 EMaxC= 1.00D-01 BMatC= 1.25D-13 BMatP= 6.23D-12
 IDIUse=1 WtCom= 1.00D+00 WtEn= 0.00D+00
 Coeff-Com: -0.298D-05 0.178D-03 0.213D-03 0.524D-03 0.276D-02 0.607D-02
 Coeff-Com:  0.208D-01 0.316D-01 0.220D+00 0.718D+00
 Coeff:     -0.298D-05 0.178D-03 0.213D-03 0.524D-03 0.276D-02 0.607D-02
 Coeff:      0.208D-01 0.316D-01 0.220D+00 0.718D+00
 Gap=     0.200 Goal=   None    Shift=    0.000
 RMSDP=2.23D-09 MaxDP=1.14D-07 DE=-2.21D-11 OVMax= 2.05D-07

 SCF Done:  E(RPBE-PBE) =  -226.010387455     A.U. after   10 cycles
             Convg  =    0.2230D-08             -V/T =  2.0038
             S**2   =   0.0000
 KE= 2.251540162568D+02 PE=-8.519304730265D+02 EE= 2.381706317620D+02
 Leave Link  502 at Fri Apr 29 11:29:11 2005, MaxMem=   56000000 cpu:     221.0
 (Enter C:\G03W\l701.exe)
 Compute integral first derivatives.
 ... and contract with generalized density number  0.
 Leave Link  701 at Fri Apr 29 11:29:13 2005, MaxMem=   56000000 cpu:       1.0
 (Enter C:\G03W\l702.exe)
 L702 exits ... SP integral derivatives will be done elsewhere.
 Leave Link  702 at Fri Apr 29 11:29:14 2005, MaxMem=   56000000 cpu:       0.0
 (Enter C:\G03W\l703.exe)
 Compute integral first derivatives, UseDBF=F.
 Integral derivatives from FoFDir, PRISM(SPDF).
 Calling FoFCou, ICntrl=  2527 FMM=F ISym2X=1 I1Cent= 0 ISCF1= 0.
 FoFCou: FMM=F IPFlag=           0 FMFlag=           0 FMFlg1=           0
 NFxFlg=           0 DoJE=F BraDBF=F KetDBF=F FulRan=T.
 Petite list used in FoFCou.
 Leave Link  703 at Fri Apr 29 11:34:50 2005, MaxMem=   56000000 cpu:     335.0
 (Enter C:\G03W\l716.exe)
 Dipole        = 8.20174123D-01 3.29335774D-01 0.00000000D+00
 ***** Axes restored to original set *****
 -------------------------------------------------------------------
 Center     Atomic                   Forces (Hartrees/Bohr)
 Number     Number              X              Y              Z
 -------------------------------------------------------------------
    1          1          -0.000150044    0.000081230    0.000000000
    2          6           0.000482903    0.000384345    0.000000000
    3          1           0.000014773    0.000133062    0.000000000
    4          6          -0.001673467    0.000099520    0.000000000
    5          1          -0.000119087    0.000189936    0.000000000
    6          6           0.001935802   -0.001858825    0.000000000
    7          7          -0.001100651    0.001418681    0.000000000
    8          1           0.000057334    0.000077108    0.000000000
    9          7           0.000552437   -0.000525055    0.000000000
 -------------------------------------------------------------------
 Cartesian Forces:  Max     0.001935802 RMS     0.000727893
 Leave Link  716 at Fri Apr 29 11:34:51 2005, MaxMem=   56000000 cpu:       0.0
 (Enter C:\G03W\l103.exe)

 GradGradGradGradGradGradGradGradGradGradGradGradGradGradGradGradGradGrad
 Berny optimization.
 Internal  Forces:  Max     0.001442151 RMS     0.000346842
 Search for a local minimum.
 Step number   2 out of a maximum of  48
 All quantities printed in internal units (Hartrees-Bohrs-Radians)
 Update second derivatives using D2CorX and points  1  2
 Trust test= 1.01D+00 RLast= 4.49D-02 DXMaxT set to 3.00D-01
     Eigenvalues ---    0.02103   0.02178   0.02210   0.02253   0.02348
     Eigenvalues ---    0.02365   0.15961   0.16000   0.16000   0.16007
     Eigenvalues ---    0.21904   0.22790   0.36294   0.36497   0.36666
     Eigenvalues ---    0.41505   0.46566   0.47006   0.52342   0.53103
     Eigenvalues ---    0.563341000.000001000.000001000.000001000.00000
     Eigenvalues --- 1000.000001000.000001000.000001000.000001000.00000
     Eigenvalues --- 1000.000001000.000001000.000001000.000001000.00000
     Eigenvalues --- 1000.000001000.000001000.00000
 RFO step:  Lambda=-1.07154240D-05.
 Quartic linear search produced a step of  0.02028.
 Iteration  1 RMS(Cart)=  0.00065195 RMS(Int)=  0.00000042
 Iteration  2 RMS(Cart)=  0.00000056 RMS(Int)=  0.00000010
 Variable       Old X    -DE/DX   Delta X   Delta X   Delta X     New X
                                 (Linear)    (Quad)   (Total)
    R1        2.05059  -0.00011   0.00034  -0.00043  -0.00009   2.05051
    R2        2.61578   0.00029   0.00031   0.00033   0.00063   2.61642
    R3        2.57006  -0.00033   0.00025  -0.00076  -0.00051   2.56955
    R4        2.04860  -0.00010   0.00034  -0.00041  -0.00008   2.04853
    R5        2.67415  -0.00118   0.00020  -0.00285  -0.00265   2.67150
    R6        2.05285  -0.00006   0.00034  -0.00029   0.00004   2.05289
    R7        2.52506   0.00144   0.00036   0.00241   0.00277   2.52782
    R8        2.54984   0.00031   0.00016   0.00059   0.00075   2.55059
    R9        1.91392   0.00007   0.00030   0.00004   0.00034   1.91426
    A1        2.30171   0.00022   0.00002   0.00153   0.00155   2.30326
    A2        2.12895  -0.00008   0.00002  -0.00038  -0.00036   2.12859
    A3        1.85253  -0.00014  -0.00004  -0.00115  -0.00119   1.85134
    A4        2.22032  -0.00031  -0.00001  -0.00137  -0.00138   2.21894
    A5        1.82341   0.00042  -0.00003   0.00146   0.00143   1.82484
    A6        2.23945  -0.00011   0.00004  -0.00009  -0.00005   2.23940
    A7        2.24263   0.00023  -0.00001   0.00136   0.00135   2.24398
    A8        1.95464  -0.00004   0.00006  -0.00009  -0.00003   1.95461
    A9        2.08592  -0.00019  -0.00005  -0.00127  -0.00133   2.08459
   A10        1.81603  -0.00049  -0.00010  -0.00137  -0.00147   1.81456
   A11        1.97817   0.00025   0.00010   0.00115   0.00126   1.97943
   A12        2.23052  -0.00017  -0.00004  -0.00087  -0.00091   2.22962
   A13        2.07449  -0.00008  -0.00007  -0.00028  -0.00035   2.07414
    D1        0.00000   0.00000   0.00000   0.00000   0.00000   0.00000
    D2        3.14159   0.00000   0.00000   0.00000   0.00000   3.14159
    D3        3.14159   0.00000   0.00000   0.00000   0.00000   3.14159
    D4        0.00000   0.00000   0.00000   0.00000   0.00000   0.00000
    D5        3.14159   0.00000   0.00000   0.00000   0.00000   3.14159
    D6        0.00000   0.00000   0.00000   0.00000   0.00000   0.00000
    D7        0.00000   0.00000   0.00000   0.00000   0.00000   0.00000
    D8        3.14159   0.00000   0.00000   0.00000   0.00000   3.14159
    D9        3.14159   0.00000   0.00000   0.00000   0.00000   3.14159
   D10        0.00000   0.00000   0.00000   0.00000   0.00000   0.00000
   D11        0.00000   0.00000   0.00000   0.00000   0.00000   0.00000
   D12        3.14159   0.00000   0.00000   0.00000   0.00000   3.14159
   D13        0.00000   0.00000   0.00000   0.00000   0.00000   0.00000
   D14        3.14159   0.00000   0.00000   0.00000   0.00000   3.14159
   D15        0.00000   0.00000   0.00000   0.00000   0.00000   0.00000
   D16        3.14159   0.00000   0.00000   0.00000   0.00000   3.14159
         Item               Value     Threshold  Converged?
 Maximum Force            0.001442     0.000450     NO 
 RMS     Force            0.000347     0.000300     NO 
 Maximum Displacement     0.001572     0.001800     YES
 RMS     Displacement     0.000652     0.001200     YES
 Predicted change in Energy=-5.528148D-06
 GradGradGradGradGradGradGradGradGradGradGradGradGradGradGradGradGradGrad

 Leave Link  103 at Fri Apr 29 11:34:52 2005, MaxMem=   56000000 cpu:       0.0
 (Enter C:\G03W\l202.exe)
                          Input orientation:                          
 ---------------------------------------------------------------------
 Center     Atomic     Atomic              Coordinates (Angstroms)
 Number     Number      Type              X           Y           Z
 ---------------------------------------------------------------------
    1          1             0        2.110610    0.734242    0.000000
    2          6             0        1.112278    0.309113    0.000000
    3          1             0        1.269387   -1.899877    0.000000
    4          6             0        0.663782   -1.000782    0.000000
    5          1             0       -1.485571   -1.689256    0.000000
    6          6             0       -0.745851   -0.893672    0.000000
    7          7             0       -1.151338    0.381055    0.000000
    8          1             0       -0.050913    2.100337    0.000000
    9          7             0       -0.001907    1.088540    0.000000
 ---------------------------------------------------------------------
                    Distance matrix (angstroms):
                    1          2          3          4          5
     1  H    0.000000
     2  C    1.085081   0.000000
     3  H    2.765183   2.214570   0.000000
     4  C    2.259119   1.384549   1.084034   0.000000
     5  H    4.336572   3.277545   2.762997   2.256926   0.000000
     6  C    3.287776   2.213444   2.252473   1.413696   1.086343
     7  N    3.281013   2.264759   3.326043   2.281257   2.097117
     8  H    2.557029   2.135766   4.212470   3.182409   4.052068
     9  N    2.142021   1.359748   3.247587   2.192808   3.149192
                    6          7          8          9
     6  C    0.000000
     7  N    1.337665   0.000000
     8  H    3.073601   2.041290   0.000000
     9  N    2.117218   1.349713   1.012983   0.000000
 Stoichiometry    C3H4N2
 Framework group  CS[SG(C3H4N2)]
 Deg. of freedom    15
 Full point group                 CS      NOp   2
 Largest Abelian subgroup         CS      NOp   2
 Largest concise Abelian subgroup C1      NOp   1
                         Standard orientation:                         
 ---------------------------------------------------------------------
 Center     Atomic     Atomic              Coordinates (Angstroms)
 Number     Number      Type              X           Y           Z
 ---------------------------------------------------------------------
    1          1             0        2.112329    0.732554    0.000000
    2          6             0        1.113773    0.307954    0.000000
    3          1             0        1.269714   -1.901120    0.000000
    4          6             0        0.664584   -1.001705    0.000000
    5          1             0       -1.485132   -1.689043    0.000000
    6          6             0       -0.744991   -0.893849    0.000000
    7          7             0       -1.149805    0.381092    0.000000
    8          1             0       -0.048472    2.099791    0.000000
    9          7             0        0.000000    1.087968    0.000000
 ---------------------------------------------------------------------
 Rotational constants (GHZ):      9.5954544      9.3837760      4.7442174
 Leave Link  202 at Fri Apr 29 11:34:53 2005, MaxMem=   56000000 cpu:       0.0
 (Enter C:\G03W\l301.exe)
 Standard basis: 6-311+G(3df,2p) (5D, 7F)
 There are   158 symmetry adapted basis functions of A'  symmetry.
 There are    73 symmetry adapted basis functions of A"  symmetry.
 Integral buffers will be    262144 words long.
 Raffenetti 2 integral format.
 Two-electron integral symmetry is turned on.
   231 basis functions,   334 primitive gaussians,   261 cartesian basis functions
    18 alpha electrons       18 beta electrons
       nuclear repulsion energy       162.5822701254 Hartrees.
 IExCor=1009 DFT=T Ex=PBE Corr=PBE ExCW=0 ScaHFX=  0.000000
 ScaDFX=  1.000000  1.000000  1.000000  1.000000
 IRadAn=      0 IRanWt=     -1 IRanGd=            0 ICorTp=0
 NAtoms=    9 NActive=    9 NUniq=    9 SFac= 1.00D+00 NAtFMM=   60 Big=F
 Leave Link  301 at Fri Apr 29 11:34:55 2005, MaxMem=   56000000 cpu:       0.0
 (Enter C:\G03W\l302.exe)
 NPDir=0 NMtPBC=     1 NCelOv=     1 NCel=       1 NClECP=     1 NCelD=      1
         NCelK=      1 NCelE2=     1 NClLst=     1 CellRange=     0.0.
 One-electron integrals computed using PRISM.
 NBasis=   231 RedAO= T  NBF=   158    73
 NBsUse=   231 1.00D-06 NBFU=   158    73
 Precomputing XC quadrature grid using
 IXCGrd= 2 IRadAn=           0 IRanWt=          -1 IRanGd=           0.
 NRdTot=     573 NPtTot=       73048 NUsed=       75646 NTot=       75662
 NSgBfM=   261   261   261   261.
 Leave Link  302 at Fri Apr 29 11:34:56 2005, MaxMem=   56000000 cpu:       0.0
 (Enter C:\G03W\l303.exe)
 DipDrv:  MaxL=1.
 Leave Link  303 at Fri Apr 29 11:34:57 2005, MaxMem=   56000000 cpu:       0.0
 (Enter C:\G03W\l401.exe)
 Initial guess read from the read-write file:
 Guess basis will be translated and rotated to current coordinates.
 Initial guess orbital symmetries:
       Occupied  (A') (A') (A') (A') (A') (A') (A') (A') (A') (A')
                 (A') (A') (A") (A') (A') (A') (A") (A")
       Virtual   (A") (A') (A') (A") (A') (A') (A') (A") (A') (A")
                 (A') (A") (A') (A') (A') (A') (A') (A") (A') (A')
                 (A') (A") (A') (A') (A') (A') (A') (A") (A') (A')
                 (A') (A') (A') (A') (A") (A') (A") (A') (A") (A")
                 (A') (A") (A') (A') (A') (A') (A') (A") (A") (A')
                 (A') (A') (A") (A") (A') (A') (A") (A') (A") (A')
                 (A') (A') (A') (A') (A") (A') (A') (A") (A') (A")
                 (A') (A") (A') (A") (A') (A') (A') (A") (A') (A")
                 (A') (A') (A') (A') (A") (A') (A') (A") (A') (A')
                 (A') (A') (A") (A') (A") (A') (A') (A') (A') (A")
                 (A") (A') (A') (A") (A') (A') (A') (A") (A') (A")
                 (A') (A') (A') (A") (A") (A') (A') (A") (A') (A")
                 (A') (A") (A') (A") (A') (A") (A') (A") (A') (A')
                 (A") (A') (A') (A") (A") (A') (A') (A') (A") (A')
                 (A') (A') (A') (A') (A") (A') (A') (A") (A') (A")
                 (A') (A") (A') (A') (A') (A") (A') (A') (A') (A")
                 (A") (A") (A') (A') (A') (A") (A") (A') (A') (A")
                 (A') (A") (A') (A") (A') (A') (A') (A') (A') (A')
                 (A') (A') (A') (A") (A") (A") (A") (A') (A') (A')
                 (A") (A") (A') (A') (A') (A') (A') (A') (A") (A")
                 (A') (A") (A') (A") (A') (A') (A') (A') (A') (A')
                 (A') (A') (A')
 The electronic state of the initial guess is 1-A'.
 Leave Link  401 at Fri Apr 29 11:34:59 2005, MaxMem=   56000000 cpu:       0.0
 (Enter C:\G03W\l502.exe)
 Closed shell SCF:
 Requested convergence on RMS density matrix=1.00D-08 within 128 cycles.
 Requested convergence on MAX density matrix=1.00D-06.
 Requested convergence on             energy=1.00D-06.
 No special actions if energy rises.
 Using DIIS extrapolation, IDIIS=  1040.
 Integral symmetry usage will be decided dynamically.
        75645 words used for storage of precomputed grid.
 IEnd=    317001 IEndB=    317001 NGot=  56000000 MDV=  55768022
 LenX=  55768022
 Fock matrices will be formed incrementally for  20 cycles.

 Cycle   1  Pass 1  IDiag  1:
 FoFCou: FMM=F IPFlag=           0 FMFlag=           0 FMFlg1=           0
 NFxFlg=           0 DoJE=T BraDBF=F KetDBF=F FulRan=T.
 Petite list used in FoFCou.
 E= -226.010391458335    
 DIIS: error= 7.33D-05 at cycle   1 NSaved=   1.
 NSaved= 1 IEnMin= 1 EnMin= -226.010391458335     IErMin= 1 ErrMin= 7.33D-05
 ErrMax= 7.33D-05 EMaxC= 1.00D-01 BMatC= 3.96D-06 BMatP= 3.96D-06
 IDIUse=1 WtCom= 1.00D+00 WtEn= 0.00D+00
 Coeff-Com:  0.100D+01
 Coeff:      0.100D+01
 Gap=     0.200 Goal=   None    Shift=    0.000
 RMSDP=2.55D-05 MaxDP=1.84D-03              OVMax= 1.06D-03

 Cycle   2  Pass 1  IDiag  1:
 RMSU=  2.52D-05    CP:  1.00D+00
 E= -226.010394214899     Delta-E=       -0.000002756564 Rises=F Damp=F
 DIIS: error= 8.27D-05 at cycle   2 NSaved=   2.
 NSaved= 2 IEnMin= 2 EnMin= -226.010394214899     IErMin= 1 ErrMin= 7.33D-05
 ErrMax= 8.27D-05 EMaxC= 1.00D-01 BMatC= 6.28D-07 BMatP= 3.96D-06
 IDIUse=1 WtCom= 1.00D+00 WtEn= 0.00D+00
 Coeff-Com:  0.187D+00 0.813D+00
 Coeff:      0.187D+00 0.813D+00
 Gap=     0.199 Goal=   None    Shift=    0.000
 RMSDP=6.91D-06 MaxDP=2.22D-04 DE=-2.76D-06 OVMax= 9.63D-04

 Cycle   3  Pass 1  IDiag  1:
 RMSU=  6.58D-06    CP:  1.00D+00  9.17D-01
 E= -226.010392627284     Delta-E=        0.000001587615 Rises=F Damp=F
 DIIS: error= 1.95D-04 at cycle   3 NSaved=   3.
 NSaved= 3 IEnMin= 2 EnMin= -226.010394214899     IErMin= 1 ErrMin= 7.33D-05
 ErrMax= 1.95D-04 EMaxC= 1.00D-01 BMatC= 2.25D-06 BMatP= 6.28D-07
 IDIUse=3 WtCom= 4.17D-01 WtEn= 5.83D-01
 Coeff-Com:  0.355D-01 0.643D+00 0.321D+00
 Coeff-En:   0.000D+00 0.733D+00 0.267D+00
 Coeff:      0.148D-01 0.696D+00 0.290D+00
 Gap=     0.200 Goal=   None    Shift=    0.000
 RMSDP=4.61D-06 MaxDP=1.52D-04 DE= 1.59D-06 OVMax= 5.74D-04

 Cycle   4  Pass 1  IDiag  1:
 RMSU=  1.45D-06    CP:  1.00D+00  9.56D-01  3.52D-01
 E= -226.010394734772     Delta-E=       -0.000002107488 Rises=F Damp=F
 DIIS: error= 1.29D-05 at cycle   4 NSaved=   4.
 NSaved= 4 IEnMin= 4 EnMin= -226.010394734772     IErMin= 4 ErrMin= 1.29D-05
 ErrMax= 1.29D-05 EMaxC= 1.00D-01 BMatC= 2.85D-08 BMatP= 6.28D-07
 IDIUse=1 WtCom= 1.00D+00 WtEn= 0.00D+00
 Coeff-Com:  0.241D-02 0.256D+00 0.763D-01 0.665D+00
 Coeff:      0.241D-02 0.256D+00 0.763D-01 0.665D+00
 Gap=     0.199 Goal=   None    Shift=    0.000
 RMSDP=7.78D-07 MaxDP=3.00D-05 DE=-2.11D-06 OVMax= 7.84D-05

 Cycle   5  Pass 1  IDiag  1:
 RMSU=  4.01D-07    CP:  1.00D+00  9.67D-01  3.10D-01  6.24D-01
 E= -226.010394754154     Delta-E=       -0.000000019382 Rises=F Damp=F
 DIIS: error= 8.31D-06 at cycle   5 NSaved=   5.
 NSaved= 5 IEnMin= 5 EnMin= -226.010394754154     IErMin= 5 ErrMin= 8.31D-06
 ErrMax= 8.31D-06 EMaxC= 1.00D-01 BMatC= 5.51D-09 BMatP= 2.85D-08
 IDIUse=1 WtCom= 1.00D+00 WtEn= 0.00D+00
 Coeff-Com:  0.410D-03 0.153D+00 0.414D-01 0.451D+00 0.354D+00
 Coeff:      0.410D-03 0.153D+00 0.414D-01 0.451D+00 0.354D+00
 Gap=     0.200 Goal=   None    Shift=    0.000
 RMSDP=3.06D-07 MaxDP=1.05D-05 DE=-1.94D-08 OVMax= 4.44D-05

 Cycle   6  Pass 1  IDiag  1:
 RMSU=  1.67D-07    CP:  1.00D+00  9.65D-01  3.09D-01  6.84D-01  4.11D-01
 E= -226.010394759733     Delta-E=       -0.000000005580 Rises=F Damp=F
 DIIS: error= 1.78D-06 at cycle   6 NSaved=   6.
 NSaved= 6 IEnMin= 6 EnMin= -226.010394759733     IErMin= 6 ErrMin= 1.78D-06
 ErrMax= 1.78D-06 EMaxC= 1.00D-01 BMatC= 3.10D-10 BMatP= 5.51D-09
 IDIUse=1 WtCom= 1.00D+00 WtEn= 0.00D+00
 Coeff-Com:  0.124D-03 0.535D-01 0.129D-01 0.176D+00 0.220D+00 0.537D+00
 Coeff:      0.124D-03 0.535D-01 0.129D-01 0.176D+00 0.220D+00 0.537D+00
 Gap=     0.200 Goal=   None    Shift=    0.000
 RMSDP=8.32D-08 MaxDP=2.26D-06 DE=-5.58D-09 OVMax= 9.85D-06

 Cycle   7  Pass 1  IDiag  1:
 RMSU=  4.49D-08    CP:  1.00D+00  9.65D-01  3.11D-01  6.79D-01  4.71D-01
                    CP:  6.22D-01
 E= -226.010394759964     Delta-E=       -0.000000000231 Rises=F Damp=F
 DIIS: error= 7.65D-07 at cycle   7 NSaved=   7.
 NSaved= 7 IEnMin= 7 EnMin= -226.010394759964     IErMin= 7 ErrMin= 7.65D-07
 ErrMax= 7.65D-07 EMaxC= 1.00D-01 BMatC= 9.77D-11 BMatP= 3.10D-10
 IDIUse=1 WtCom= 1.00D+00 WtEn= 0.00D+00
 Coeff-Com: -0.247D-04 0.219D-01 0.468D-02 0.789D-01 0.124D+00 0.397D+00
 Coeff-Com:  0.373D+00
 Coeff:     -0.247D-04 0.219D-01 0.468D-02 0.789D-01 0.124D+00 0.397D+00
 Coeff:      0.373D+00
 Gap=     0.200 Goal=   None    Shift=    0.000
 RMSDP=2.55D-08 MaxDP=1.24D-06 DE=-2.31D-10 OVMax= 2.67D-06

 Cycle   8  Pass 1  IDiag  1:
 RMSU=  1.17D-08    CP:  1.00D+00  9.65D-01  3.10D-01  6.81D-01  4.74D-01
                    CP:  6.33D-01  5.11D-01
 E= -226.010394760047     Delta-E=       -0.000000000083 Rises=F Damp=F
 DIIS: error= 2.85D-08 at cycle   8 NSaved=   8.
 NSaved= 8 IEnMin= 8 EnMin= -226.010394760047     IErMin= 8 ErrMin= 2.85D-08
 ErrMax= 2.85D-08 EMaxC= 1.00D-01 BMatC= 2.30D-13 BMatP= 9.77D-11
 IDIUse=1 WtCom= 1.00D+00 WtEn= 0.00D+00
 Coeff-Com: -0.124D-04 0.335D-02 0.550D-03 0.131D-01 0.238D-01 0.904D-01
 Coeff-Com:  0.910D-01 0.778D+00
 Coeff:     -0.124D-04 0.335D-02 0.550D-03 0.131D-01 0.238D-01 0.904D-01
 Coeff:      0.910D-01 0.778D+00
 Gap=     0.200 Goal=   None    Shift=    0.000
 RMSDP=2.99D-09 MaxDP=9.09D-08 DE=-8.27D-11 OVMax= 1.44D-07

 SCF Done:  E(RPBE-PBE) =  -226.010394760     A.U. after    8 cycles
             Convg  =    0.2991D-08             -V/T =  2.0038
             S**2   =   0.0000
 KE= 2.251525764559D+02 PE=-8.519034262157D+02 EE= 2.381581848744D+02
 Leave Link  502 at Fri Apr 29 11:37:56 2005, MaxMem=   56000000 cpu:     176.0
 (Enter C:\G03W\l701.exe)
 Compute integral first derivatives.
 ... and contract with generalized density number  0.
 Leave Link  701 at Fri Apr 29 11:37:58 2005, MaxMem=   56000000 cpu:       1.0
 (Enter C:\G03W\l702.exe)
 L702 exits ... SP integral derivatives will be done elsewhere.
 Leave Link  702 at Fri Apr 29 11:37:59 2005, MaxMem=   56000000 cpu:       0.0
 (Enter C:\G03W\l703.exe)
 Compute integral first derivatives, UseDBF=F.
 Integral derivatives from FoFDir, PRISM(SPDF).
 Calling FoFCou, ICntrl=  2527 FMM=F ISym2X=1 I1Cent= 0 ISCF1= 0.
 FoFCou: FMM=F IPFlag=           0 FMFlag=           0 FMFlg1=           0
 NFxFlg=           0 DoJE=F BraDBF=F KetDBF=F FulRan=T.
 Petite list used in FoFCou.
 Leave Link  703 at Fri Apr 29 11:43:35 2005, MaxMem=   56000000 cpu:     335.0
 (Enter C:\G03W\l716.exe)
 Dipole        = 8.21597723D-01 3.29647473D-01 0.00000000D+00
 ***** Axes restored to original set *****
 -------------------------------------------------------------------
 Center     Atomic                   Forces (Hartrees/Bohr)
 Number     Number              X              Y              Z
 -------------------------------------------------------------------
    1          1          -0.000105961   -0.000000977    0.000000000
    2          6           0.000036885    0.000204708    0.000000000
    3          1           0.000005418    0.000053076    0.000000000
    4          6          -0.000643715   -0.000108166    0.000000000
    5          1          -0.000030981    0.000147367    0.000000000
    6          6           0.000776981   -0.000732394    0.000000000
    7          7          -0.000212185    0.000567233    0.000000000
    8          1           0.000021784   -0.000045600    0.000000000
    9          7           0.000151773   -0.000085249    0.000000000
 -------------------------------------------------------------------
 Cartesian Forces:  Max     0.000776981 RMS     0.000275265
 Leave Link  716 at Fri Apr 29 11:43:36 2005, MaxMem=   56000000 cpu:       0.0
 (Enter C:\G03W\l103.exe)

 GradGradGradGradGradGradGradGradGradGradGradGradGradGradGradGradGradGrad
 Berny optimization.
 Internal  Forces:  Max     0.000546483 RMS     0.000137644
 Search for a local minimum.
 Step number   3 out of a maximum of  48
 All quantities printed in internal units (Hartrees-Bohrs-Radians)
 Update second derivatives using D2CorX and points  1  2  3
 Trust test= 1.32D+00 RLast= 5.67D-03 DXMaxT set to 3.00D-01
     Eigenvalues ---    0.02102   0.02178   0.02210   0.02253   0.02348
     Eigenvalues ---    0.02366   0.14201   0.16000   0.16000   0.16026
     Eigenvalues ---    0.22614   0.23222   0.32610   0.36359   0.36614
     Eigenvalues ---    0.37081   0.45410   0.47198   0.47226   0.54522
     Eigenvalues ---    0.557141000.000001000.000001000.000001000.00000
     Eigenvalues --- 1000.000001000.000001000.000001000.000001000.00000
     Eigenvalues --- 1000.000001000.000001000.000001000.000001000.00000
     Eigenvalues --- 1000.000001000.000001000.00000
 RFO step:  Lambda=-7.66515388D-07.
 Quartic linear search produced a step of  0.58119.
 Iteration  1 RMS(Cart)=  0.00043158 RMS(Int)=  0.00000025
[...]
     11  0.771027D-01
     12 -0.510743D-01  0.941226D-01
     13 -0.117493D-01  0.252270D-01  0.684282D-01
     14  0.240045D-01 -0.477431D-01 -0.450847D-01  0.900899D-01
     15 -0.122552D-01  0.225161D-01 -0.233435D-01 -0.450053D-01  0.683488D-01
     16 -0.248154D-02 -0.382388D-02 -0.104192D-01  0.249776D-01 -0.145584D-01
     17  0.770196D-02 -0.352066D-02  0.243665D-01 -0.535653D-01  0.291988D-01
     18 -0.522042D-02  0.734454D-02 -0.139474D-01  0.285877D-01 -0.146403D-01
     19 -0.134710D-01  0.146098D-01  0.182196D-02  0.101473D-01 -0.119692D-01
     20  0.328389D-01 -0.574687D-01 -0.633086D-02  0.107119D-02  0.525967D-02
     21 -0.167952D-01  0.282822D-01  0.779542D-02 -0.727605D-02 -0.519375D-03
     22 -0.160437D-01  0.291865D-01 -0.146456D-02  0.620486D-02 -0.474029D-02
     23  0.000000D+00  0.000000D+00  0.000000D+00  0.000000D+00  0.000000D+00
     24  0.000000D+00  0.000000D+00  0.000000D+00  0.000000D+00  0.000000D+00
     25  0.000000D+00  0.000000D+00  0.000000D+00  0.000000D+00  0.000000D+00
     26  0.000000D+00  0.000000D+00  0.000000D+00  0.000000D+00  0.000000D+00
     27  0.000000D+00  0.000000D+00  0.000000D+00  0.000000D+00  0.000000D+00
     28  0.000000D+00  0.000000D+00  0.000000D+00  0.000000D+00  0.000000D+00
     29  0.000000D+00  0.000000D+00  0.000000D+00  0.000000D+00  0.000000D+00
     30  0.000000D+00  0.000000D+00  0.000000D+00  0.000000D+00  0.000000D+00
     31  0.000000D+00  0.000000D+00  0.000000D+00  0.000000D+00  0.000000D+00
     32  0.000000D+00  0.000000D+00  0.000000D+00  0.000000D+00  0.000000D+00
     33  0.000000D+00  0.000000D+00  0.000000D+00  0.000000D+00  0.000000D+00
     34  0.000000D+00  0.000000D+00  0.000000D+00  0.000000D+00  0.000000D+00
     35  0.000000D+00  0.000000D+00  0.000000D+00  0.000000D+00  0.000000D+00
     36  0.000000D+00  0.000000D+00  0.000000D+00  0.000000D+00  0.000000D+00
     37  0.000000D+00  0.000000D+00  0.000000D+00  0.000000D+00  0.000000D+00
     38  0.000000D+00  0.000000D+00  0.000000D+00  0.000000D+00  0.000000D+00
               16            17            18            19            20
     16  0.761385D-01
     17 -0.505527D-01  0.111177D+00
     18 -0.255858D-01 -0.606239D-01  0.862097D-01
     19  0.342667D-01 -0.755745D-01  0.413078D-01  0.134963D+00
     20 -0.486777D-02  0.214840D-01 -0.166162D-01 -0.841459D-01  0.119059D+00
     21  0.685493D-03 -0.406617D-02  0.338067D-02  0.375006D-01 -0.544406D-01
     22  0.418228D-02 -0.174178D-01  0.132355D-01  0.466453D-01 -0.646188D-01
     23  0.000000D+00  0.000000D+00  0.000000D+00  0.000000D+00  0.000000D+00
     24  0.000000D+00  0.000000D+00  0.000000D+00  0.000000D+00  0.000000D+00
     25  0.000000D+00  0.000000D+00  0.000000D+00  0.000000D+00  0.000000D+00
     26  0.000000D+00  0.000000D+00  0.000000D+00  0.000000D+00  0.000000D+00
     27  0.000000D+00  0.000000D+00  0.000000D+00  0.000000D+00  0.000000D+00
     28  0.000000D+00  0.000000D+00  0.000000D+00  0.000000D+00  0.000000D+00
     29  0.000000D+00  0.000000D+00  0.000000D+00  0.000000D+00  0.000000D+00
     30  0.000000D+00  0.000000D+00  0.000000D+00  0.000000D+00  0.000000D+00
     31  0.000000D+00  0.000000D+00  0.000000D+00  0.000000D+00  0.000000D+00
     32  0.000000D+00  0.000000D+00  0.000000D+00  0.000000D+00  0.000000D+00
     33  0.000000D+00  0.000000D+00  0.000000D+00  0.000000D+00  0.000000D+00
     34  0.000000D+00  0.000000D+00  0.000000D+00  0.000000D+00  0.000000D+00
     35  0.000000D+00  0.000000D+00  0.000000D+00  0.000000D+00  0.000000D+00
     36  0.000000D+00  0.000000D+00  0.000000D+00  0.000000D+00  0.000000D+00
     37  0.000000D+00  0.000000D+00  0.000000D+00  0.000000D+00  0.000000D+00
     38  0.000000D+00  0.000000D+00  0.000000D+00  0.000000D+00  0.000000D+00
               21            22            23            24            25
     21  0.807058D-01
     22 -0.262652D-01  0.908841D-01
     23  0.000000D+00  0.000000D+00  0.590917D-02
     24  0.000000D+00  0.000000D+00  0.151543D-02  0.752104D-02
     25  0.000000D+00  0.000000D+00  0.107944D-02 -0.788504D-03  0.869659D-02
     26  0.000000D+00  0.000000D+00 -0.331430D-02  0.521711D-02  0.682865D-02
     27  0.000000D+00  0.000000D+00 -0.133124D-02 -0.458221D-02 -0.979418D-03
     28  0.000000D+00  0.000000D+00 -0.177200D-02 -0.174217D-02  0.172846D-02
     29  0.000000D+00  0.000000D+00  0.289677D-02 -0.256531D-02 -0.764758D-02
     30  0.000000D+00  0.000000D+00  0.245601D-02  0.274726D-03 -0.493970D-02
     31  0.000000D+00  0.000000D+00  0.305193D-02 -0.382486D-02  0.128662D-02
     32  0.000000D+00  0.000000D+00  0.288992D-02 -0.653919D-02 -0.427883D-02
     33  0.000000D+00  0.000000D+00 -0.141599D-02  0.228216D-02 -0.612863D-03
     34  0.000000D+00  0.000000D+00 -0.157801D-02 -0.432176D-03 -0.617831D-02
     35  0.000000D+00  0.000000D+00 -0.118028D-02  0.494671D-02 -0.168622D-03
     36  0.000000D+00  0.000000D+00 -0.132546D-02  0.251435D-02 -0.515592D-02
     37  0.000000D+00  0.000000D+00 -0.108505D-02 -0.144029D-02  0.488608D-02
     38  0.000000D+00  0.000000D+00 -0.687121D-03 -0.400432D-02  0.244137D-02
               26            27            28            29            30
     26  0.153601D-01
     27 -0.423039D-02  0.843830D-02
     28  0.175829D-02  0.662486D-03  0.387400D-02
     29 -0.131097D-01  0.813031D-02 -0.240187D-02  0.173610D-01
     30 -0.712098D-02  0.354499D-03  0.809647D-03  0.682881D-02  0.728396D-02
     31 -0.559017D-02  0.308026D-02 -0.335934D-03  0.462564D-02  0.120945D-02
     32 -0.137079D-01 -0.734263D-03 -0.670003D-03  0.554135D-02  0.560561D-02
     33  0.308529D-02 -0.225600D-03 -0.305596D-03 -0.928672D-03 -0.100867D-02
     34 -0.503247D-02 -0.404012D-02 -0.639665D-03 -0.129595D-04  0.338750D-02
     35  0.595837D-02  0.535828D-02 -0.713518D-03  0.447267D-02 -0.159913D-02
     36 -0.131611D-02  0.194002D-02 -0.101288D-02  0.529325D-02  0.234035D-02
     37  0.453084D-02 -0.838194D-02  0.194111D-02 -0.136092D-01 -0.328610D-02
     38 -0.875836D-03 -0.136182D-02 -0.958294D-03 -0.410054D-02 -0.369701D-02
               31            32            33            34            35
     31  0.113162D-01
     32  0.513408D-02  0.183780D-01
     33  0.432329D-02 -0.445424D-02  0.808388D-02
     34 -0.185882D-02  0.878970D-02 -0.693637D-03  0.995488D-02
     35 -0.239385D-02 -0.148542D-01  0.383659D-02 -0.862380D-02  0.171131D-01
     36 -0.793374D-02 -0.298612D-02 -0.402910D-02  0.918520D-03  0.594715D-02
     37 -0.141927D-02  0.567690D-02 -0.178051D-02  0.531566D-02 -0.133293D-01
     38  0.166492D-02  0.561888D-02 -0.170829D-02  0.224567D-02 -0.784754D-02
               36            37            38
     36  0.103808D-01
     37 -0.697025D-02  0.167138D-01
     38 -0.430433D-02  0.739401D-02  0.702970D-02
 Leave Link  716 at Fri Apr 29 13:23:42 2005, MaxMem=   56000000 cpu:       0.0
 (Enter C:\G03W\l103.exe)

 GradGradGradGradGradGradGradGradGradGradGradGradGradGradGradGradGradGrad
 Berny optimization.
 Internal  Forces:  Max     0.000105431 RMS     0.000029666
 Search for a local minimum.
 Step number   1 out of a maximum of   2
 All quantities printed in internal units (Hartrees-Bohrs-Radians)
 Second derivative matrix not updated -- analytic derivatives used.
     Eigenvalues ---    0.00704   0.01085   0.01483   0.02571   0.05620
     Eigenvalues ---    0.05877   0.08715   0.09699   0.10315   0.11093
     Eigenvalues ---    0.20851   0.25111   0.32640   0.34857   0.35608
     Eigenvalues ---    0.35891   0.37614   0.40890   0.45349   0.46276
     Eigenvalues ---    0.535861000.000001000.000001000.000001000.00000
     Eigenvalues --- 1000.000001000.000001000.000001000.000001000.00000
     Eigenvalues --- 1000.000001000.000001000.000001000.000001000.00000
     Eigenvalues --- 1000.000001000.000001000.00000
 Angle between quadratic step and forces=  33.46 degrees.
 Linear search not attempted -- first point.
 Iteration  1 RMS(Cart)=  0.00013811 RMS(Int)=  0.00000001
 Iteration  2 RMS(Cart)=  0.00000001 RMS(Int)=  0.00000000
 Variable       Old X    -DE/DX   Delta X   Delta X   Delta X     New X
                                 (Linear)    (Quad)   (Total)
    R1        2.05021   0.00001   0.00000   0.00002   0.00002   2.05023
    R2        2.61707  -0.00003   0.00000  -0.00002  -0.00002   2.61705
    R3        2.56902  -0.00003   0.00000  -0.00008  -0.00008   2.56894
    R4        2.04848  -0.00001   0.00000  -0.00003  -0.00003   2.04844
    R5        2.66941   0.00008   0.00000   0.00027   0.00027   2.66967
    R6        2.05265  -0.00001   0.00000  -0.00002  -0.00002   2.05263
    R7        2.52972  -0.00011   0.00000  -0.00023  -0.00023   2.52949
    R8        2.55062  -0.00007   0.00000  -0.00021  -0.00021   2.55041
    R9        1.91426  -0.00003   0.00000  -0.00006  -0.00006   1.91420
    A1        2.30403  -0.00002   0.00000  -0.00029  -0.00029   2.30374
    A2        2.12796   0.00004   0.00000   0.00032   0.00032   2.12828
    A3        1.85119  -0.00002   0.00000  -0.00003  -0.00003   1.85116
    A4        2.21814   0.00000   0.00000  -0.00009  -0.00009   2.21805
    A5        1.82525  -0.00002   0.00000  -0.00007  -0.00007   1.82518
    A6        2.23979   0.00003   0.00000   0.00017   0.00017   2.23996
    A7        2.24530   0.00002   0.00000   0.00011   0.00011   2.24540
    A8        1.95467   0.00000   0.00000  -0.00005  -0.00005   1.95462
    A9        2.08322  -0.00001   0.00000  -0.00005  -0.00005   2.08316
   A10        1.81400   0.00001   0.00000   0.00008   0.00008   1.81408
   A11        1.97966   0.00004   0.00000   0.00008   0.00008   1.97974
   A12        2.22940  -0.00002   0.00000  -0.00002  -0.00002   2.22937
   A13        2.07412  -0.00003   0.00000  -0.00006  -0.00006   2.07407
    D1        0.00000   0.00000   0.00000   0.00000   0.00000   0.00000
    D2        3.14159   0.00000   0.00000   0.00000   0.00000   3.14159
    D3        3.14159   0.00000   0.00000   0.00000   0.00000   3.14159
    D4        0.00000   0.00000   0.00000   0.00000   0.00000   0.00000
    D5        3.14159   0.00000   0.00000   0.00000   0.00000   3.14159
    D6        0.00000   0.00000   0.00000   0.00000   0.00000   0.00000
    D7        0.00000   0.00000   0.00000   0.00000   0.00000   0.00000
    D8        3.14159   0.00000   0.00000   0.00000   0.00000   3.14159
    D9        3.14159   0.00000   0.00000   0.00000   0.00000   3.14159
   D10        0.00000   0.00000   0.00000   0.00000   0.00000   0.00000
   D11        0.00000   0.00000   0.00000   0.00000   0.00000   0.00000
   D12        3.14159   0.00000   0.00000   0.00000   0.00000   3.14159
   D13        0.00000   0.00000   0.00000   0.00000   0.00000   0.00000
   D14        3.14159   0.00000   0.00000   0.00000   0.00000   3.14159
   D15        0.00000   0.00000   0.00000   0.00000   0.00000   0.00000
   D16        3.14159   0.00000   0.00000   0.00000   0.00000   3.14159
         Item               Value     Threshold  Converged?
 Maximum Force            0.000105     0.000450     YES
 RMS     Force            0.000030     0.000300     YES
 Maximum Displacement     0.000378     0.001800     YES
 RMS     Displacement     0.000138     0.001200     YES
 Predicted change in Energy=-5.081045D-08
 Optimization completed.
    -- Stationary point found.
                           ----------------------------
                           !   Optimized Parameters   !
                           ! (Angstroms and Degrees)  !
 --------------------------                            --------------------------
 ! Name  Definition              Value          Derivative Info.                !
 --------------------------------------------------------------------------------
 ! R1    R(1,2)                  1.0849         -DE/DX =    0.0                 !
 ! R2    R(2,4)                  1.3849         -DE/DX =    0.0                 !
 ! R3    R(2,9)                  1.3595         -DE/DX =    0.0                 !
 ! R4    R(3,4)                  1.084          -DE/DX =    0.0                 !
 ! R5    R(4,6)                  1.4126         -DE/DX =    0.0001              !
 ! R6    R(5,6)                  1.0862         -DE/DX =    0.0                 !
 ! R7    R(6,7)                  1.3387         -DE/DX =   -0.0001              !
 ! R8    R(7,9)                  1.3497         -DE/DX =   -0.0001              !
 ! R9    R(8,9)                  1.013          -DE/DX =    0.0                 !
 ! A1    A(1,2,4)              132.0113         -DE/DX =    0.0                 !
 ! A2    A(1,2,9)              121.9233         -DE/DX =    0.0                 !
 ! A3    A(4,2,9)              106.0654         -DE/DX =    0.0                 !
 ! A4    A(2,4,3)              127.09           -DE/DX =    0.0                 !
 ! A5    A(2,4,6)              104.5792         -DE/DX =    0.0                 !
 ! A6    A(3,4,6)              128.3307         -DE/DX =    0.0                 !
 ! A7    A(4,6,5)              128.646          -DE/DX =    0.0                 !
 ! A8    A(4,6,7)              111.9944         -DE/DX =    0.0                 !
 ! A9    A(5,6,7)              119.3596         -DE/DX =    0.0                 !
 ! A10   A(6,7,9)              103.9345         -DE/DX =    0.0                 !
 ! A11   A(2,9,7)              113.4264         -DE/DX =    0.0                 !
 ! A12   A(2,9,8)              127.735          -DE/DX =    0.0                 !
 ! A13   A(7,9,8)              118.8386         -DE/DX =    0.0                 !
 ! D1    D(1,2,4,3)              0.0            -DE/DX =    0.0                 !
 ! D2    D(1,2,4,6)            180.0            -DE/DX =    0.0                 !
 ! D3    D(9,2,4,3)            180.0            -DE/DX =    0.0                 !
 ! D4    D(9,2,4,6)              0.0            -DE/DX =    0.0                 !
 ! D5    D(1,2,9,7)            180.0            -DE/DX =    0.0                 !
 ! D6    D(1,2,9,8)              0.0            -DE/DX =    0.0                 !
 ! D7    D(4,2,9,7)              0.0            -DE/DX =    0.0                 !
 ! D8    D(4,2,9,8)            180.0            -DE/DX =    0.0                 !
 ! D9    D(2,4,6,5)            180.0            -DE/DX =    0.0                 !
 ! D10   D(2,4,6,7)              0.0            -DE/DX =    0.0                 !
 ! D11   D(3,4,6,5)              0.0            -DE/DX =    0.0                 !
 ! D12   D(3,4,6,7)            180.0            -DE/DX =    0.0                 !
 ! D13   D(4,6,7,9)              0.0            -DE/DX =    0.0                 !
 ! D14   D(5,6,7,9)            180.0            -DE/DX =    0.0                 !
 ! D15   D(6,7,9,2)              0.0            -DE/DX =    0.0                 !
 ! D16   D(6,7,9,8)            180.0            -DE/DX =    0.0                 !
 --------------------------------------------------------------------------------
 GradGradGradGradGradGradGradGradGradGradGradGradGradGradGradGradGradGrad

 Leave Link  103 at Fri Apr 29 13:23:44 2005, MaxMem=   56000000 cpu:       1.0
 (Enter C:\G03W\l9999.exe)
 1|1|UNPC-UNK|Freq|RPBEPBE|6-311+G(3df,2p)|C3H4N2|PCUSER|29-Apr-2005|0|
 |#P GEOM=ALLCHECK GUESS=READ SCRF=CHECK GENCHK RPBEPBE/6-311+G(3DF,2P)
  FREQ||1hpyraz 1H-Pyrazole C3H4N2 casno=288131 method=61 basis=10||0,1
 |H,2.1114291329,0.7342751677,0.|C,1.113486517,0.3086377086,0.|H,1.2707
 45537,-1.9002031964,0.|C,0.6646133022,-1.0014959473,0.|H,-1.4844471823
 ,-1.68944906,0.|C,-0.7439389403,-0.8947684259,0.|N,-1.1500786898,0.380
 805095,0.|H,-0.0491564469,2.0997692539,0.|N,-0.0004264979,1.0879617368
 ,0.||Version=x86-Win32-G03RevB.05|State=1-A'|HF=-226.010396|RMSD=3.948
 e-009|RMSF=4.615e-005|Dipole=0.8221916,0.3303886,0.|DipoleDeriv=-0.002
 744,-0.0371254,0.,-0.0464228,0.0582343,0.,0.,0.,0.190056,-0.0578778,-0
 .1470548,0.,-0.0310446,0.3661451,0.,0.,0.,-0.12265,0.0429193,0.0699908
 ,0.,0.0627813,0.0155664,0.,0.,0.,0.1762998,-0.1158474,-0.1067145,0.,-0
 .0360198,-0.1365795,0.,0.,0.,-0.2140581,0.0196936,-0.0710752,0.,-0.047
 4704,0.0210151,0.,0.,0.,0.153158,0.315485,0.045409,0.,-0.021537,0.0446
 017,0.,0.,0.,-0.1021008,-0.4715322,0.2746553,0.,0.181717,-0.0841711,0.
 ,0.,0.,-0.2212523,0.161699,-0.0094027,0.,-0.0271679,0.2419249,0.,0.,0.
 ,0.290011,0.1082046,-0.0186824,0.,-0.0348357,-0.526737,0.,0.,0.,-0.149
 4636|Polar=57.9762529,1.0337553,57.2147858,0.,0.,34.580998|PG=CS [SG(C
 3H4N2)]|NImag=0||0.30955710,0.11059391,0.09377273,0.,0.,0.01873882,-0.
 29272096,-0.11073039,0.,0.77568424,-0.10228048,-0.10197729,0.,0.116504
 18,0.63390667,0.,0.,-0.02287133,0.,0.,0.11101587,-0.00017796,0.0007807
 0,0.,0.01080191,-0.01098820,0.,0.14080086,-0.00043518,0.00027819,0.,0.
 01667901,-0.00958635,0.,-0.14507167,0.26051893,0.,0.,-0.00253897,0.,0.
 ,-0.00173145,0.,0.,0.02015730,0.00195323,-0.02113187,0.,-0.12468003,-0
 .06416410,0.,-0.14210647,0.13322127,0.,0.59553458,0.00202956,0.0031900
 2,0.,-0.08820509,-0.32589308,0.,0.13582958,-0.25211478,0.,-0.12254340,
 0.77057741,0.,0.,0.00088753,0.,0.,-0.05991154,0.,0.,-0.02393754,0.,0.,
 0.10880496,0.00016755,-0.00129563,0.,-0.00543481,0.00097618,0.,0.00025
 945,0.00051385,0.,-0.00672449,-0.01905638,0.,0.19017633,-0.00006399,0.
 00065086,0.,0.00277924,-0.00067265,0.,-0.00067757,-0.00018932,0.,0.005
 12496,0.00770094,0.,0.15076607,0.21362984,0.,0.,0.00086832,0.,0.,0.004
 21648,0.,0.,-0.00180947,0.,0.,0.00061887,0.,0.,0.02252002,-0.00058148,
 -0.00245344,0.,-0.03513448,-0.07856028,0.,-0.00198972,-0.00305116,0.,-
 0.28512671,0.02145069,0.,-0.19102042,-0.13739863,0.,0.66723365,0.00140
 072,-0.00591141,0.,-0.01653852,0.01076143,0.,0.02266345,0.00503741,0.,
 -0.00906435,-0.10326785,0.,-0.14427524,-0.19590137,0.,0.13113957,0.723
 81484,0.,0.,0.00438217,0.,0.,0.01056899,0.,0.,-0.00263151,0.,0.,-0.061
 11457,0.,0.,-0.02761064,0.,0.,0.12826869,-0.00188678,0.00407983,0.,-0.
 09336903,0.01174698,0.,-0.00618800,-0.00201444,0.,-0.03273056,0.015705
 03,0.,0.01037490,-0.02019048,0.,-0.12101022,0.06134695,0.,0.45679806,0
 .00216203,-0.00309714,0.,-0.01789454,-0.02214329,0.,0.00275866,0.00047
 102,0.,0.08050706,-0.01818788,0.,0.00720978,-0.01873092,0.,0.09546546,
 -0.31815318,0.,-0.03566765,0.52432925,0.,0.,0.00604217,0.,0.,0.0170810
 4,0.,0.,0.00611422,0.,0.,0.01874793,0.,0.,-0.00725107,0.,0.,-0.0677279
 7,0.,0.,0.09890842,-0.00011646,-0.00071760,0.,0.00945456,0.02362546,0.
 ,0.00090266,0.00098629,0.,-0.00591712,0.00415497,0.,0.00084179,-0.0014
 3260,0.,-0.00762010,-0.00524070,0.,0.00624889,-0.03284544,0.,0.0621493
 9,0.00033640,0.00004861,0.,-0.00452287,-0.00648502,0.,-0.00030047,-0.0
 0007637,0.,0.00295823,0.00094756,0.,0.00040607,-0.00034126,0.,-0.00464
 623,0.00105206,0.,0.00008377,-0.01340171,0.,-0.01958770,0.45516573,0.,
 0.,-0.00145117,0.,0.,-0.00728080,0.,0.,0.00205073,0.,0.,0.00298310,0.,
 0.,0.00207961,0.,0.,0.00400667,0.,0.,-0.01149843,0.,0.,0.01178292,-0.0
 1619424,0.02087448,0.,-0.24460140,0.10314026,0.,-0.00230272,-0.0008279
 7,0.,-0.00020243,0.05063504,0.,0.00135969,0.00109300,0.,-0.02475051,-0
 .04143187,0.,-0.21823727,-0.10169536,0.,-0.06594361,0.02527280,0.,0.57
 087249,-0.01374297,0.01304542,0.,0.10192897,-0.17791041,0.,-0.00499448
 ,-0.00433874,0.,-0.00490780,-0.08295235,0.,0.00475530,-0.00614613,0.,-
 0.02194598,-0.11743192,0.,-0.03509000,-0.13108616,0.,0.03105732,-0.436
 90959,0.,-0.05706037,0.94372988,0.,0.,-0.00405755,0.,0.,-0.05108726,0.
 ,0.,0.00432670,0.,0.,0.01292126,0.,0.,0.00636789,0.,0.,0.01185817,0.,0
 .,-0.06041631,0.,0.,-0.00267262,0.,0.,0.08275973||-0.00002517,0.000034
 63,0.,0.00003155,-0.00005404,0.,0.00000612,-0.00001004,0.,-0.00008635,
 0.00001402,0.,0.00001360,-0.00002605,0.,0.00011468,-0.00010733,0.,-0.0
 0008435,0.00003320,0.,-0.00000987,0.00002742,0.,0.00003978,0.00008818,
 0.|||@


 MOST BUREAUCRACIES FUNCTION LIKE A SEPTIC TANK.
 THE LARGE CHUNKS RISE TO THE TOP.
 Job cpu time:  0 days  1 hours 31 minutes 17.0 seconds.
 File lengths (MBytes):  RWF=     47 Int=      0 D2E=      0 Chk=      7 Scr=      1
 Normal termination of Gaussian 03 at Fri Apr 29 13:23:45 2005.
