 Entering Gaussian System, Link 0=g03
 Initial command:
 /usr/local/apps/g03b05/g03/l1.exe /wrk/rdj3/pbe/Gau-118805.inp -scrdir=/wrk/rdj3/pbe/
 Entering Link 1 = /usr/local/apps/g03b05/g03/l1.exe PID=    118810.
  
 Copyright (c) 1988,1990,1992,1993,1995,1998,2003, Gaussian, Inc.
                  All Rights Reserved.
  
 This is the Gaussian(R) 03 program.  It is based on the
 the Gaussian(R) 98 system (copyright 1998, Gaussian, Inc.),
 the Gaussian(R) 94 system (copyright 1995, Gaussian, Inc.),
 the Gaussian 92(TM) system (copyright 1992, Gaussian, Inc.),
 the Gaussian 90(TM) system (copyright 1990, Gaussian, Inc.),
 the Gaussian 88(TM) system (copyright 1988, Gaussian, Inc.),
 the Gaussian 86(TM) system (copyright 1986, Carnegie Mellon
 University), and the Gaussian 82(TM) system (copyright 1983,
 Carnegie Mellon University). Gaussian is a federally registered
 trademark of Gaussian, Inc.
  
 This software contains proprietary and confidential information,
 including trade secrets, belonging to Gaussian, Inc.
  
 This software is provided under written license and may be
 used, copied, transmitted, or stored only in accord with that
 written license.
  
 The following legend is applicable only to US Government
 contracts under DFARS:
  
                    RESTRICTED RIGHTS LEGEND
  
 Use, duplication or disclosure by the US Government is subject
 to restrictions as set forth in subparagraph (c)(1)(ii) of the
 Rights in Technical Data and Computer Software clause at DFARS
 252.227-7013.
  
 Gaussian, Inc.
 Carnegie Office Park, Building 6, Pittsburgh, PA 15106 USA
  
 The following legend is applicable only to US Government
 contracts under FAR:
  
                    RESTRICTED RIGHTS LEGEND
  
 Use, reproduction and disclosure by the US Government is subject
 to restrictions as set forth in subparagraph (c) of the
 Commercial Computer Software - Restricted Rights clause at FAR
 52.227-19.
  
 Gaussian, Inc.
 Carnegie Office Park, Building 6, Pittsburgh, PA 15106 USA
  
  
 ---------------------------------------------------------------
 Warning -- This program may not be used in any manner that
 competes with the business of Gaussian, Inc. or will provide
 assistance to any competitor of Gaussian, Inc.  The licensee
 of this program is prohibited from giving any competitor of
 Gaussian, Inc. access to this program.  By using this program,
 the user acknowledges that Gaussian, Inc. is engaged in the
 business of creating and licensing software in the field of
 computational chemistry and represents and warrants to the
 licensee that it is not a competitor of Gaussian, Inc. and that
 it will not use this program in any manner prohibited above.
 ---------------------------------------------------------------
  

 Cite this work as:
 Gaussian 03, Revision B.05,
 M. J. Frisch, G. W. Trucks, H. B. Schlegel, G. E. Scuseria, 
 M. A. Robb, J. R. Cheeseman, J. A. Montgomery, Jr., T. Vreven, 
 K. N. Kudin, J. C. Burant, J. M. Millam, S. S. Iyengar, J. Tomasi, 
 V. Barone, B. Mennucci, M. Cossi, G. Scalmani, N. Rega, 
 G. A. Petersson, H. Nakatsuji, M. Hada, M. Ehara, K. Toyota, 
 R. Fukuda, J. Hasegawa, M. Ishida, T. Nakajima, Y. Honda, O. Kitao, 
 H. Nakai, M. Klene, X. Li, J. E. Knox, H. P. Hratchian, J. B. Cross, 
 C. Adamo, J. Jaramillo, R. Gomperts, R. E. Stratmann, O. Yazyev, 
 A. J. Austin, R. Cammi, C. Pomelli, J. W. Ochterski, P. Y. Ayala, 
 K. Morokuma, G. A. Voth, P. Salvador, J. J. Dannenberg, 
 V. G. Zakrzewski, S. Dapprich, A. D. Daniels, M. C. Strain, 
 O. Farkas, D. K. Malick, A. D. Rabuck, K. Raghavachari, 
 J. B. Foresman, J. V. Ortiz, Q. Cui, A. G. Baboul, S. Clifford, 
 J. Cioslowski, B. B. Stefanov, G. Liu, A. Liashenko, P. Piskorz, 
 I. Komaromi, R. L. Martin, D. J. Fox, T. Keith, M. A. Al-Laham, 
 C. Y. Peng, A. Nanayakkara, M. Challacombe, P. M. W. Gill, 
 B. Johnson, W. Chen, M. W. Wong, C. Gonzalez, and J. A. Pople, 
 Gaussian, Inc., Pittsburgh PA, 2003.
 
 ******************************************
 Gaussian 03:  SGI64-G03RevB.05  8-Nov-2003
                25-Feb-2004 
 ******************************************
 %mem=56000000
 -----------------------
 #PBEPBE/6-31G* opt freq
 -----------------------
 1/14=-1,18=20,26=3,38=1/1,3;
 2/9=110,17=6,18=5,40=1/2;
 3/5=1,6=6,7=1,11=2,16=1,25=1,30=1,74=1009/1,2,3;
 4//1;
 5/5=2,38=5/2;
 6/7=2,8=2,9=2,10=2,28=1/1;
 7//1,2,3,16;
 1/14=-1,18=20/3(1);
 99//99;
 2/9=110/2;
 3/5=1,6=6,7=1,11=2,16=1,25=1,30=1,74=1009/1,2,3;
 4/5=5,16=3/1;
 5/5=2,38=5/2;
 7//1,2,3,16;
 1/14=-1,18=20/3(-5);
 2/9=110/2;
 6/7=2,8=2,9=2,10=2,19=2,28=1/1;
 99/9=1/99;
 Leave Link    1 at Wed Feb 25 21:25:35 2004, MaxMem=   56000000 cpu:       0.3
 (Enter /usr/local/apps/g03b05/g03/l101.exe)
 --------------------------------------
 1hpyraz casno=288131 method=61 basis=1
 --------------------------------------
 Symbolic Z-matrix:
 Charge =  0 Multiplicity = 1
 H                     2.08045   0.72242   0. 
 C                     1.09639   0.3024    0. 
 H                     1.25554  -1.87978   0. 
 C                     0.66281  -0.9897    0. 
 H                    -1.47487  -1.65877   0. 
 C                    -0.74554  -0.87448   0. 
 N                    -1.12786   0.37057   0. 
 H                    -0.04808   2.06666   0. 
 N                     0.        1.07516   0. 
 
                    Isotopes and Nuclear Properties:

  Atom         1           2           3           4           5           6           7           8           9
 IAtWgt=           1          12           1          12           1          12          14           1          14
 AtmWgt=   1.0078250  12.0000000   1.0078250  12.0000000   1.0078250  12.0000000  14.0030740   1.0078250  14.0030740
 IAtSpn=           1           0           1           0           1           0           2           1           2
 AtZEff=   0.0000000   0.0000000   0.0000000   0.0000000   0.0000000   0.0000000   0.0000000   0.0000000   0.0000000
 AtQMom=   0.0000000   0.0000000   0.0000000   0.0000000   0.0000000   0.0000000   1.5600000   0.0000000   1.5600000
 AtGFac=   2.7928460   0.0000000   2.7928460   0.0000000   2.7928460   0.0000000   0.4037610   2.7928460   0.4037610
 Leave Link  101 at Wed Feb 25 21:25:36 2004, MaxMem=   56000000 cpu:       0.2
 (Enter /usr/local/apps/g03b05/g03/l103.exe)

 GradGradGradGradGradGradGradGradGradGradGradGradGradGradGradGradGradGrad
 Berny optimization.
 Initialization pass.
                           ----------------------------
                           !    Initial Parameters    !
                           ! (Angstroms and Degrees)  !
 --------------------------                            --------------------------
 ! Name  Definition              Value          Derivative Info.                !
 --------------------------------------------------------------------------------
 ! R1    R(1,2)                  1.0699         estimate D2E/DX2                !
 ! R2    R(2,4)                  1.3629         estimate D2E/DX2                !
 ! R3    R(2,9)                  1.3414         estimate D2E/DX2                !
 ! R4    R(3,4)                  1.0694         estimate D2E/DX2                !
 ! R5    R(4,6)                  1.4131         estimate D2E/DX2                !
 ! R6    R(5,6)                  1.071          estimate D2E/DX2                !
 ! R7    R(6,7)                  1.3024         estimate D2E/DX2                !
 ! R8    R(7,9)                  1.3299         estimate D2E/DX2                !
 ! R9    R(8,9)                  0.9927         estimate D2E/DX2                !
 ! A1    A(1,2,4)              131.6638         estimate D2E/DX2                !
 ! A2    A(1,2,9)              121.709          estimate D2E/DX2                !
 ! A3    A(4,2,9)              106.6272         estimate D2E/DX2                !
 ! A4    A(2,4,3)              127.7894         estimate D2E/DX2                !
 ! A5    A(2,4,6)              103.8727         estimate D2E/DX2                !
 ! A6    A(3,4,6)              128.3379         estimate D2E/DX2                !
 ! A7    A(4,6,5)              128.2433         estimate D2E/DX2                !
 ! A8    A(4,6,7)              111.7472         estimate D2E/DX2                !
 ! A9    A(5,6,7)              120.0095         estimate D2E/DX2                !
 ! A10   A(6,7,9)              104.9237         estimate D2E/DX2                !
 ! A11   A(2,9,7)              112.8292         estimate D2E/DX2                !
 ! A12   A(2,9,8)              127.9532         estimate D2E/DX2                !
 ! A13   A(7,9,8)              119.2176         estimate D2E/DX2                !
 ! D1    D(1,2,4,3)              0.0            estimate D2E/DX2                !
 ! D2    D(1,2,4,6)            180.0            estimate D2E/DX2                !
 ! D3    D(9,2,4,3)            180.0            estimate D2E/DX2                !
 ! D4    D(9,2,4,6)              0.0            estimate D2E/DX2                !
 ! D5    D(1,2,9,7)            180.0            estimate D2E/DX2                !
 ! D6    D(1,2,9,8)              0.0            estimate D2E/DX2                !
 ! D7    D(4,2,9,7)              0.0            estimate D2E/DX2                !
 ! D8    D(4,2,9,8)            180.0            estimate D2E/DX2                !
 ! D9    D(2,4,6,5)            180.0            estimate D2E/DX2                !
 ! D10   D(2,4,6,7)              0.0            estimate D2E/DX2                !
 ! D11   D(3,4,6,5)              0.0            estimate D2E/DX2                !
 ! D12   D(3,4,6,7)            180.0            estimate D2E/DX2                !
 ! D13   D(4,6,7,9)              0.0            estimate D2E/DX2                !
 ! D14   D(5,6,7,9)            180.0            estimate D2E/DX2                !
 ! D15   D(6,7,9,2)              0.0            estimate D2E/DX2                !
 ! D16   D(6,7,9,8)            180.0            estimate D2E/DX2                !
 --------------------------------------------------------------------------------
 Trust Radius=3.00D-01 FncErr=1.00D-07 GrdErr=1.00D-06
 Number of steps in this run=  48 maximum allowed number of steps= 100.
 GradGradGradGradGradGradGradGradGradGradGradGradGradGradGradGradGradGrad

 Leave Link  103 at Wed Feb 25 21:25:36 2004, MaxMem=   56000000 cpu:       0.2
 (Enter /usr/local/apps/g03b05/g03/l202.exe)
                          Input orientation:                          
 ---------------------------------------------------------------------
 Center     Atomic     Atomic              Coordinates (Angstroms)
 Number     Number      Type              X           Y           Z
 ---------------------------------------------------------------------
    1          1             0        2.080447    0.722417    0.000000
    2          6             0        1.096394    0.302400    0.000000
    3          1             0        1.255542   -1.879784    0.000000
    4          6             0        0.662812   -0.989701    0.000000
    5          1             0       -1.474873   -1.658768    0.000000
    6          6             0       -0.745544   -0.874478    0.000000
    7          7             0       -1.127859    0.370571    0.000000
    8          1             0       -0.048078    2.066660    0.000000
    9          7             0        0.000000    1.075164    0.000000
 ---------------------------------------------------------------------
                    Distance matrix (angstroms):
                    1          2          3          4          5
     1  H    0.000000
     2  C    1.069941   0.000000
     3  H    2.729820   2.187980   0.000000
     4  C    2.222844   1.362908   1.069381   0.000000
     5  H    4.279059   3.233820   2.739346   2.239944   0.000000
     6  C    3.245967   2.185813   2.239416   1.413062   1.070996
     7  N    3.227541   2.225297   3.277911   2.248742   2.058795
     8  H    2.517461   2.102957   4.156182   3.137946   3.989305
     9  N    2.110140   1.341359   3.210624   2.168637   3.106386
                    6          7          8          9
     6  C    0.000000
     7  N    1.302425   0.000000
     8  H    3.022706   2.010633   0.000000
     9  N    2.087328   1.329856   0.992661   0.000000
 Stoichiometry    C3H4N2
 Framework group  CS[SG(C3H4N2)]
 Deg. of freedom    15
 Full point group                 CS      NOp   2
 Largest Abelian subgroup         CS      NOp   2
 Largest concise Abelian subgroup C1      NOp   1
                         Standard orientation:                         
 ---------------------------------------------------------------------
 Center     Atomic     Atomic              Coordinates (Angstroms)
 Number     Number      Type              X           Y           Z
 ---------------------------------------------------------------------
    1          1             0        2.080447    0.722417    0.000000
    2          6             0        1.096394    0.302400    0.000000
    3          1             0        1.255542   -1.879784    0.000000
    4          6             0        0.662812   -0.989701    0.000000
    5          1             0       -1.474873   -1.658768    0.000000
    6          6             0       -0.745544   -0.874478    0.000000
    7          7             0       -1.127859    0.370571    0.000000
    8          1             0       -0.048078    2.066660    0.000000
    9          7             0        0.000000    1.075164    0.000000
 ---------------------------------------------------------------------
 Rotational constants (GHZ):      9.8799678      9.6409251      4.8794914
 Leave Link  202 at Wed Feb 25 21:25:36 2004, MaxMem=   56000000 cpu:       0.2
 (Enter /usr/local/apps/g03b05/g03/l301.exe)
 Standard basis: 6-31G(d) (6D, 7F)
 There are    63 symmetry adapted basis functions of A'  symmetry.
 There are    20 symmetry adapted basis functions of A"  symmetry.
 Integral buffers will be    131072 words long.
 Raffenetti 2 integral format.
 Two-electron integral symmetry is turned on.
    83 basis functions,   156 primitive gaussians,    83 cartesian basis functions
    18 alpha electrons       18 beta electrons
       nuclear repulsion energy       164.9559149755 Hartrees.
 IExCor=1009 DFT=T Ex=PBE Corr=PBE ExCW=0 ScaHFX=  0.000000
 ScaDFX=  1.000000  1.000000  1.000000  1.000000
 IRadAn=      0 IRanWt=     -1 IRanGd=            0 ICorTp=0
 NAtoms=    9 NActive=    9 NUniq=    9 SFac= 1.00D+00 NAtFMM=   60 Big=F
 Leave Link  301 at Wed Feb 25 21:25:37 2004, MaxMem=   56000000 cpu:       0.1
 (Enter /usr/local/apps/g03b05/g03/l302.exe)
 NPDir=0 NMtPBC=     1 NCelOv=     1 NCel=       1 NClECP=     1 NCelD=      1
         NCelK=      1 NCelE2=     1 NClLst=     1 CellRange=     0.0.
 One-electron integrals computed using PRISM.
 NBasis=    83 RedAO= T  NBF=    63    20
 NBsUse=    83 1.00D-06 NBFU=    63    20
 Precomputing XC quadrature grid using
 IXCGrd= 2 IRadAn=           0 IRanWt=          -1 IRanGd=           0.
 NRdTot=     555 NPtTot=       69836 NUsed=       73758 NTot=       73790
 NSgBfM=    83    83    83    83.
 Leave Link  302 at Wed Feb 25 21:25:37 2004, MaxMem=   56000000 cpu:       0.6
 (Enter /usr/local/apps/g03b05/g03/l303.exe)
 DipDrv:  MaxL=1.
 Leave Link  303 at Wed Feb 25 21:25:38 2004, MaxMem=   56000000 cpu:       0.0
 (Enter /usr/local/apps/g03b05/g03/l401.exe)
 Harris functional with IExCor= 1009 diagonalized for initial guess.
 ExpMin= 1.61D-01 ExpMax= 4.17D+03 ExpMxC= 6.27D+02 IAcc=1 IRadAn=         1 AccDes= 1.00D-06
 HarFok:  IExCor=1009 AccDes= 1.00D-06 IRadAn=         1 IDoV=1
 ScaDFX=  1.000000  1.000000  1.000000  1.000000
 Harris En= -226.070544016821    
 Initial guess orbital symmetries:
       Occupied  (A') (A') (A') (A') (A') (A') (A') (A') (A') (A')
                 (A') (A') (A') (A") (A') (A') (A") (A")
       Virtual   (A") (A") (A') (A') (A') (A') (A') (A') (A') (A')
                 (A') (A') (A") (A') (A') (A") (A') (A") (A') (A')
                 (A") (A') (A') (A") (A') (A') (A') (A') (A') (A')
                 (A') (A') (A") (A") (A") (A') (A') (A") (A') (A")
                 (A') (A') (A') (A') (A') (A') (A") (A") (A') (A')
                 (A") (A") (A') (A") (A') (A') (A') (A') (A') (A')
                 (A') (A') (A') (A') (A')
 The electronic state of the initial guess is 1-A'.
 Leave Link  401 at Wed Feb 25 21:25:39 2004, MaxMem=   56000000 cpu:       0.8
 (Enter /usr/local/apps/g03b05/g03/l502.exe)
 Closed shell SCF:
 Requested convergence on RMS density matrix=1.00D-08 within 128 cycles.
 Requested convergence on MAX density matrix=1.00D-06.
 Requested convergence on             energy=1.00D-06.
 No special actions if energy rises.
 Using DIIS extrapolation, IDIIS=  1040.
 Integral symmetry usage will be decided dynamically.
        73757 words used for storage of precomputed grid.
 Keep R1 integrals in memory in canonical form, NReq=     7310170.
 IEnd=    116005 IEndB=    116005 NGot=  56000000 MDV=  49829753
 LenX=  49829753
 Symmetry not used in FoFDir.
 MinBra= 0 MaxBra= 2 Meth= 1.
 IRaf=       0 NMat=   1 IRICut=       1 DoRegI=T DoRafI=F ISym2E= 0 JSym2E=0.
 Integral accuracy reduced to 1.0D-05 until final iterations.

 Cycle   1  Pass 0  IDiag  1:
 E= -225.791023222206    
 DIIS: error= 3.32D-02 at cycle   1 NSaved=   1.
 NSaved= 1 IEnMin= 1 EnMin= -225.791023222206     IErMin= 1 ErrMin= 3.32D-02
 ErrMax= 3.32D-02 EMaxC= 1.00D-01 BMatC= 1.21D-01 BMatP= 1.21D-01
 IDIUse=3 WtCom= 6.68D-01 WtEn= 3.32D-01
 Coeff-Com:  0.100D+01
 Coeff-En:   0.100D+01
 Coeff:      0.100D+01
 Gap=     0.210 Goal=   None    Shift=    0.000
 GapD=    0.210 DampG=1.000 DampE=0.500 DampFc=0.5000 IDamp=-1.
 Damping current iteration by 5.00D-01
 RMSDP=1.31D-02 MaxDP=1.79D-01              OVMax= 2.69D-01

 Cycle   2  Pass 0  IDiag  1:
 E= -225.828210340523     Delta-E=       -0.037187118318 Rises=F Damp=T
 DIIS: error= 1.58D-02 at cycle   2 NSaved=   2.
 NSaved= 2 IEnMin= 2 EnMin= -225.828210340523     IErMin= 2 ErrMin= 1.58D-02
 ErrMax= 1.58D-02 EMaxC= 1.00D-01 BMatC= 1.58D-02 BMatP= 1.21D-01
 IDIUse=3 WtCom= 8.42D-01 WtEn= 1.58D-01
 Coeff-Com:  0.214D+00 0.786D+00
 Coeff-En:   0.347D+00 0.653D+00
 Coeff:      0.235D+00 0.765D+00
 Gap=     0.213 Goal=   None    Shift=    0.000
 RMSDP=3.82D-03 MaxDP=5.57D-02 DE=-3.72D-02 OVMax= 2.49D-01

 Cycle   3  Pass 0  IDiag  1:
 E= -225.904048385922     Delta-E=       -0.075838045399 Rises=F Damp=F
 DIIS: error= 1.65D-02 at cycle   3 NSaved=   3.
 NSaved= 3 IEnMin= 3 EnMin= -225.904048385922     IErMin= 2 ErrMin= 1.58D-02
 ErrMax= 1.65D-02 EMaxC= 1.00D-01 BMatC= 2.10D-02 BMatP= 1.58D-02
 IDIUse=2 WtCom= 0.00D+00 WtEn= 1.00D+00
 Coeff-En:   0.000D+00 0.000D+00 0.100D+01
 Coeff:      0.000D+00 0.000D+00 0.100D+01
 Gap=     0.196 Goal=   None    Shift=    0.000
 RMSDP=5.97D-03 MaxDP=1.22D-01 DE=-7.58D-02 OVMax= 2.22D-01

 Cycle   4  Pass 0  IDiag  1:
 E= -225.783674744178     Delta-E=        0.120373641744 Rises=F Damp=F
 DIIS: error= 5.22D-02 at cycle   4 NSaved=   4.
 NSaved= 4 IEnMin= 3 EnMin= -225.904048385922     IErMin= 2 ErrMin= 1.58D-02
 ErrMax= 5.22D-02 EMaxC= 1.00D-01 BMatC= 1.41D-01 BMatP= 1.58D-02
 IDIUse=2 WtCom= 0.00D+00 WtEn= 1.00D+00
 Coeff-En:   0.000D+00 0.000D+00 0.810D+00 0.190D+00
 Coeff:      0.000D+00 0.000D+00 0.810D+00 0.190D+00
 Gap=     0.205 Goal=   None    Shift=    0.000
 RMSDP=3.08D-03 MaxDP=6.27D-02 DE= 1.20D-01 OVMax= 1.11D-01

 Cycle   5  Pass 0  IDiag  1:
 E= -225.912943291357     Delta-E=       -0.129268547178 Rises=F Damp=F
 DIIS: error= 1.42D-02 at cycle   5 NSaved=   5.
 NSaved= 5 IEnMin= 5 EnMin= -225.912943291357     IErMin= 5 ErrMin= 1.42D-02
 ErrMax= 1.42D-02 EMaxC= 1.00D-01 BMatC= 1.22D-02 BMatP= 1.58D-02
 IDIUse=3 WtCom= 8.58D-01 WtEn= 1.42D-01
 Coeff-Com:  0.331D-02 0.606D-01 0.318D+00-0.108D+00 0.726D+00
 Coeff-En:   0.000D+00 0.000D+00 0.403D+00 0.000D+00 0.597D+00
 Coeff:      0.284D-02 0.520D-01 0.330D+00-0.926D-01 0.708D+00
 Gap=     0.216 Goal=   None    Shift=    0.000
 RMSDP=1.31D-03 MaxDP=2.74D-02 DE=-1.29D-01 OVMax= 4.76D-02

 Cycle   6  Pass 0  IDiag  1:
 E= -225.925100179901     Delta-E=       -0.012156888544 Rises=F Damp=F
 DIIS: error= 5.63D-04 at cycle   6 NSaved=   6.
 NSaved= 6 IEnMin= 6 EnMin= -225.925100179901     IErMin= 6 ErrMin= 5.63D-04
 ErrMax= 5.63D-04 EMaxC= 1.00D-01 BMatC= 3.46D-05 BMatP= 1.22D-02
 IDIUse=3 WtCom= 9.94D-01 WtEn= 5.63D-03
 Coeff-Com: -0.921D-03 0.332D-01 0.177D+00-0.729D-01 0.456D+00 0.408D+00
 Coeff-En:   0.000D+00 0.000D+00 0.000D+00 0.000D+00 0.000D+00 0.100D+01
 Coeff:     -0.916D-03 0.330D-01 0.176D+00-0.725D-01 0.453D+00 0.411D+00
 Gap=     0.216 Goal=   None    Shift=    0.000
 RMSDP=6.83D-05 MaxDP=1.44D-03 DE=-1.22D-02 OVMax= 2.45D-03

 Cycle   7  Pass 0  IDiag  1:
 E= -225.925128212518     Delta-E=       -0.000028032617 Rises=F Damp=F
 DIIS: error= 1.51D-04 at cycle   7 NSaved=   7.
 NSaved= 7 IEnMin= 7 EnMin= -225.925128212518     IErMin= 7 ErrMin= 1.51D-04
 ErrMax= 1.51D-04 EMaxC= 1.00D-01 BMatC= 1.66D-06 BMatP= 3.46D-05
 IDIUse=3 WtCom= 9.98D-01 WtEn= 1.51D-03
 Coeff-Com: -0.646D-03 0.631D-02 0.472D-01-0.183D-01 0.119D+00 0.213D+00
 Coeff-Com:  0.633D+00
 Coeff-En:   0.000D+00 0.000D+00 0.000D+00 0.000D+00 0.000D+00 0.963D-02
 Coeff-En:   0.990D+00
 Coeff:     -0.645D-03 0.631D-02 0.471D-01-0.183D-01 0.119D+00 0.212D+00
 Coeff:      0.634D+00
 Gap=     0.216 Goal=   None    Shift=    0.000
 RMSDP=2.15D-05 MaxDP=3.86D-04 DE=-2.80D-05 OVMax= 8.48D-04

 Cycle   8  Pass 0  IDiag  1:
 E= -225.925129057651     Delta-E=       -0.000000845132 Rises=F Damp=F
 DIIS: error= 8.67D-05 at cycle   8 NSaved=   8.
 NSaved= 8 IEnMin= 8 EnMin= -225.925129057651     IErMin= 8 ErrMin= 8.67D-05
 ErrMax= 8.67D-05 EMaxC= 1.00D-01 BMatC= 5.80D-07 BMatP= 1.66D-06
 IDIUse=1 WtCom= 1.00D+00 WtEn= 0.00D+00
 Coeff-Com: -0.272D-03 0.875D-03 0.147D-01-0.500D-02 0.348D-01 0.107D+00
 Coeff-Com:  0.467D+00 0.381D+00
 Coeff:     -0.272D-03 0.875D-03 0.147D-01-0.500D-02 0.348D-01 0.107D+00
 Coeff:      0.467D+00 0.381D+00
 Gap=     0.216 Goal=   None    Shift=    0.000
 RMSDP=1.00D-05 MaxDP=1.22D-04 DE=-8.45D-07 OVMax= 3.23D-04

 Cycle   9  Pass 0  IDiag  1:
 E= -225.925129664721     Delta-E=       -0.000000607070 Rises=F Damp=F
 DIIS: error= 1.48D-05 at cycle   9 NSaved=   9.
 NSaved= 9 IEnMin= 9 EnMin= -225.925129664721     IErMin= 9 ErrMin= 1.48D-05
 ErrMax= 1.48D-05 EMaxC= 1.00D-01 BMatC= 1.13D-08 BMatP= 5.80D-07
 IDIUse=1 WtCom= 1.00D+00 WtEn= 0.00D+00
 Coeff-Com: -0.444D-04 0.330D-05 0.390D-02-0.110D-02 0.810D-02 0.375D-01
 Coeff-Com:  0.193D+00 0.173D+00 0.586D+00
 Coeff:     -0.444D-04 0.330D-05 0.390D-02-0.110D-02 0.810D-02 0.375D-01
 Coeff:      0.193D+00 0.173D+00 0.586D+00
 Gap=     0.216 Goal=   None    Shift=    0.000
 RMSDP=1.51D-06 MaxDP=3.67D-05 DE=-6.07D-07 OVMax= 6.54D-05

 Initial convergence to 1.0D-05 achieved.  Increase integral accuracy.
 Cycle  10  Pass 1  IDiag  1:
 E= -225.925151388092     Delta-E=       -0.000021723370 Rises=F Damp=F
 DIIS: error= 8.56D-06 at cycle   1 NSaved=   1.
 NSaved= 1 IEnMin= 1 EnMin= -225.925151388092     IErMin= 1 ErrMin= 8.56D-06
 ErrMax= 8.56D-06 EMaxC= 1.00D-01 BMatC= 1.40D-08 BMatP= 1.40D-08
 IDIUse=1 WtCom= 1.00D+00 WtEn= 0.00D+00
 Coeff-Com:  0.100D+01
 Coeff:      0.100D+01
 Gap=     0.216 Goal=   None    Shift=    0.000
 RMSDP=1.51D-06 MaxDP=3.67D-05 DE=-2.17D-05 OVMax= 5.48D-05

 Cycle  11  Pass 1  IDiag  1:
 E= -225.925151388857     Delta-E=       -0.000000000766 Rises=F Damp=F
 DIIS: error= 1.64D-05 at cycle   2 NSaved=   2.
 NSaved= 2 IEnMin= 2 EnMin= -225.925151388857     IErMin= 1 ErrMin= 8.56D-06
 ErrMax= 1.64D-05 EMaxC= 1.00D-01 BMatC= 1.37D-08 BMatP= 1.40D-08
 IDIUse=1 WtCom= 1.00D+00 WtEn= 0.00D+00
 Coeff-Com:  0.496D+00 0.504D+00
 Coeff:      0.496D+00 0.504D+00
 Gap=     0.216 Goal=   None    Shift=    0.000
 RMSDP=2.29D-06 MaxDP=4.78D-05 DE=-7.66D-10 OVMax= 9.25D-05

 Cycle  12  Pass 1  IDiag  1:
 E= -225.925151392826     Delta-E=       -0.000000003969 Rises=F Damp=F
 DIIS: error= 1.45D-05 at cycle   3 NSaved=   3.
 NSaved= 3 IEnMin= 3 EnMin= -225.925151392826     IErMin= 1 ErrMin= 8.56D-06
 ErrMax= 1.45D-05 EMaxC= 1.00D-01 BMatC= 9.01D-09 BMatP= 1.37D-08
 IDIUse=1 WtCom= 1.00D+00 WtEn= 0.00D+00
 Coeff-Com:  0.277D-01 0.442D+00 0.531D+00
 Coeff:      0.277D-01 0.442D+00 0.531D+00
 Gap=     0.216 Goal=   None    Shift=    0.000
 RMSDP=1.23D-06 MaxDP=2.71D-05 DE=-3.97D-09 OVMax= 4.80D-05

 Cycle  13  Pass 1  IDiag  1:
 E= -225.925151401149     Delta-E=       -0.000000008322 Rises=F Damp=F
 DIIS: error= 2.64D-06 at cycle   4 NSaved=   4.
 NSaved= 4 IEnMin= 4 EnMin= -225.925151401149     IErMin= 4 ErrMin= 2.64D-06
 ErrMax= 2.64D-06 EMaxC= 1.00D-01 BMatC= 4.94D-10 BMatP= 9.01D-09
 IDIUse=1 WtCom= 1.00D+00 WtEn= 0.00D+00
 Coeff-Com:  0.372D-03 0.282D+00 0.368D+00 0.351D+00
 Coeff:      0.372D-03 0.282D+00 0.368D+00 0.351D+00
 Gap=     0.216 Goal=   None    Shift=    0.000
 RMSDP=2.42D-07 MaxDP=4.84D-06 DE=-8.32D-09 OVMax= 9.28D-06

 Cycle  14  Pass 1  IDiag  1:
 E= -225.925151401620     Delta-E=       -0.000000000472 Rises=F Damp=F
 DIIS: error= 2.38D-07 at cycle   5 NSaved=   5.
 NSaved= 5 IEnMin= 5 EnMin= -225.925151401620     IErMin= 5 ErrMin= 2.38D-07
 ErrMax= 2.38D-07 EMaxC= 1.00D-01 BMatC= 4.15D-12 BMatP= 4.94D-10
 IDIUse=1 WtCom= 1.00D+00 WtEn= 0.00D+00
 Coeff-Com: -0.497D-03 0.898D-01 0.127D+00 0.126D+00 0.657D+00
 Coeff:     -0.497D-03 0.898D-01 0.127D+00 0.126D+00 0.657D+00
 Gap=     0.216 Goal=   None    Shift=    0.000
 RMSDP=3.31D-08 MaxDP=7.32D-07 DE=-4.72D-10 OVMax= 9.27D-07

 Cycle  15  Pass 1  IDiag  1:
 E= -225.925151401625     Delta-E=       -0.000000000005 Rises=F Damp=F
 DIIS: error= 7.56D-08 at cycle   6 NSaved=   6.
 NSaved= 6 IEnMin= 6 EnMin= -225.925151401625     IErMin= 6 ErrMin= 7.56D-08
 ErrMax= 7.56D-08 EMaxC= 1.00D-01 BMatC= 6.10D-13 BMatP= 4.15D-12
 IDIUse=1 WtCom= 1.00D+00 WtEn= 0.00D+00
 Coeff-Com: -0.451D-03 0.363D-01 0.539D-01 0.531D-01 0.377D+00 0.480D+00
 Coeff:     -0.451D-03 0.363D-01 0.539D-01 0.531D-01 0.377D+00 0.480D+00
 Gap=     0.216 Goal=   None    Shift=    0.000
 RMSDP=1.32D-08 MaxDP=2.28D-07 DE=-4.89D-12 OVMax= 4.79D-07

 Cycle  16  Pass 1  IDiag  1:
 E= -225.925151401624     Delta-E=        0.000000000001 Rises=F Damp=F
 DIIS: error= 5.46D-08 at cycle   7 NSaved=   7.
 NSaved= 7 IEnMin= 6 EnMin= -225.925151401625     IErMin= 7 ErrMin= 5.46D-08
 ErrMax= 5.46D-08 EMaxC= 1.00D-01 BMatC= 1.56D-13 BMatP= 6.10D-13
 IDIUse=1 WtCom= 1.00D+00 WtEn= 0.00D+00
 Coeff-Com: -0.196D-03 0.109D-01 0.171D-01 0.164D-01 0.150D+00 0.355D+00
 Coeff-Com:  0.451D+00
 Coeff:     -0.196D-03 0.109D-01 0.171D-01 0.164D-01 0.150D+00 0.355D+00
 Coeff:      0.451D+00
 Gap=     0.216 Goal=   None    Shift=    0.000
 RMSDP=5.84D-09 MaxDP=9.11D-08 DE= 1.48D-12 OVMax= 2.26D-07

 SCF Done:  E(RPBE-PBE) =  -225.925151402     A.U. after   16 cycles
             Convg  =    0.5841D-08             -V/T =  2.0079
             S**2   =   0.0000
 KE= 2.241601692546D+02 PE=-8.556190854573D+02 EE= 2.405778498256D+02
 Leave Link  502 at Wed Feb 25 21:26:07 2004, MaxMem=   56000000 cpu:      28.0
 (Enter /usr/local/apps/g03b05/g03/l601.exe)
 Copying SCF densities to generalized density rwf, ISCF=0 IROHF=0.

 **********************************************************************

            Population analysis using the SCF density.

 **********************************************************************

 Orbital symmetries:
       Occupied  (A') (A') (A') (A') (A') (A') (A') (A') (A') (A')
                 (A') (A') (A") (A') (A') (A') (A") (A")
       Virtual   (A") (A") (A') (A') (A') (A') (A') (A') (A') (A')
                 (A') (A') (A") (A') (A") (A') (A') (A") (A') (A')
                 (A") (A') (A") (A') (A') (A') (A') (A') (A') (A')
                 (A') (A') (A") (A') (A") (A") (A') (A') (A") (A")
                 (A') (A') (A') (A') (A') (A') (A") (A") (A') (A')
                 (A") (A") (A') (A") (A') (A') (A') (A') (A') (A')
                 (A') (A') (A') (A') (A')
 The electronic state is 1-A'.
 Alpha  occ. eigenvalues --  -14.07150 -14.00389  -9.92349  -9.90118  -9.88397
 Alpha  occ. eigenvalues --   -0.96738  -0.74487  -0.70418  -0.55085  -0.53814
 Alpha  occ. eigenvalues --   -0.48668  -0.39466  -0.38939  -0.37643  -0.34483
 Alpha  occ. eigenvalues --   -0.23061  -0.22099  -0.21273
 Alpha virt. eigenvalues --    0.00309   0.04891   0.05944   0.11505   0.13752
 Alpha virt. eigenvalues --    0.15000   0.19155   0.21199   0.26845   0.36881
 Alpha virt. eigenvalues --    0.40238   0.49776   0.50995   0.52293   0.56055
 Alpha virt. eigenvalues --    0.56216   0.60136   0.61040   0.63464   0.65394
 Alpha virt. eigenvalues --    0.69419   0.76432   0.77917   0.78169   0.80310
 Alpha virt. eigenvalues --    0.81536   0.87579   0.89080   0.91026   0.99959
 Alpha virt. eigenvalues --    1.09831   1.17200   1.25315   1.28272   1.29879
 Alpha virt. eigenvalues --    1.33002   1.43443   1.44455   1.48370   1.50717
 Alpha virt. eigenvalues --    1.71241   1.80570   1.88427   1.99899   2.03085
 Alpha virt. eigenvalues --    2.05833   2.13024   2.17545   2.21961   2.25664
 Alpha virt. eigenvalues --    2.26671   2.34975   2.51492   2.52961   2.54627
 Alpha virt. eigenvalues --    2.62296   2.66091   2.90299   2.90908   2.98229
 Alpha virt. eigenvalues --    3.69632   3.89309   4.01587   4.16720   4.33693
          Condensed to atoms (all electrons):
              1          2          3          4          5          6
     1  H    0.558125   0.357321  -0.000708  -0.035391  -0.000156   0.004408
     2  C    0.357321   4.971995  -0.050307   0.561713   0.005435  -0.037610
     3  H   -0.000708  -0.050307   0.577848   0.361367  -0.001597  -0.037638
     4  C   -0.035391   0.561713   0.361367   4.954912  -0.054504   0.515315
     5  H   -0.000156   0.005435  -0.001597  -0.054504   0.572060   0.381187
     6  C    0.004408  -0.037610  -0.037638   0.515315   0.381187   4.804146
     7  N    0.005627  -0.130705   0.007066  -0.022656  -0.055272   0.484781
     8  H   -0.001087  -0.045717  -0.000143   0.006607  -0.000245   0.008851
     9  N   -0.046250   0.295786   0.006461  -0.042345   0.008711  -0.155384
              7          8          9
     1  H    0.005627  -0.001087  -0.046250
     2  C   -0.130705  -0.045717   0.295786
     3  H    0.007066  -0.000143   0.006461
     4  C   -0.022656   0.006607  -0.042345
     5  H   -0.055272  -0.000245   0.008711
     6  C    0.484781   0.008851  -0.155384
     7  N    6.701381  -0.040504   0.312163
     8  H   -0.040504   0.396618   0.334757
     9  N    0.312163   0.334757   6.664239
 Mulliken atomic charges:
              1
     1  H    0.158111
     2  C    0.072088
     3  H    0.137651
     4  C   -0.245019
     5  H    0.144381
     6  C    0.031945
     7  N   -0.261881
     8  H    0.340863
     9  N   -0.378138
 Sum of Mulliken charges=   0.00000
 Atomic charges with hydrogens summed into heavy atoms:
              1
     1  H    0.000000
     2  C    0.230199
     3  H    0.000000
     4  C   -0.107369
     5  H    0.000000
     6  C    0.176326
     7  N   -0.261881
     8  H    0.000000
     9  N   -0.037275
 Sum of Mulliken charges=   0.00000
 Electronic spatial extent (au):  <R**2>=   279.9423
 Charge=     0.0000 electrons
 Dipole moment (field-independent basis, Debye):
    X=     1.9612    Y=     0.9971    Z=     0.0000  Tot=     2.2002
 Quadrupole moment (field-independent basis, Debye-Ang):
   XX=   -29.2221   YY=   -21.8474   ZZ=   -30.9527
   XY=     2.2706   XZ=     0.0000   YZ=     0.0000
 Traceless Quadrupole moment (field-independent basis, Debye-Ang):
   XX=    -1.8814   YY=     5.4933   ZZ=    -3.6120
   XY=     2.2706   XZ=     0.0000   YZ=     0.0000
 Octapole moment (field-independent basis, Debye-Ang**2):
  XXX=     7.9514  YYY=    12.0873  ZZZ=     0.0000  XYY=     0.3516
  XXY=    -2.0780  XXZ=     0.0000  XZZ=    -0.9724  YZZ=     2.0496
  YYZ=     0.0000  XYZ=     0.0000
 Hexadecapole moment (field-independent basis, Debye-Ang**3):
 XXXX=  -168.8148 YYYY=  -129.3283 ZZZZ=   -29.7308 XXXY=     8.8399
 XXXZ=     0.0000 YYYX=    -1.8645 YYYZ=     0.0000 ZZZX=     0.0000
 ZZZY=     0.0000 XXYY=   -50.2596 XXZZ=   -35.9657 YYZZ=   -34.7250
 XXYZ=     0.0000 YYXZ=     0.0000 ZZXY=    -0.2010
 N-N= 1.649559149755D+02 E-N=-8.556190860924D+02  KE= 2.241601692546D+02
 Symmetry A'   KE= 2.158923402081D+02
 Symmetry A"   KE= 8.267829046448D+00
 No NMR shielding tensors so no spin-rotation constants.
 Leave Link  601 at Wed Feb 25 21:26:07 2004, MaxMem=   56000000 cpu:       0.6
 (Enter /usr/local/apps/g03b05/g03/l701.exe)
 Compute integral first derivatives.
 ... and contract with generalized density number  0.
 Leave Link  701 at Wed Feb 25 21:26:08 2004, MaxMem=   56000000 cpu:       0.5
 (Enter /usr/local/apps/g03b05/g03/l702.exe)
 L702 exits ... SP integral derivatives will be done elsewhere.
 Leave Link  702 at Wed Feb 25 21:26:08 2004, MaxMem=   56000000 cpu:       0.0
 (Enter /usr/local/apps/g03b05/g03/l703.exe)
 Compute integral first derivatives, UseDBF=F.
 Integral derivatives from FoFDir, PRISM(SPDF).
 Calling FoFCou, ICntrl=  2527 FMM=F ISym2X=1 I1Cent= 0 ISCF1= 0.
 FoFCou: FMM=F IPFlag=           0 FMFlag=           0 FMFlg1=           0
 NFxFlg=           0 DoJE=F BraDBF=F KetDBF=F FulRan=T.
 Petite list used in FoFCou.
 Leave Link  703 at Wed Feb 25 21:26:22 2004, MaxMem=   56000000 cpu:      13.9
 (Enter /usr/local/apps/g03b05/g03/l716.exe)
 Dipole        = 7.71604095D-01 3.92307987D-01 0.00000000D+00
 ***** Axes restored to original set *****
 -------------------------------------------------------------------
 Center     Atomic                   Forces (Hartrees/Bohr)
 Number     Number              X              Y              Z
 -------------------------------------------------------------------
    1          1           0.013142158    0.005399220    0.000000000
    2          6           0.020146977    0.005209878    0.000000000
    3          1           0.007946185   -0.011088971    0.000000000
    4          6          -0.007295745   -0.014239953    0.000000000
    5          1          -0.009845620   -0.010388381    0.000000000
    6          6           0.014102949   -0.028701576    0.000000000
    7          7          -0.036664207    0.030243049    0.000000000
    8          1          -0.001377123    0.021974009    0.000000000
    9          7          -0.000155574    0.001592724    0.000000000
 -------------------------------------------------------------------
 Cartesian Forces:  Max     0.036664207 RMS     0.013677193
 Leave Link  716 at Wed Feb 25 21:26:22 2004, MaxMem=   56000000 cpu:       0.0
 (Enter /usr/local/apps/g03b05/g03/l103.exe)

 GradGradGradGradGradGradGradGradGradGradGradGradGradGradGradGradGradGrad
 Berny optimization.
 Internal  Forces:  Max     0.042260199 RMS     0.011486499
 Search for a local minimum.
 Step number   1 out of a maximum of  48
 All quantities printed in internal units (Hartrees-Bohrs-Radians)
 Second derivative matrix not updated -- first step.
     Eigenvalues ---    0.02140   0.02277   0.02344   0.02397   0.02534
     Eigenvalues ---    0.02554   0.16000   0.16000   0.16000   0.16000
     Eigenvalues ---    0.22000   0.22929   0.37105   0.37238   0.37308
     Eigenvalues ---    0.40394   0.48796   0.49002   0.53148   0.57511
     Eigenvalues ---    0.639231000.000001000.000001000.000001000.00000
     Eigenvalues --- 1000.000001000.000001000.000001000.000001000.00000
     Eigenvalues --- 1000.000001000.000001000.000001000.000001000.00000
     Eigenvalues --- 1000.000001000.000001000.00000
 RFO step:  Lambda=-9.10145106D-03.
 Linear search not attempted -- first point.
 Iteration  1 RMS(Cart)=  0.02746323 RMS(Int)=  0.00007605
 Iteration  2 RMS(Cart)=  0.00007995 RMS(Int)=  0.00002372
 Iteration  3 RMS(Cart)=  0.00000000 RMS(Int)=  0.00002372
 Variable       Old X    -DE/DX   Delta X   Delta X   Delta X     New X
                                 (Linear)    (Quad)   (Total)
    R1        2.02190   0.01421   0.00000   0.03724   0.03724   2.05914
    R2        2.57552   0.02709   0.00000   0.04886   0.04883   2.62435
    R3        2.53480   0.02679   0.00000   0.04637   0.04640   2.58120
    R4        2.02084   0.01363   0.00000   0.03568   0.03568   2.05651
    R5        2.67030   0.01130   0.00000   0.02411   0.02407   2.69437
    R6        2.02389   0.01431   0.00000   0.03765   0.03765   2.06154
    R7        2.46123   0.04226   0.00000   0.06365   0.06366   2.52488
    R8        2.51306   0.02275   0.00000   0.03935   0.03939   2.55246
    R9        1.87586   0.02201   0.00000   0.04411   0.04411   1.91996
    A1        2.29797   0.00010   0.00000   0.00278   0.00278   2.30075
    A2        2.12422   0.00047   0.00000   0.00496   0.00497   2.12919
    A3        1.86100  -0.00056   0.00000  -0.00774  -0.00775   1.85324
    A4        2.23035  -0.00194   0.00000  -0.00529  -0.00525   2.22509
    A5        1.81292   0.00291   0.00000   0.00486   0.00479   1.81771
    A6        2.23992  -0.00097   0.00000   0.00043   0.00046   2.24038
    A7        2.23827  -0.00067   0.00000  -0.00251  -0.00249   2.23578
    A8        1.95036   0.00160   0.00000   0.00649   0.00646   1.95682
    A9        2.09456  -0.00092   0.00000  -0.00399  -0.00397   2.09059
   A10        1.83126  -0.00565   0.00000  -0.01395  -0.01388   1.81738
   A11        1.96924   0.00170   0.00000   0.01033   0.01038   1.97962
   A12        2.23320  -0.00055   0.00000  -0.00338  -0.00340   2.22980
   A13        2.08074  -0.00115   0.00000  -0.00695  -0.00698   2.07376
    D1        0.00000   0.00000   0.00000   0.00000   0.00000   0.00000
    D2        3.14159   0.00000   0.00000   0.00000   0.00000   3.14159
    D3        3.14159   0.00000   0.00000   0.00000   0.00000   3.14159
    D4        0.00000   0.00000   0.00000   0.00000   0.00000   0.00000
    D5        3.14159   0.00000   0.00000   0.00000   0.00000   3.14159
    D6        0.00000   0.00000   0.00000   0.00000   0.00000   0.00000
    D7        0.00000   0.00000   0.00000   0.00000   0.00000   0.00000
    D8        3.14159   0.00000   0.00000   0.00000   0.00000   3.14159
    D9        3.14159   0.00000   0.00000   0.00000   0.00000   3.14159
   D10        0.00000   0.00000   0.00000   0.00000   0.00000   0.00000
   D11        0.00000   0.00000   0.00000   0.00000   0.00000   0.00000
   D12        3.14159   0.00000   0.00000   0.00000   0.00000   3.14159
   D13        0.00000   0.00000   0.00000   0.00000   0.00000   0.00000
   D14        3.14159   0.00000   0.00000   0.00000   0.00000   3.14159
   D15        0.00000   0.00000   0.00000   0.00000   0.00000   0.00000
   D16        3.14159   0.00000   0.00000   0.00000   0.00000   3.14159
         Item               Value     Threshold  Converged?
 Maximum Force            0.042260     0.000450     NO 
 RMS     Force            0.011486     0.000300     NO 
 Maximum Displacement     0.077252     0.001800     NO 
 RMS     Displacement     0.027437     0.001200     NO 
 Predicted change in Energy=-4.629009D-03
 GradGradGradGradGradGradGradGradGradGradGradGradGradGradGradGradGradGrad

 Leave Link  103 at Wed Feb 25 21:26:23 2004, MaxMem=   56000000 cpu:       0.1
 (Enter /usr/local/apps/g03b05/g03/l202.exe)
                          Input orientation:                          
 ---------------------------------------------------------------------
 Center     Atomic     Atomic              Coordinates (Angstroms)
 Number     Number      Type              X           Y           Z
 ---------------------------------------------------------------------
    1          1             0        2.116831    0.734677    0.000000
    2          6             0        1.113762    0.309016    0.000000
    3          1             0        1.269091   -1.910979    0.000000
    4          6             0        0.665551   -1.005413    0.000000
    5          1             0       -1.496460   -1.689708    0.000000
    6          6             0       -0.755491   -0.889039    0.000000
    7          7             0       -1.155838    0.385682    0.000000
    8          1             0       -0.053641    2.107540    0.000000
    9          7             0       -0.004963    1.092706    0.000000
 ---------------------------------------------------------------------
                    Distance matrix (angstroms):
                    1          2          3          4          5
     1  H    0.000000
     2  C    1.089649   0.000000
     3  H    2.778157   2.225422   0.000000
     4  C    2.265861   1.388747   1.088260   0.000000
     5  H    4.351266   3.287577   2.774390   2.267720   0.000000
     6  C    3.299498   2.220235   2.267884   1.425799   1.090920
     7  N    3.291224   2.270894   3.339900   2.291856   2.103157
     8  H    2.568210   2.144182   4.230616   3.194952   4.062120
     9  N    2.151788   1.365912   3.262719   2.202656   3.156960
                    6          7          8          9
     6  C    0.000000
     7  N    1.336111   0.000000
     8  H    3.077675   2.044415   0.000000
     9  N    2.119106   1.350702   1.016001   0.000000
 Stoichiometry    C3H4N2
 Framework group  CS[SG(C3H4N2)]
 Deg. of freedom    15
 Full point group                 CS      NOp   2
 Largest Abelian subgroup         CS      NOp   2
 Largest concise Abelian subgroup C1      NOp   1
                         Standard orientation:                         
 ---------------------------------------------------------------------
 Center     Atomic     Atomic              Coordinates (Angstroms)
 Number     Number      Type              X           Y           Z
 ---------------------------------------------------------------------
    1          1             0        2.121503    0.730802    0.000000
    2          6             0        1.118089    0.305954    0.000000
    3          1             0        1.271621   -1.914166    0.000000
    4          6             0        0.668814   -1.008112    0.000000
    5          1             0       -1.493751   -1.690655    0.000000
    6          6             0       -0.752134   -0.890587    0.000000
    7          7             0       -1.151448    0.384458    0.000000
    8          1             0       -0.047857    2.105423    0.000000
    9          7             0        0.000000    1.090550    0.000000
 ---------------------------------------------------------------------
 Rotational constants (GHZ):      9.5601418      9.2972656      4.7134357
 Leave Link  202 at Wed Feb 25 21:26:23 2004, MaxMem=   56000000 cpu:       0.3
 (Enter /usr/local/apps/g03b05/g03/l301.exe)
 Standard basis: 6-31G(d) (6D, 7F)
 There are    63 symmetry adapted basis functions of A'  symmetry.
 There are    20 symmetry adapted basis functions of A"  symmetry.
 Integral buffers will be    131072 words long.
 Raffenetti 2 integral format.
 Two-electron integral symmetry is turned on.
    83 basis functions,   156 primitive gaussians,    83 cartesian basis functions
    18 alpha electrons       18 beta electrons
       nuclear repulsion energy       162.0776593957 Hartrees.
 IExCor=1009 DFT=T Ex=PBE Corr=PBE ExCW=0 ScaHFX=  0.000000
 ScaDFX=  1.000000  1.000000  1.000000  1.000000
 IRadAn=      0 IRanWt=     -1 IRanGd=            0 ICorTp=0
 NAtoms=    9 NActive=    9 NUniq=    9 SFac= 1.00D+00 NAtFMM=   60 Big=F
 Leave Link  301 at Wed Feb 25 21:26:23 2004, MaxMem=   56000000 cpu:       0.2
 (Enter /usr/local/apps/g03b05/g03/l302.exe)
 NPDir=0 NMtPBC=     1 NCelOv=     1 NCel=       1 NClECP=     1 NCelD=      1
         NCelK=      1 NCelE2=     1 NClLst=     1 CellRange=     0.0.
 One-electron integrals computed using PRISM.
 NBasis=    83 RedAO= T  NBF=    63    20
 NBsUse=    83 1.00D-06 NBFU=    63    20
 Precomputing XC quadrature grid using
 IXCGrd= 2 IRadAn=           0 IRanWt=          -1 IRanGd=           0.
 NRdTot=     555 NPtTot=       69982 NUsed=       73904 NTot=       73936
 NSgBfM=    83    83    83    83.
 Leave Link  302 at Wed Feb 25 21:26:24 2004, MaxMem=   56000000 cpu:       0.6
 (Enter /usr/local/apps/g03b05/g03/l303.exe)
 DipDrv:  MaxL=1.
 Leave Link  303 at Wed Feb 25 21:26:24 2004, MaxMem=   56000000 cpu:       0.0
 (Enter /usr/local/apps/g03b05/g03/l401.exe)
 Initial guess read from the read-write file:
 Guess basis will be translated and rotated to current coordinates.
 Initial guess orbital symmetries:
       Occupied  (A') (A') (A') (A') (A') (A') (A') (A') (A') (A')
                 (A') (A') (A") (A') (A') (A') (A") (A")
       Virtual   (A") (A") (A') (A') (A') (A') (A') (A') (A') (A')
                 (A') (A') (A") (A') (A") (A') (A') (A") (A') (A')
                 (A") (A') (A") (A') (A') (A') (A') (A') (A') (A')
                 (A') (A') (A") (A') (A") (A") (A') (A') (A") (A")
                 (A') (A') (A') (A') (A') (A') (A") (A") (A') (A')
                 (A") (A") (A') (A") (A') (A') (A') (A') (A') (A')
                 (A') (A') (A') (A') (A')
 The electronic state of the initial guess is 1-A'.
 Generating alternative initial guess.
 Harris functional with IExCor= 1009 diagonalized for initial guess.
 ExpMin= 1.61D-01 ExpMax= 4.17D+03 ExpMxC= 6.27D+02 IAcc=1 IRadAn=         1 AccDes= 1.00D-06
 HarFok:  IExCor=1009 AccDes= 1.00D-06 IRadAn=         1 IDoV=1
 ScaDFX=  1.000000  1.000000  1.000000  1.000000
 Harris En= -226.059967972893    
 Leave Link  401 at Wed Feb 25 21:26:25 2004, MaxMem=   56000000 cpu:       0.9
 (Enter /usr/local/apps/g03b05/g03/l502.exe)
 Closed shell SCF:
 Requested convergence on RMS density matrix=1.00D-08 within 128 cycles.
 Requested convergence on MAX density matrix=1.00D-06.
 Requested convergence on             energy=1.00D-06.
 No special actions if energy rises.
 Using DIIS extrapolation, IDIIS=  1040.
 Integral symmetry usage will be decided dynamically.
        73903 words used for storage of precomputed grid.
 Keep R1 integrals in memory in canonical form, NReq=     7310316.
 IEnd=    116151 IEndB=    116151 NGot=  56000000 MDV=  49829607
 LenX=  49829607
 Symmetry not used in FoFDir.
 MinBra= 0 MaxBra= 2 Meth= 1.
 IRaf=       0 NMat=   1 IRICut=       1 DoRegI=T DoRafI=F ISym2E= 0 JSym2E=0.
 Integral accuracy reduced to 1.0D-05 until final iterations.

 Cycle   1  Pass 0  IDiag  1:
 E= -225.928576257375    
 DIIS: error= 2.73D-03 at cycle   1 NSaved=   1.
 NSaved= 1 IEnMin= 1 EnMin= -225.928576257375     IErMin= 1 ErrMin= 2.73D-03
 ErrMax= 2.73D-03 EMaxC= 1.00D-01 BMatC= 8.82D-04 BMatP= 8.82D-04
 IDIUse=3 WtCom= 9.73D-01 WtEn= 2.73D-02
 Coeff-Com:  0.100D+01
 Coeff-En:   0.100D+01
 Coeff:      0.100D+01
 Gap=     0.206 Goal=   None    Shift=    0.000
 GapD=    0.206 DampG=1.000 DampE=1.000 DampFc=1.0000 IDamp=-1.
 RMSDP=8.85D-04 MaxDP=1.74D-02              OVMax= 1.21D-02

 Cycle   2  Pass 0  IDiag  1:
 E= -225.929394897085     Delta-E=       -0.000818639709 Rises=F Damp=F
 DIIS: error= 1.91D-03 at cycle   2 NSaved=   2.
 NSaved= 2 IEnMin= 2 EnMin= -225.929394897085     IErMin= 2 ErrMin= 1.91D-03
 ErrMax= 1.91D-03 EMaxC= 1.00D-01 BMatC= 3.78D-04 BMatP= 8.82D-04
 IDIUse=3 WtCom= 9.81D-01 WtEn= 1.91D-02
 Coeff-Com:  0.369D+00 0.631D+00
 Coeff-En:   0.000D+00 0.100D+01
 Coeff:      0.362D+00 0.638D+00
 Gap=     0.205 Goal=   None    Shift=    0.000
 RMSDP=3.58D-04 MaxDP=6.16D-03 DE=-8.19D-04 OVMax= 6.85D-03

 Cycle   3  Pass 0  IDiag  1:
 E= -225.929625679362     Delta-E=       -0.000230782277 Rises=F Damp=F
 DIIS: error= 1.02D-03 at cycle   3 NSaved=   3.
 NSaved= 3 IEnMin= 3 EnMin= -225.929625679362     IErMin= 3 ErrMin= 1.02D-03
 ErrMax= 1.02D-03 EMaxC= 1.00D-01 BMatC= 1.51D-04 BMatP= 3.78D-04
 IDIUse=3 WtCom= 9.90D-01 WtEn= 1.02D-02
 Coeff-Com:  0.818D-01 0.388D+00 0.530D+00
 Coeff-En:   0.000D+00 0.284D+00 0.716D+00
 Coeff:      0.810D-01 0.387D+00 0.532D+00
 Gap=     0.206 Goal=   None    Shift=    0.000
 RMSDP=1.82D-04 MaxDP=3.71D-03 DE=-2.31D-04 OVMax= 5.92D-03

 Cycle   4  Pass 0  IDiag  1:
 E= -225.929726188590     Delta-E=       -0.000100509228 Rises=F Damp=F
 DIIS: error= 7.50D-04 at cycle   4 NSaved=   4.
 NSaved= 4 IEnMin= 4 EnMin= -225.929726188590     IErMin= 4 ErrMin= 7.50D-04
 ErrMax= 7.50D-04 EMaxC= 1.00D-01 BMatC= 4.04D-05 BMatP= 1.51D-04
 IDIUse=3 WtCom= 9.92D-01 WtEn= 7.50D-03
 Coeff-Com:  0.220D-01 0.218D+00 0.389D+00 0.371D+00
 Coeff-En:   0.000D+00 0.000D+00 0.214D+00 0.786D+00
 Coeff:      0.218D-01 0.216D+00 0.387D+00 0.374D+00
 Gap=     0.205 Goal=   None    Shift=    0.000
 RMSDP=8.43D-05 MaxDP=1.26D-03 DE=-1.01D-04 OVMax= 3.13D-03

 Cycle   5  Pass 0  IDiag  1:
 E= -225.929763646630     Delta-E=       -0.000037458040 Rises=F Damp=F
 DIIS: error= 9.98D-05 at cycle   5 NSaved=   5.
 NSaved= 5 IEnMin= 5 EnMin= -225.929763646630     IErMin= 5 ErrMin= 9.98D-05
 ErrMax= 9.98D-05 EMaxC= 1.00D-01 BMatC= 9.60D-07 BMatP= 4.04D-05
 IDIUse=1 WtCom= 1.00D+00 WtEn= 0.00D+00
 Coeff-Com:  0.292D-02 0.641D-01 0.129D+00 0.189D+00 0.615D+00
 Coeff:      0.292D-02 0.641D-01 0.129D+00 0.189D+00 0.615D+00
 Gap=     0.205 Goal=   None    Shift=    0.000
 RMSDP=1.59D-05 MaxDP=3.07D-04 DE=-3.75D-05 OVMax= 6.63D-04

 Cycle   6  Pass 0  IDiag  1:
 E= -225.929764504737     Delta-E=       -0.000000858107 Rises=F Damp=F
 DIIS: error= 3.94D-05 at cycle   6 NSaved=   6.
 NSaved= 6 IEnMin= 6 EnMin= -225.929764504737     IErMin= 6 ErrMin= 3.94D-05
 ErrMax= 3.94D-05 EMaxC= 1.00D-01 BMatC= 1.63D-07 BMatP= 9.60D-07
 IDIUse=1 WtCom= 1.00D+00 WtEn= 0.00D+00
 Coeff-Com:  0.860D-03 0.313D-01 0.661D-01 0.105D+00 0.403D+00 0.394D+00
 Coeff:      0.860D-03 0.313D-01 0.661D-01 0.105D+00 0.403D+00 0.394D+00
 Gap=     0.205 Goal=   None    Shift=    0.000
 RMSDP=5.03D-06 MaxDP=1.33D-04 DE=-8.58D-07 OVMax= 1.96D-04

 Initial convergence to 1.0D-05 achieved.  Increase integral accuracy.
 Cycle   7  Pass 1  IDiag  1:
 E= -225.929789893284     Delta-E=       -0.000025388547 Rises=F Damp=F
 DIIS: error= 9.63D-06 at cycle   1 NSaved=   1.
 NSaved= 1 IEnMin= 1 EnMin= -225.929789893284     IErMin= 1 ErrMin= 9.63D-06
 ErrMax= 9.63D-06 EMaxC= 1.00D-01 BMatC= 1.64D-08 BMatP= 1.64D-08
 IDIUse=1 WtCom= 1.00D+00 WtEn= 0.00D+00
 Coeff-Com:  0.100D+01
 Coeff:      0.100D+01
 Gap=     0.205 Goal=   None    Shift=    0.000
 RMSDP=5.03D-06 MaxDP=1.33D-04 DE=-2.54D-05 OVMax= 1.35D-04

 Cycle   8  Pass 1  IDiag  1:
 E= -225.929789869113     Delta-E=        0.000000024171 Rises=F Damp=F
 DIIS: error= 2.74D-05 at cycle   2 NSaved=   2.
 NSaved= 2 IEnMin= 1 EnMin= -225.929789893284     IErMin= 1 ErrMin= 9.63D-06
 ErrMax= 2.74D-05 EMaxC= 1.00D-01 BMatC= 4.25D-08 BMatP= 1.64D-08
 IDIUse=1 WtCom= 1.00D+00 WtEn= 0.00D+00
 Coeff-Com:  0.645D+00 0.355D+00
 Coeff:      0.645D+00 0.355D+00
 Gap=     0.205 Goal=   None    Shift=    0.000
 RMSDP=3.03D-06 MaxDP=5.95D-05 DE= 2.42D-08 OVMax= 1.15D-04

 Cycle   9  Pass 1  IDiag  1:
 E= -225.929789905621     Delta-E=       -0.000000036509 Rises=F Damp=F
 DIIS: error= 1.09D-05 at cycle   3 NSaved=   3.
 NSaved= 3 IEnMin= 3 EnMin= -225.929789905621     IErMin= 1 ErrMin= 9.63D-06
 ErrMax= 1.09D-05 EMaxC= 1.00D-01 BMatC= 5.52D-09 BMatP= 1.64D-08
 IDIUse=1 WtCom= 1.00D+00 WtEn= 0.00D+00
 Coeff-Com:  0.101D+00 0.256D+00 0.643D+00
 Coeff:      0.101D+00 0.256D+00 0.643D+00
 Gap=     0.205 Goal=   None    Shift=    0.000
 RMSDP=1.04D-06 MaxDP=2.65D-05 DE=-3.65D-08 OVMax= 3.96D-05

 Cycle  10  Pass 1  IDiag  1:
 E= -225.929789909923     Delta-E=       -0.000000004302 Rises=F Damp=F
 DIIS: error= 3.64D-06 at cycle   4 NSaved=   4.
 NSaved= 4 IEnMin= 4 EnMin= -225.929789909923     IErMin= 4 ErrMin= 3.64D-06
 ErrMax= 3.64D-06 EMaxC= 1.00D-01 BMatC= 1.19D-09 BMatP= 5.52D-09
 IDIUse=1 WtCom= 1.00D+00 WtEn= 0.00D+00
 Coeff-Com:  0.143D-01 0.144D+00 0.439D+00 0.403D+00
 Coeff:      0.143D-01 0.144D+00 0.439D+00 0.403D+00
 Gap=     0.205 Goal=   None    Shift=    0.000
 RMSDP=3.66D-07 MaxDP=8.24D-06 DE=-4.30D-09 OVMax= 1.40D-05

 Cycle  11  Pass 1  IDiag  1:
 E= -225.929789910962     Delta-E=       -0.000000001039 Rises=F Damp=F
 DIIS: error= 5.56D-07 at cycle   5 NSaved=   5.
 NSaved= 5 IEnMin= 5 EnMin= -225.929789910962     IErMin= 5 ErrMin= 5.56D-07
 ErrMax= 5.56D-07 EMaxC= 1.00D-01 BMatC= 3.07D-11 BMatP= 1.19D-09
 IDIUse=1 WtCom= 1.00D+00 WtEn= 0.00D+00
 Coeff-Com: -0.736D-04 0.553D-01 0.174D+00 0.213D+00 0.558D+00
 Coeff:     -0.736D-04 0.553D-01 0.174D+00 0.213D+00 0.558D+00
 Gap=     0.205 Goal=   None    Shift=    0.000
 RMSDP=6.92D-08 MaxDP=6.81D-07 DE=-1.04D-09 OVMax= 1.36D-06

 Cycle  12  Pass 1  IDiag  1:
 E= -225.929789910991     Delta-E=       -0.000000000029 Rises=F Damp=F
 DIIS: error= 9.23D-08 at cycle   6 NSaved=   6.
 NSaved= 6 IEnMin= 6 EnMin= -225.929789910991     IErMin= 6 ErrMin= 9.23D-08
 ErrMax= 9.23D-08 EMaxC= 1.00D-01 BMatC= 1.02D-12 BMatP= 3.07D-11
 IDIUse=1 WtCom= 1.00D+00 WtEn= 0.00D+00
 Coeff-Com: -0.596D-03 0.227D-01 0.703D-01 0.941D-01 0.277D+00 0.537D+00
 Coeff:     -0.596D-03 0.227D-01 0.703D-01 0.941D-01 0.277D+00 0.537D+00
 Gap=     0.205 Goal=   None    Shift=    0.000
 RMSDP=1.53D-08 MaxDP=1.91D-07 DE=-2.90D-11 OVMax= 2.82D-07

 Cycle  13  Pass 1  IDiag  1:
 E= -225.929789910991     Delta-E=        0.000000000000 Rises=F Damp=F
 DIIS: error= 3.15D-08 at cycle   7 NSaved=   7.
 NSaved= 7 IEnMin= 7 EnMin= -225.929789910991     IErMin= 7 ErrMin= 3.15D-08
 ErrMax= 3.15D-08 EMaxC= 1.00D-01 BMatC= 6.63D-14 BMatP= 1.02D-12
 IDIUse=1 WtCom= 1.00D+00 WtEn= 0.00D+00
 Coeff-Com: -0.172D-03 0.631D-02 0.185D-01 0.271D-01 0.818D-01 0.254D+00
 Coeff-Com:  0.613D+00
 Coeff:     -0.172D-03 0.631D-02 0.185D-01 0.271D-01 0.818D-01 0.254D+00
 Coeff:      0.613D+00
 Gap=     0.205 Goal=   None    Shift=    0.000
 RMSDP=4.75D-09 MaxDP=8.96D-08 DE=-5.68D-14 OVMax= 2.19D-07

 SCF Done:  E(RPBE-PBE) =  -225.929789911     A.U. after   13 cycles
             Convg  =    0.4754D-08             -V/T =  2.0098
             S**2   =   0.0000
 KE= 2.237353712543D+02 PE=-8.495791036739D+02 EE= 2.378362831129D+02
 Leave Link  502 at Wed Feb 25 21:26:51 2004, MaxMem=   56000000 cpu:      25.0
 (Enter /usr/local/apps/g03b05/g03/l701.exe)
 Compute integral first derivatives.
 ... and contract with generalized density number  0.
 Leave Link  701 at Wed Feb 25 21:26:52 2004, MaxMem=   56000000 cpu:       0.5
 (Enter /usr/local/apps/g03b05/g03/l702.exe)
 L702 exits ... SP integral derivatives will be done elsewhere.
 Leave Link  702 at Wed Feb 25 21:26:52 2004, MaxMem=   56000000 cpu:       0.0
 (Enter /usr/local/apps/g03b05/g03/l703.exe)
 Compute integral first derivatives, UseDBF=F.
 Integral derivatives from FoFDir, PRISM(SPDF).
 Calling FoFCou, ICntrl=  2527 FMM=F ISym2X=1 I1Cent= 0 ISCF1= 0.
 FoFCou: FMM=F IPFlag=           0 FMFlag=           0 FMFlg1=           0
 NFxFlg=           0 DoJE=F BraDBF=F KetDBF=F FulRan=T.
 Petite list used in FoFCou.
 Leave Link  703 at Wed Feb 25 21:27:06 2004, MaxMem=   56000000 cpu:      13.8
 (Enter /usr/local/apps/g03b05/g03/l716.exe)
 Dipole        = 7.90422547D-01 3.75590667D-01 0.00000000D+00
 ***** Axes restored to original set *****
 -------------------------------------------------------------------
 Center     Atomic                   Forces (Hartrees/Bohr)
 Number     Number              X              Y              Z
 -------------------------------------------------------------------
    1          1          -0.000552106    0.000168541    0.000000000
    2          6           0.002384038    0.000303476    0.000000000
    3          1           0.000176228    0.000317816    0.000000000
    4          6          -0.006001708    0.001054553    0.000000000
    5          1          -0.000286398    0.000863218    0.000000000
    6          6           0.008269617   -0.006306141    0.000000000
    7          7          -0.007001293    0.005059606    0.000000000
    8          1          -0.000202449    0.000191255    0.000000000
    9          7           0.003214071   -0.001652323    0.000000000
 -------------------------------------------------------------------
 Cartesian Forces:  Max     0.008269617 RMS     0.002982110
 Leave Link  716 at Wed Feb 25 21:27:06 2004, MaxMem=   56000000 cpu:       0.0
 (Enter /usr/local/apps/g03b05/g03/l103.exe)

 GradGradGradGradGradGradGradGradGradGradGradGradGradGradGradGradGradGrad
 Berny optimization.
 Internal  Forces:  Max     0.005455454 RMS     0.001423316
 Search for a local minimum.
 Step number   2 out of a maximum of  48
 All quantities printed in internal units (Hartrees-Bohrs-Radians)
 Update second derivatives using D2CorX and points  1  2
 Trust test= 1.00D+00 RLast= 1.32D-01 DXMaxT set to 3.95D-01
     Eigenvalues ---    0.02140   0.02276   0.02343   0.02397   0.02534
     Eigenvalues ---    0.02553   0.15973   0.16000   0.16000   0.16005
     Eigenvalues ---    0.21817   0.22621   0.37150   0.37277   0.37479
     Eigenvalues ---    0.41014   0.48693   0.50225   0.54905   0.55797
     Eigenvalues ---    0.611981000.000001000.000001000.000001000.00000
     Eigenvalues --- 1000.000001000.000001000.000001000.000001000.00000
     Eigenvalues --- 1000.000001000.000001000.000001000.000001000.00000
     Eigenvalues --- 1000.000001000.000001000.00000
 RFO step:  Lambda=-1.86987537D-04.
 Quartic linear search produced a step of  0.04979.
 Iteration  1 RMS(Cart)=  0.00281539 RMS(Int)=  0.00001342
 Iteration  2 RMS(Cart)=  0.00001632 RMS(Int)=  0.00000534
 Iteration  3 RMS(Cart)=  0.00000000 RMS(Int)=  0.00000534
 Variable       Old X    -DE/DX   Delta X   Delta X   Delta X     New X
                                 (Linear)    (Quad)   (Total)
    R1        2.05914  -0.00044   0.00185  -0.00218  -0.00033   2.05881
    R2        2.62435   0.00004   0.00243  -0.00195   0.00047   2.62482
    R3        2.58120  -0.00030   0.00231  -0.00183   0.00048   2.58168
    R4        2.05651  -0.00017   0.00178  -0.00136   0.00041   2.05693
    R5        2.69437  -0.00435   0.00120  -0.01153  -0.01034   2.68403
    R6        2.06154  -0.00044   0.00187  -0.00218  -0.00031   2.06123
    R7        2.52488   0.00546   0.00317   0.00729   0.01046   2.53534
    R8        2.55246   0.00255   0.00196   0.00405   0.00602   2.55848
    R9        1.91996   0.00020   0.00220  -0.00072   0.00147   1.92144
    A1        2.30075   0.00073   0.00014   0.00530   0.00544   2.30619
    A2        2.12919  -0.00005   0.00025   0.00012   0.00037   2.12956
    A3        1.85324  -0.00068  -0.00039  -0.00542  -0.00581   1.84743
    A4        2.22509  -0.00115  -0.00026  -0.00446  -0.00472   2.22037
    A5        1.81771   0.00162   0.00024   0.00455   0.00478   1.82249
    A6        2.24038  -0.00047   0.00002  -0.00009  -0.00006   2.24032
    A7        2.23578   0.00034  -0.00012   0.00318   0.00306   2.23884
    A8        1.95682   0.00095   0.00032   0.00422   0.00454   1.96136
    A9        2.09059  -0.00128  -0.00020  -0.00740  -0.00760   2.08299
   A10        1.81738  -0.00325  -0.00069  -0.01044  -0.01111   1.80627
   A11        1.97962   0.00137   0.00052   0.00708   0.00761   1.98723
   A12        2.22980  -0.00049  -0.00017  -0.00230  -0.00247   2.22733
   A13        2.07376  -0.00088  -0.00035  -0.00479  -0.00514   2.06862
    D1        0.00000   0.00000   0.00000   0.00000   0.00000   0.00000
    D2        3.14159   0.00000   0.00000   0.00000   0.00000   3.14159
    D3        3.14159   0.00000   0.00000   0.00000   0.00000   3.14159
    D4        0.00000   0.00000   0.00000   0.00000   0.00000   0.00000
    D5        3.14159   0.00000   0.00000   0.00000   0.00000   3.14159
    D6        0.00000   0.00000   0.00000   0.00000   0.00000   0.00000
    D7        0.00000   0.00000   0.00000   0.00000   0.00000   0.00000
    D8        3.14159   0.00000   0.00000   0.00000   0.00000   3.14159
    D9        3.14159   0.00000   0.00000   0.00000   0.00000   3.14159
   D10        0.00000   0.00000   0.00000   0.00000   0.00000   0.00000
   D11        0.00000   0.00000   0.00000   0.00000   0.00000   0.00000
   D12        3.14159   0.00000   0.00000   0.00000   0.00000   3.14159
   D13        0.00000   0.00000   0.00000   0.00000   0.00000   0.00000
   D14        3.14159   0.00000   0.00000   0.00000   0.00000   3.14159
   D15        0.00000   0.00000   0.00000   0.00000   0.00000   0.00000
   D16        3.14159   0.00000   0.00000   0.00000   0.00000   3.14159
         Item               Value     Threshold  Converged?
 Maximum Force            0.005455     0.000450     NO 
 RMS     Force            0.001423     0.000300     NO 
 Maximum Displacement     0.011311     0.001800     NO 
 RMS     Displacement     0.002818     0.001200     NO 
 Predicted change in Energy=-1.019153D-04
 GradGradGradGradGradGradGradGradGradGradGradGradGradGradGradGradGradGrad

 Leave Link  103 at Wed Feb 25 21:27:06 2004, MaxMem=   56000000 cpu:       0.1
 (Enter /usr/local/apps/g03b05/g03/l202.exe)
                          Input orientation:                          
 ---------------------------------------------------------------------
 Center     Atomic     Atomic              Coordinates (Angstroms)
 Number     Number      Type              X           Y           Z
 ---------------------------------------------------------------------
    1          1             0        2.118392    0.735908    0.000000
    2          6             0        1.116232    0.308552    0.000000
    3          1             0        1.267701   -1.909575    0.000000
    4          6             0        0.663102   -1.004452    0.000000
    5          1             0       -1.495045   -1.689164    0.000000
    6          6             0       -0.752614   -0.890073    0.000000
    7          7             0       -1.161823    0.387644    0.000000
    8          1             0       -0.052737    2.105636    0.000000
    9          7             0       -0.004368    1.090006    0.000000
 ---------------------------------------------------------------------
                    Distance matrix (angstroms):
                    1          2          3          4          5
     1  H    0.000000
     2  C    1.089476   0.000000
     3  H    2.778895   2.223293   0.000000
     4  C    2.268639   1.388995   1.088479   0.000000
     5  H    4.351770   3.287802   2.771524   2.264162   0.000000
     6  C    3.299469   2.220201   2.262976   1.420330   1.090757
     7  N    3.298652   2.279428   3.343622   2.295275   2.103371
     8  H    2.567091   2.143828   4.226757   3.191406   4.059650
     9  N    2.152091   1.366168   3.258166   2.198243   3.153713
                    6          7          8          9
     6  C    0.000000
     7  N    1.341646   0.000000
     8  H    3.076378   2.044888   0.000000
     9  N    2.116739   1.353889   1.016781   0.000000
 Stoichiometry    C3H4N2
 Framework group  CS[SG(C3H4N2)]
 Deg. of freedom    15
 Full point group                 CS      NOp   2
 Largest Abelian subgroup         CS      NOp   2
 Largest concise Abelian subgroup C1      NOp   1
                         Standard orientation:                         
 ---------------------------------------------------------------------
 Center     Atomic     Atomic              Coordinates (Angstroms)
 Number     Number      Type              X           Y           Z
 ---------------------------------------------------------------------
    1          1             0        2.122828    0.734354    0.000000
    2          6             0        1.120749    0.306807    0.000000
    3          1             0        1.272641   -1.911291    0.000000
    4          6             0        0.667869   -1.006284    0.000000
    5          1             0       -1.490147   -1.691407    0.000000
    6          6             0       -0.747869   -0.892175    0.000000
    7          7             0       -1.157322    0.385465    0.000000
    8          1             0       -0.048563    2.103668    0.000000
    9          7             0        0.000000    1.088047    0.000000
 ---------------------------------------------------------------------
 Rotational constants (GHZ):      9.5711752      9.2720992      4.7096319
 Leave Link  202 at Wed Feb 25 21:27:07 2004, MaxMem=   56000000 cpu:       0.3
 (Enter /usr/local/apps/g03b05/g03/l301.exe)
 Standard basis: 6-31G(d) (6D, 7F)
 There are    63 symmetry adapted basis functions of A'  symmetry.
 There are    20 symmetry adapted basis functions of A"  symmetry.
 Integral buffers will be    131072 words long.
 Raffenetti 2 integral format.
 Two-electron integral symmetry is turned on.
    83 basis functions,   156 primitive gaussians,    83 cartesian basis functions
    18 alpha electrons       18 beta electrons
       nuclear repulsion energy       161.9935473611 Hartrees.
 IExCor=1009 DFT=T Ex=PBE Corr=PBE ExCW=0 ScaHFX=  0.000000
 ScaDFX=  1.000000  1.000000  1.000000  1.000000
 IRadAn=      0 IRanWt=     -1 IRanGd=            0 ICorTp=0
 NAtoms=    9 NActive=    9 NUniq=    9 SFac= 1.00D+00 NAtFMM=   60 Big=F
 Leave Link  301 at Wed Feb 25 21:27:07 2004, MaxMem=   56000000 cpu:       0.1
 (Enter /usr/local/apps/g03b05/g03/l302.exe)
 NPDir=0 NMtPBC=     1 NCelOv=     1 NCel=       1 NClECP=     1 NCelD=      1
         NCelK=      1 NCelE2=     1 NClLst=     1 CellRange=     0.0.
 One-electron integrals computed using PRISM.
 NBasis=    83 RedAO= T  NBF=    63    20
 NBsUse=    83 1.00D-06 NBFU=    63    20
 Precomputing XC quadrature grid using
 IXCGrd= 2 IRadAn=           0 IRanWt=          -1 IRanGd=           0.
 NRdTot=     555 NPtTot=       69982 NUsed=       73904 NTot=       73936
 NSgBfM=    83    83    83    83.
 Leave Link  302 at Wed Feb 25 21:27:08 2004, MaxMem=   56000000 cpu:       0.6
 (Enter /usr/local/apps/g03b05/g03/l303.exe)
 DipDrv:  MaxL=1.
 Leave Link  303 at Wed Feb 25 21:27:08 2004, MaxMem=   56000000 cpu:       0.0
 (Enter /usr/local/apps/g03b05/g03/l401.exe)
 Initial guess read from the read-write file:
 Guess basis will be translated and rotated to current coordinates.
 Initial guess orbital symmetries:
       Occupied  (A') (A') (A') (A') (A') (A') (A') (A') (A') (A')
                 (A') (A') (A") (A') (A') (A') (A") (A")
       Virtual   (A") (A") (A') (A') (A') (A') (A') (A') (A') (A')
                 (A') (A') (A") (A') (A') (A") (A') (A") (A') (A')
                 (A") (A') (A') (A") (A') (A') (A') (A') (A') (A')
                 (A') (A') (A") (A') (A") (A") (A') (A') (A") (A")
                 (A') (A') (A') (A') (A') (A') (A") (A") (A') (A')
                 (A") (A") (A") (A') (A') (A') (A') (A') (A') (A')
                 (A') (A') (A') (A') (A')
 The electronic state of the initial guess is 1-A'.
 Leave Link  401 at Wed Feb 25 21:27:08 2004, MaxMem=   56000000 cpu:       0.2
 (Enter /usr/local/apps/g03b05/g03/l502.exe)
 Closed shell SCF:
 Requested convergence on RMS density matrix=1.00D-08 within 128 cycles.
 Requested convergence on MAX density matrix=1.00D-06.
 Requested convergence on             energy=1.00D-06.
 No special actions if energy rises.
 Using DIIS extrapolation, IDIIS=  1040.
 Integral symmetry usage will be decided dynamically.
        73903 words used for storage of precomputed grid.
 Keep R1 integrals in memory in canonical form, NReq=     7310316.
 IEnd=    116151 IEndB=    116151 NGot=  56000000 MDV=  49829607
 LenX=  49829607
 Symmetry not used in FoFDir.
 MinBra= 0 MaxBra= 2 Meth= 1.
 IRaf=       0 NMat=   1 IRICut=       1 DoRegI=T DoRafI=F ISym2E= 0 JSym2E=0.

 Cycle   1  Pass 1  IDiag  1:
 E= -225.929854694013    
 DIIS: error= 3.98D-04 at cycle   1 NSaved=   1.
 NSaved= 1 IEnMin= 1 EnMin= -225.929854694013     IErMin= 1 ErrMin= 3.98D-04
 ErrMax= 3.98D-04 EMaxC= 1.00D-01 BMatC= 2.97D-05 BMatP= 2.97D-05
 IDIUse=3 WtCom= 9.96D-01 WtEn= 3.98D-03
 Coeff-Com:  0.100D+01
 Coeff-En:   0.100D+01
 Coeff:      0.100D+01
 Gap=     0.204 Goal=   None    Shift=    0.000
 RMSDP=1.76D-04 MaxDP=3.86D-03              OVMax= 3.82D-03

 Cycle   2  Pass 1  IDiag  1:
 E= -225.929900196107     Delta-E=       -0.000045502094 Rises=F Damp=F
 DIIS: error= 3.21D-04 at cycle   2 NSaved=   2.
 NSaved= 2 IEnMin= 2 EnMin= -225.929900196107     IErMin= 2 ErrMin= 3.21D-04
 ErrMax= 3.21D-04 EMaxC= 1.00D-01 BMatC= 1.06D-05 BMatP= 2.97D-05
 IDIUse=3 WtCom= 9.97D-01 WtEn= 3.21D-03
 Coeff-Com:  0.313D+00 0.687D+00
 Coeff-En:   0.000D+00 0.100D+01
 Coeff:      0.312D+00 0.688D+00
 Gap=     0.204 Goal=   None    Shift=    0.000
 RMSDP=8.44D-05 MaxDP=1.64D-03 DE=-4.55D-05 OVMax= 3.61D-03

 Cycle   3  Pass 1  IDiag  1:
 E= -225.929885792609     Delta-E=        0.000014403498 Rises=F Damp=F
 DIIS: error= 5.56D-04 at cycle   3 NSaved=   3.
 NSaved= 3 IEnMin= 2 EnMin= -225.929900196107     IErMin= 2 ErrMin= 3.21D-04
 ErrMax= 5.56D-04 EMaxC= 1.00D-01 BMatC= 2.39D-05 BMatP= 1.06D-05
 IDIUse=3 WtCom= 2.98D-01 WtEn= 7.02D-01
 Coeff-Com:  0.317D-01 0.589D+00 0.380D+00
 Coeff-En:   0.000D+00 0.657D+00 0.343D+00
 Coeff:      0.943D-02 0.636D+00 0.354D+00
 Gap=     0.204 Goal=   None    Shift=    0.000
 RMSDP=5.33D-05 MaxDP=1.01D-03 DE= 1.44D-05 OVMax= 2.10D-03

 Cycle   4  Pass 1  IDiag  1:
 E= -225.929909508395     Delta-E=       -0.000023715786 Rises=F Damp=F
 DIIS: error= 4.58D-05 at cycle   4 NSaved=   4.
 NSaved= 4 IEnMin= 4 EnMin= -225.929909508395     IErMin= 4 ErrMin= 4.58D-05
 ErrMax= 4.58D-05 EMaxC= 1.00D-01 BMatC= 3.51D-07 BMatP= 1.06D-05
 IDIUse=1 WtCom= 1.00D+00 WtEn= 0.00D+00
 Coeff-Com:  0.511D-02 0.278D+00 0.131D+00 0.586D+00
 Coeff:      0.511D-02 0.278D+00 0.131D+00 0.586D+00
 Gap=     0.204 Goal=   None    Shift=    0.000
 RMSDP=8.00D-06 MaxDP=1.81D-04 DE=-2.37D-05 OVMax= 2.53D-04

 Cycle   5  Pass 1  IDiag  1:
 E= -225.929909735174     Delta-E=       -0.000000226779 Rises=F Damp=F
 DIIS: error= 3.01D-05 at cycle   5 NSaved=   5.
 NSaved= 5 IEnMin= 5 EnMin= -225.929909735174     IErMin= 5 ErrMin= 3.01D-05
 ErrMax= 3.01D-05 EMaxC= 1.00D-01 BMatC= 8.96D-08 BMatP= 3.51D-07
 IDIUse=1 WtCom= 1.00D+00 WtEn= 0.00D+00
 Coeff-Com:  0.585D-03 0.149D+00 0.658D-01 0.417D+00 0.367D+00
 Coeff:      0.585D-03 0.149D+00 0.658D-01 0.417D+00 0.367D+00
 Gap=     0.204 Goal=   None    Shift=    0.000
 RMSDP=3.53D-06 MaxDP=5.55D-05 DE=-2.27D-07 OVMax= 1.50D-04

 Cycle   6  Pass 1  IDiag  1:
 E= -225.929909815607     Delta-E=       -0.000000080433 Rises=F Damp=F
 DIIS: error= 6.63D-06 at cycle   6 NSaved=   6.
 NSaved= 6 IEnMin= 6 EnMin= -225.929909815607     IErMin= 6 ErrMin= 6.63D-06
 ErrMax= 6.63D-06 EMaxC= 1.00D-01 BMatC= 3.00D-09 BMatP= 8.96D-08
 IDIUse=1 WtCom= 1.00D+00 WtEn= 0.00D+00
 Coeff-Com:  0.310D-03 0.691D-01 0.304D-01 0.208D+00 0.227D+00 0.465D+00
 Coeff:      0.310D-03 0.691D-01 0.304D-01 0.208D+00 0.227D+00 0.465D+00
 Gap=     0.204 Goal=   None    Shift=    0.000
 RMSDP=9.52D-07 MaxDP=1.28D-05 DE=-8.04D-08 OVMax= 3.31D-05

 Cycle   7  Pass 1  IDiag  1:
 E= -225.929909818274     Delta-E=       -0.000000002667 Rises=F Damp=F
 DIIS: error= 2.26D-06 at cycle   7 NSaved=   7.
 NSaved= 7 IEnMin= 7 EnMin= -225.929909818274     IErMin= 7 ErrMin= 2.26D-06
 ErrMax= 2.26D-06 EMaxC= 1.00D-01 BMatC= 4.77D-10 BMatP= 3.00D-09
 IDIUse=1 WtCom= 1.00D+00 WtEn= 0.00D+00
 Coeff-Com:  0.347D-04 0.184D-01 0.832D-02 0.598D-01 0.846D-01 0.317D+00
 Coeff-Com:  0.512D+00
 Coeff:      0.347D-04 0.184D-01 0.832D-02 0.598D-01 0.846D-01 0.317D+00
 Coeff:      0.512D+00
 Gap=     0.204 Goal=   None    Shift=    0.000
 RMSDP=3.00D-07 MaxDP=5.92D-06 DE=-2.67D-09 OVMax= 1.17D-05

 Cycle   8  Pass 1  IDiag  1:
 E= -225.929909818776     Delta-E=       -0.000000000502 Rises=F Damp=F
 DIIS: error= 3.50D-07 at cycle   8 NSaved=   8.
 NSaved= 8 IEnMin= 8 EnMin= -225.929909818776     IErMin= 8 ErrMin= 3.50D-07
 ErrMax= 3.50D-07 EMaxC= 1.00D-01 BMatC= 1.59D-11 BMatP= 4.77D-10
 IDIUse=1 WtCom= 1.00D+00 WtEn= 0.00D+00
 Coeff-Com: -0.192D-05 0.697D-02 0.315D-02 0.234D-01 0.355D-01 0.153D+00
 Coeff-Com:  0.276D+00 0.501D+00
 Coeff:     -0.192D-05 0.697D-02 0.315D-02 0.234D-01 0.355D-01 0.153D+00
 Coeff:      0.276D+00 0.501D+00
 Gap=     0.204 Goal=   None    Shift=    0.000
 RMSDP=5.56D-08 MaxDP=6.67D-07 DE=-5.02D-10 OVMax= 1.14D-06

 Cycle   9  Pass 1  IDiag  1:
 E= -225.929909818793     Delta-E=       -0.000000000016 Rises=F Damp=F
 DIIS: error= 5.78D-08 at cycle   9 NSaved=   9.
 NSaved= 9 IEnMin= 9 EnMin= -225.929909818793     IErMin= 9 ErrMin= 5.78D-08
 ErrMax= 5.78D-08 EMaxC= 1.00D-01 BMatC= 4.52D-13 BMatP= 1.59D-11
 IDIUse=1 WtCom= 1.00D+00 WtEn= 0.00D+00
 Coeff-Com: -0.184D-05 0.138D-02 0.603D-03 0.483D-02 0.736D-02 0.384D-01
 Coeff-Com:  0.709D-01 0.194D+00 0.682D+00
 Coeff:     -0.184D-05 0.138D-02 0.603D-03 0.483D-02 0.736D-02 0.384D-01
 Coeff:      0.709D-01 0.194D+00 0.682D+00
 Gap=     0.204 Goal=   None    Shift=    0.000
 RMSDP=1.18D-08 MaxDP=2.00D-07 DE=-1.63D-11 OVMax= 3.20D-07

 Cycle  10  Pass 1  IDiag  1:
 E= -225.929909818794     Delta-E=       -0.000000000001 Rises=F Damp=F
 DIIS: error= 1.90D-08 at cycle  10 NSaved=  10.
 NSaved=10 IEnMin=10 EnMin= -225.929909818794     IErMin=10 ErrMin= 1.90D-08
 ErrMax= 1.90D-08 EMaxC= 1.00D-01 BMatC= 2.46D-14 BMatP= 4.52D-13
 IDIUse=1 WtCom= 1.00D+00 WtEn= 0.00D+00
 Coeff-Com: -0.156D-05 0.578D-03 0.248D-03 0.204D-02 0.309D-02 0.167D-01
 Coeff-Com:  0.311D-01 0.898D-01 0.355D+00 0.501D+00
 Coeff:     -0.156D-05 0.578D-03 0.248D-03 0.204D-02 0.309D-02 0.167D-01
 Coeff:      0.311D-01 0.898D-01 0.355D+00 0.501D+00
 Gap=     0.204 Goal=   None    Shift=    0.000
 RMSDP=2.29D-09 MaxDP=5.29D-08 DE=-1.48D-12 OVMax= 9.25D-08

 SCF Done:  E(RPBE-PBE) =  -225.929909819     A.U. after   10 cycles
             Convg  =    0.2286D-08             -V/T =  2.0098
             S**2   =   0.0000
 KE= 2.237279027318D+02 PE=-8.494071254844D+02 EE= 2.377557655727D+02
 Leave Link  502 at Wed Feb 25 21:27:34 2004, MaxMem=   56000000 cpu:      25.8
 (Enter /usr/local/apps/g03b05/g03/l701.exe)
 Compute integral first derivatives.
 ... and contract with generalized density number  0.
 Leave Link  701 at Wed Feb 25 21:27:35 2004, MaxMem=   56000000 cpu:       0.5
 (Enter /usr/local/apps/g03b05/g03/l702.exe)
 L702 exits ... SP integral derivatives will be done elsewhere.
 Leave Link  702 at Wed Feb 25 21:27:35 2004, MaxMem=   56000000 cpu:       0.0
 (Enter /usr/local/apps/g03b05/g03/l703.exe)
 Compute integral first derivatives, UseDBF=F.
 Integral derivatives from FoFDir, PRISM(SPDF).
 Calling FoFCou, ICntrl=  2527 FMM=F ISym2X=1 I1Cent= 0 ISCF1= 0.
 FoFCou: FMM=F IPFlag=           0 FMFlag=           0 FMFlg1=           0
 NFxFlg=           0 DoJE=F BraDBF=F KetDBF=F FulRan=T.
 Petite list used in FoFCou.
 Leave Link  703 at Wed Feb 25 21:27:49 2004, MaxMem=   56000000 cpu:      13.9
 (Enter /usr/local/apps/g03b05/g03/l716.exe)
 Dipole        = 7.98573392D-01 3.73612964D-01 0.00000000D+00
 ***** Axes restored to original set *****
 -------------------------------------------------------------------
 Center     Atomic                   Forces (Hartrees/Bohr)
 Number     Number              X              Y              Z
 -------------------------------------------------------------------
    1          1          -0.000517907    0.000046601    0.000000000
    2          6          -0.000485159    0.000739938    0.000000000
    3          1          -0.000092112    0.000206503    0.000000000
    4          6          -0.002309703   -0.000284568    0.000000000
    5          1          -0.000034897    0.000396401    0.000000000
    6          6           0.002406401   -0.003151692    0.000000000
    7          7          -0.000505502    0.001302902    0.000000000
    8          1           0.000029530   -0.000288138    0.000000000
    9          7           0.001509350    0.001032055    0.000000000
 -------------------------------------------------------------------
 Cartesian Forces:  Max     0.003151692 RMS     0.001014390
 Leave Link  716 at Wed Feb 25 21:27:49 2004, MaxMem=   56000000 cpu:       0.0
 (Enter /usr/local/apps/g03b05/g03/l103.exe)

 GradGradGradGradGradGradGradGradGradGradGradGradGradGradGradGradGradGrad
 Berny optimization.
 Internal  Forces:  Max     0.002111587 RMS     0.000590761
 Search for a local minimum.
 Step number   3 out of a maximum of  48
 All quantities printed in internal units (Hartrees-Bohrs-Radians)
 Update second derivatives using D2CorX and points  1  2  3
 Trust test= 1.18D+00 RLast= 2.58D-02 DXMaxT set to 3.95D-01
     Eigenvalues ---    0.02138   0.02275   0.02342   0.02397   0.02534
     Eigenvalues ---    0.02552   0.14819   0.16000   0.16000   0.16025
     Eigenvalues ---    0.21758   0.28011   0.31190   0.37169   0.37300
     Eigenvalues ---    0.38028   0.48212   0.49752   0.52010   0.57020
     Eigenvalues ---    0.606861000.000001000.000001000.000001000.00000
     Eigenvalues --- 1000.000001000.000001000.000001000.000001000.00000
     Eigenvalues --- 1000.000001000.000001000.000001000.000001000.00000
     Eigenvalues --- 1000.000001000.000001000.00000
 RFO step:  Lambda=-3.59533325D-05.
 Quartic linear search produced a step of  0.20009.
 Iteration  1 RMS(Cart)=  0.00176663 RMS(Int)=  0.00000181
 Iteration  2 RMS(Cart)=  0.00000204 RMS(Int)=  0.00000058
 Iteration  3 RMS(Cart)=  0.00000000 RMS(Int)=  0.00000058
 Variable       Old X    -DE/DX   Delta X   Delta X   Delta X     New X
                                 (Linear)    (Quad)   (Total)
    R1        2.05881  -0.00046  -0.00007  -0.00114  -0.00121   2.05761
    R2        2.62482   0.00090   0.00009   0.00217   0.00226   2.62708
    R3        2.58168  -0.00108   0.00010  -0.00201  -0.00191   2.57977
    R4        2.05693  -0.00022   0.00008  -0.00042  -0.00033   2.05659
    R5        2.68403  -0.00211  -0.00207  -0.00531  -0.00738   2.67665
    R6        2.06123  -0.00027  -0.00006  -0.00052  -0.00059   2.06065
    R7        2.53534   0.00200   0.00209   0.00401   0.00610   2.54145
    R8        2.55848   0.00052   0.00120   0.00135   0.00256   2.56104
    R9        1.92144  -0.00029   0.00030  -0.00038  -0.00009   1.92135
    A1        2.30619   0.00000   0.00109   0.00088   0.00197   2.30816
    A2        2.12956  -0.00053   0.00007  -0.00289  -0.00281   2.12675
    A3        1.84743   0.00053  -0.00116   0.00201   0.00084   1.84828
    A4        2.22037  -0.00025  -0.00094  -0.00099  -0.00193   2.21845
    A5        1.82249   0.00039   0.00096   0.00131   0.00226   1.82475
    A6        2.24032  -0.00015  -0.00001  -0.00032  -0.00034   2.23999
    A7        2.23884   0.00055   0.00061   0.00325   0.00387   2.24270
    A8        1.96136  -0.00052   0.00091  -0.00240  -0.00149   1.95986
    A9        2.08299  -0.00003  -0.00152  -0.00085  -0.00237   2.08062
   A10        1.80627   0.00027  -0.00222   0.00279   0.00057   1.80683
   A11        1.98723  -0.00068   0.00152  -0.00370  -0.00218   1.98505
   A12        2.22733   0.00033  -0.00049   0.00179   0.00130   2.22863
   A13        2.06862   0.00034  -0.00103   0.00191   0.00088   2.06951
    D1        0.00000   0.00000   0.00000   0.00000   0.00000   0.00000
    D2        3.14159   0.00000   0.00000   0.00000   0.00000   3.14159
    D3        3.14159   0.00000   0.00000   0.00000   0.00000   3.14159
    D4        0.00000   0.00000   0.00000   0.00000   0.00000   0.00000
    D5        3.14159   0.00000   0.00000   0.00000   0.00000   3.14159
    D6        0.00000   0.00000   0.00000   0.00000   0.00000   0.00000
    D7        0.00000   0.00000   0.00000   0.00000   0.00000   0.00000
    D8        3.14159   0.00000   0.00000   0.00000   0.00000   3.14159
    D9        3.14159   0.00000   0.00000   0.00000   0.00000   3.14159
   D10        0.00000   0.00000   0.00000   0.00000   0.00000   0.00000
   D11        0.00000   0.00000   0.00000   0.00000   0.00000   0.00000
   D12        3.14159   0.00000   0.00000   0.00000   0.00000   3.14159
   D13        0.00000   0.00000   0.00000   0.00000   0.00000   0.00000
   D14        3.14159   0.00000   0.00000   0.00000   0.00000   3.14159
   D15        0.00000   0.00000   0.00000   0.00000   0.00000   0.00000
   D16        3.14159   0.00000   0.00000   0.00000   0.00000   3.14159
         Item               Value     Threshold  Converged?
 Maximum Force            0.002112     0.000450     NO 
 RMS     Force            0.000591     0.000300     NO 
 Maximum Displacement     0.005697     0.001800     NO 
 RMS     Displacement     0.001767     0.001200     NO 
 Predicted change in Energy=-2.133654D-05
 GradGradGradGradGradGradGradGradGradGradGradGradGradGradGradGradGradGrad

[...]
     15 -0.120084D-01  0.223176D-01 -0.244335D-01 -0.452136D-01  0.696470D-01
     16 -0.282671D-02 -0.355732D-02 -0.102710D-01  0.249525D-01 -0.146814D-01
     17  0.826701D-02 -0.431237D-02  0.239881D-01 -0.533015D-01  0.293135D-01
     18 -0.544030D-02  0.786969D-02 -0.137171D-01  0.283491D-01 -0.146320D-01
     19 -0.137141D-01  0.148864D-01  0.210604D-02  0.101018D-01 -0.122079D-01
     20  0.329736D-01 -0.575162D-01 -0.617709D-02  0.386706D-03  0.579039D-02
     21 -0.167268D-01  0.282341D-01  0.794379D-02 -0.704782D-02 -0.895964D-03
     22 -0.162468D-01  0.292821D-01 -0.176669D-02  0.666112D-02 -0.489442D-02
     23  0.000000D+00  0.000000D+00  0.000000D+00  0.000000D+00  0.000000D+00
     24  0.000000D+00  0.000000D+00  0.000000D+00  0.000000D+00  0.000000D+00
     25  0.000000D+00  0.000000D+00  0.000000D+00  0.000000D+00  0.000000D+00
     26  0.000000D+00  0.000000D+00  0.000000D+00  0.000000D+00  0.000000D+00
     27  0.000000D+00  0.000000D+00  0.000000D+00  0.000000D+00  0.000000D+00
     28  0.000000D+00  0.000000D+00  0.000000D+00  0.000000D+00  0.000000D+00
     29  0.000000D+00  0.000000D+00  0.000000D+00  0.000000D+00  0.000000D+00
     30  0.000000D+00  0.000000D+00  0.000000D+00  0.000000D+00  0.000000D+00
     31  0.000000D+00  0.000000D+00  0.000000D+00  0.000000D+00  0.000000D+00
     32  0.000000D+00  0.000000D+00  0.000000D+00  0.000000D+00  0.000000D+00
     33  0.000000D+00  0.000000D+00  0.000000D+00  0.000000D+00  0.000000D+00
     34  0.000000D+00  0.000000D+00  0.000000D+00  0.000000D+00  0.000000D+00
     35  0.000000D+00  0.000000D+00  0.000000D+00  0.000000D+00  0.000000D+00
     36  0.000000D+00  0.000000D+00  0.000000D+00  0.000000D+00  0.000000D+00
     37  0.000000D+00  0.000000D+00  0.000000D+00  0.000000D+00  0.000000D+00
     38  0.000000D+00  0.000000D+00  0.000000D+00  0.000000D+00  0.000000D+00
               16            17            18            19            20
     16  0.778065D-01
     17 -0.508825D-01  0.112061D+00
     18 -0.269241D-01 -0.611783D-01  0.881023D-01
     19  0.342413D-01 -0.761039D-01  0.418625D-01  0.135927D+00
     20 -0.475401D-02  0.216570D-01 -0.169030D-01 -0.848114D-01  0.120284D+00
     21  0.706624D-03 -0.392285D-02  0.321622D-02  0.375352D-01 -0.547987D-01
     22  0.404739D-02 -0.177342D-01  0.136868D-01  0.472762D-01 -0.654852D-01
     23  0.000000D+00  0.000000D+00  0.000000D+00  0.000000D+00  0.000000D+00
     24  0.000000D+00  0.000000D+00  0.000000D+00  0.000000D+00  0.000000D+00
     25  0.000000D+00  0.000000D+00  0.000000D+00  0.000000D+00  0.000000D+00
     26  0.000000D+00  0.000000D+00  0.000000D+00  0.000000D+00  0.000000D+00
     27  0.000000D+00  0.000000D+00  0.000000D+00  0.000000D+00  0.000000D+00
     28  0.000000D+00  0.000000D+00  0.000000D+00  0.000000D+00  0.000000D+00
     29  0.000000D+00  0.000000D+00  0.000000D+00  0.000000D+00  0.000000D+00
     30  0.000000D+00  0.000000D+00  0.000000D+00  0.000000D+00  0.000000D+00
     31  0.000000D+00  0.000000D+00  0.000000D+00  0.000000D+00  0.000000D+00
     32  0.000000D+00  0.000000D+00  0.000000D+00  0.000000D+00  0.000000D+00
     33  0.000000D+00  0.000000D+00  0.000000D+00  0.000000D+00  0.000000D+00
     34  0.000000D+00  0.000000D+00  0.000000D+00  0.000000D+00  0.000000D+00
     35  0.000000D+00  0.000000D+00  0.000000D+00  0.000000D+00  0.000000D+00
     36  0.000000D+00  0.000000D+00  0.000000D+00  0.000000D+00  0.000000D+00
     37  0.000000D+00  0.000000D+00  0.000000D+00  0.000000D+00  0.000000D+00
     38  0.000000D+00  0.000000D+00  0.000000D+00  0.000000D+00  0.000000D+00
               21            22            23            24            25
     21  0.828553D-01
     22 -0.280566D-01  0.935419D-01
     23  0.000000D+00  0.000000D+00  0.548783D-02
     24  0.000000D+00  0.000000D+00  0.140211D-02  0.749011D-02
     25  0.000000D+00  0.000000D+00  0.113987D-02 -0.806250D-03  0.873076D-02
     26  0.000000D+00  0.000000D+00 -0.294585D-02  0.528175D-02  0.678463D-02
     27  0.000000D+00  0.000000D+00 -0.121191D-02 -0.456223D-02 -0.972966D-03
     28  0.000000D+00  0.000000D+00 -0.153579D-02 -0.163184D-02  0.148952D-02
     29  0.000000D+00  0.000000D+00  0.258016D-02 -0.263621D-02 -0.759335D-02
     30  0.000000D+00  0.000000D+00  0.225628D-02  0.294173D-03 -0.513086D-02
     31  0.000000D+00  0.000000D+00  0.290559D-02 -0.398710D-02  0.135548D-02
     32  0.000000D+00  0.000000D+00  0.258691D-02 -0.662142D-02 -0.431249D-02
     33  0.000000D+00  0.000000D+00 -0.125186D-02  0.220779D-02 -0.624804D-03
     34  0.000000D+00  0.000000D+00 -0.157055D-02 -0.426539D-03 -0.629278D-02
     35  0.000000D+00  0.000000D+00 -0.106313D-02  0.497128D-02 -0.945872D-04
     36  0.000000D+00  0.000000D+00 -0.134861D-02  0.261140D-02 -0.517206D-02
     37  0.000000D+00  0.000000D+00 -0.962407D-03 -0.140003D-02  0.480974D-02
     38  0.000000D+00  0.000000D+00 -0.670669D-03 -0.403958D-02  0.259166D-02
               26            27            28            29            30
     26  0.150122D-01
     27 -0.432328D-02  0.847112D-02
     28  0.139347D-02  0.753243D-03  0.335816D-02
     29 -0.128097D-01  0.826272D-02 -0.188528D-02  0.171355D-01
     30 -0.709297D-02  0.544848D-03  0.719637D-03  0.698753D-02  0.716232D-02
     31 -0.553720D-02  0.312906D-02 -0.231764D-03  0.448099D-02  0.112016D-02
     32 -0.135208D-01 -0.664713D-03 -0.561096D-03  0.535259D-02  0.545621D-02
     33  0.283485D-02 -0.280071D-03 -0.329501D-03 -0.826961D-03 -0.876391D-03
     34 -0.514877D-02 -0.407385D-02 -0.658833D-03  0.446425D-04  0.345966D-02
     35  0.593981D-02  0.533470D-02 -0.521148D-03  0.448999D-02 -0.136586D-02
     36 -0.121205D-02  0.193617D-02 -0.816170D-03  0.527079D-02  0.251845D-02
     37  0.437212D-02 -0.844325D-02  0.149946D-02 -0.134774D-01 -0.353471D-02
     38 -0.777253D-03 -0.149135D-02 -0.846919D-03 -0.433659D-02 -0.369215D-02
               31            32            33            34            35
     31  0.113278D-01
     32  0.523011D-02  0.183415D-01
     33  0.431414D-02 -0.413988D-02  0.783452D-02
     34 -0.178358D-02  0.897150D-02 -0.619492D-03  0.101356D-01
     35 -0.256646D-02 -0.148762D-01  0.357388D-02 -0.873587D-02  0.170736D-01
     36 -0.802890D-02 -0.313081D-02 -0.399937D-02  0.898722D-03  0.604634D-02
     37 -0.122966D-02  0.577651D-02 -0.167496D-02  0.533121D-02 -0.132838D-01
     38  0.179762D-02  0.568318D-02 -0.163044D-02  0.225513D-02 -0.800912D-02
               36            37            38
     36  0.104341D-01
     37 -0.700754D-02  0.165830D-01
     38 -0.452836D-02  0.762703D-02  0.704656D-02
 Leave Link  716 at Wed Feb 25 21:34:13 2004, MaxMem=   56000000 cpu:       0.1
 (Enter /usr/local/apps/g03b05/g03/l103.exe)

 GradGradGradGradGradGradGradGradGradGradGradGradGradGradGradGradGradGrad
 Berny optimization.
 Internal  Forces:  Max     0.000151953 RMS     0.000038216
 Search for a local minimum.
 Step number   1 out of a maximum of   2
 All quantities printed in internal units (Hartrees-Bohrs-Radians)
 Second derivative matrix not updated -- analytic derivatives used.
     Eigenvalues ---    0.00618   0.01026   0.01458   0.02592   0.05580
     Eigenvalues ---    0.05888   0.08929   0.09860   0.10642   0.11501
     Eigenvalues ---    0.21046   0.25728   0.33461   0.35447   0.36165
     Eigenvalues ---    0.36472   0.38342   0.41771   0.45529   0.47160
     Eigenvalues ---    0.541401000.000001000.000001000.000001000.00000
     Eigenvalues --- 1000.000001000.000001000.000001000.000001000.00000
     Eigenvalues --- 1000.000001000.000001000.000001000.000001000.00000
     Eigenvalues --- 1000.000001000.000001000.00000
 Angle between quadratic step and forces=  38.03 degrees.
 Linear search not attempted -- first point.
 Iteration  1 RMS(Cart)=  0.00023544 RMS(Int)=  0.00000005
 Iteration  2 RMS(Cart)=  0.00000005 RMS(Int)=  0.00000000
 Variable       Old X    -DE/DX   Delta X   Delta X   Delta X     New X
                                 (Linear)    (Quad)   (Total)
    R1        2.05762   0.00000   0.00000   0.00002   0.00002   2.05763
    R2        2.62671   0.00006   0.00000   0.00017   0.00017   2.62687
    R3        2.57906  -0.00015   0.00000  -0.00039  -0.00039   2.57867
    R4        2.05650  -0.00002   0.00000  -0.00005  -0.00005   2.05645
    R5        2.67747   0.00002   0.00000   0.00007   0.00007   2.67754
    R6        2.06037   0.00000   0.00000  -0.00001  -0.00001   2.06036
    R7        2.54079  -0.00003   0.00000  -0.00002  -0.00002   2.54077
    R8        2.56014  -0.00008   0.00000  -0.00025  -0.00025   2.55988
    R9        1.92082  -0.00001   0.00000  -0.00002  -0.00002   1.92079
    A1        2.30774  -0.00004   0.00000  -0.00044  -0.00044   2.30730
    A2        2.12735   0.00002   0.00000   0.00036   0.00036   2.12771
    A3        1.84809   0.00002   0.00000   0.00008   0.00008   1.84817
    A4        2.21834  -0.00002   0.00000  -0.00036  -0.00036   2.21799
    A5        1.82402  -0.00002   0.00000  -0.00005  -0.00005   1.82397
    A6        2.24082   0.00004   0.00000   0.00041   0.00041   2.24123
    A7        2.24312   0.00007   0.00000   0.00051   0.00051   2.24363
    A8        1.96055  -0.00007   0.00000  -0.00023  -0.00023   1.96032
    A9        2.07952   0.00000   0.00000  -0.00028  -0.00028   2.07923
   A10        1.80592   0.00007   0.00000   0.00023   0.00023   1.80614
   A11        1.98620   0.00000   0.00000  -0.00002  -0.00002   1.98618
   A12        2.22842   0.00000   0.00000   0.00000   0.00000   2.22842
   A13        2.06856   0.00000   0.00000   0.00002   0.00002   2.06858
    D1        0.00000   0.00000   0.00000   0.00000   0.00000   0.00000
    D2        3.14159   0.00000   0.00000   0.00000   0.00000   3.14159
    D3        3.14159   0.00000   0.00000   0.00000   0.00000   3.14159
    D4        0.00000   0.00000   0.00000   0.00000   0.00000   0.00000
    D5        3.14159   0.00000   0.00000   0.00000   0.00000   3.14159
    D6        0.00000   0.00000   0.00000   0.00000   0.00000   0.00000
    D7        0.00000   0.00000   0.00000   0.00000   0.00000   0.00000
    D8        3.14159   0.00000   0.00000   0.00000   0.00000   3.14159
    D9        3.14159   0.00000   0.00000   0.00000   0.00000   3.14159
   D10        0.00000   0.00000   0.00000   0.00000   0.00000   0.00000
   D11        0.00000   0.00000   0.00000   0.00000   0.00000   0.00000
   D12        3.14159   0.00000   0.00000   0.00000   0.00000   3.14159
   D13        0.00000   0.00000   0.00000   0.00000   0.00000   0.00000
   D14        3.14159   0.00000   0.00000   0.00000   0.00000   3.14159
   D15        0.00000   0.00000   0.00000   0.00000   0.00000   0.00000
   D16        3.14159   0.00000   0.00000   0.00000   0.00000   3.14159
         Item               Value     Threshold  Converged?
 Maximum Force            0.000152     0.000450     YES
 RMS     Force            0.000038     0.000300     YES
 Maximum Displacement     0.000793     0.001800     YES
 RMS     Displacement     0.000235     0.001200     YES
 Predicted change in Energy=-1.071482D-07
 Optimization completed.
    -- Stationary point found.
                           ----------------------------
                           !   Optimized Parameters   !
                           ! (Angstroms and Degrees)  !
 --------------------------                            --------------------------
 ! Name  Definition              Value          Derivative Info.                !
 --------------------------------------------------------------------------------
 ! R1    R(1,2)                  1.0888         -DE/DX =    0.0                 !
 ! R2    R(2,4)                  1.39           -DE/DX =    0.0001              !
 ! R3    R(2,9)                  1.3648         -DE/DX =   -0.0002              !
 ! R4    R(3,4)                  1.0883         -DE/DX =    0.0                 !
 ! R5    R(4,6)                  1.4169         -DE/DX =    0.0                 !
 ! R6    R(5,6)                  1.0903         -DE/DX =    0.0                 !
 ! R7    R(6,7)                  1.3445         -DE/DX =    0.0                 !
 ! R8    R(7,9)                  1.3548         -DE/DX =   -0.0001              !
 ! R9    R(8,9)                  1.0165         -DE/DX =    0.0                 !
 ! A1    A(1,2,4)              132.2239         -DE/DX =    0.0                 !
 ! A2    A(1,2,9)              121.8882         -DE/DX =    0.0                 !
 ! A3    A(4,2,9)              105.888          -DE/DX =    0.0                 !
 ! A4    A(2,4,3)              127.1017         -DE/DX =    0.0                 !
 ! A5    A(2,4,6)              104.5086         -DE/DX =    0.0                 !
 ! A6    A(3,4,6)              128.3897         -DE/DX =    0.0                 !
 ! A7    A(4,6,5)              128.5212         -DE/DX =    0.0001              !
 ! A8    A(4,6,7)              112.3312         -DE/DX =   -0.0001              !
 ! A9    A(5,6,7)              119.1477         -DE/DX =    0.0                 !
 ! A10   A(6,7,9)              103.4713         -DE/DX =    0.0001              !
 ! A11   A(2,9,7)              113.8009         -DE/DX =    0.0                 !
 ! A12   A(2,9,8)              127.6791         -DE/DX =    0.0                 !
 ! A13   A(7,9,8)              118.52           -DE/DX =    0.0                 !
 ! D1    D(1,2,4,3)              0.0            -DE/DX =    0.0                 !
 ! D2    D(1,2,4,6)            180.0            -DE/DX =    0.0                 !
 ! D3    D(9,2,4,3)            180.0            -DE/DX =    0.0                 !
 ! D4    D(9,2,4,6)              0.0            -DE/DX =    0.0                 !
 ! D5    D(1,2,9,7)            180.0            -DE/DX =    0.0                 !
 ! D6    D(1,2,9,8)              0.0            -DE/DX =    0.0                 !
 ! D7    D(4,2,9,7)              0.0            -DE/DX =    0.0                 !
 ! D8    D(4,2,9,8)            180.0            -DE/DX =    0.0                 !
 ! D9    D(2,4,6,5)            180.0            -DE/DX =    0.0                 !
 ! D10   D(2,4,6,7)              0.0            -DE/DX =    0.0                 !
 ! D11   D(3,4,6,5)              0.0            -DE/DX =    0.0                 !
 ! D12   D(3,4,6,7)            180.0            -DE/DX =    0.0                 !
 ! D13   D(4,6,7,9)              0.0            -DE/DX =    0.0                 !
 ! D14   D(5,6,7,9)            180.0            -DE/DX =    0.0                 !
 ! D15   D(6,7,9,2)              0.0            -DE/DX =    0.0                 !
 ! D16   D(6,7,9,8)            180.0            -DE/DX =    0.0                 !
 --------------------------------------------------------------------------------
 GradGradGradGradGradGradGradGradGradGradGradGradGradGradGradGradGradGrad

 Leave Link  103 at Wed Feb 25 21:34:14 2004, MaxMem=   56000000 cpu:       0.1
 (Enter /usr/local/apps/g03b05/g03/l9999.exe)
 1\1\GINC-WIND\Freq\RPBEPBE\6-31G(d)\C3H4N2\RDJ3\25-Feb-2004\0\\#P GEOM
 =ALLCHECK GUESS=READ SCRF=CHECK GENCHK RPBEPBE/6-31G(D) FREQ\\1hpyraz 
 casno=288131 method=61 basis=1\\0,1\H,2.1209719575,0.7352745228,0.\C,1
 .1198787631,0.3070315954,0.\H,1.2718107213,-1.9106836438,0.\C,0.665877
 4795,-1.006727864,0.\H,-1.4911496958,-1.6906072799,0.\C,-0.7465022248,
 -0.8942017599,0.\N,-1.156980302,0.3861337667,0.\H,-0.0471065552,2.1041
 980738,0.\N,0.001258797,1.088895733,0.\\Version=SGI64-G03RevB.05\State
 =1-A'\HF=-225.9299286\RMSD=2.437e-09\RMSF=5.937e-05\Dipole=0.8001281,0
 .3743869,0.\DipoleDeriv=-0.0121687,-0.0439206,0.,-0.059278,0.0571935,0
 .,0.,0.,0.1691894,-0.0177688,-0.1497255,0.,0.0072818,0.3298056,0.,0.,0
 .,-0.0865207,0.0429973,0.0743929,0.,0.0668204,0.0055425,0.,0.,0.,0.151
 3872,-0.1096134,-0.1341108,0.,-0.0805472,-0.1113428,0.,0.,0.,-0.191533
 9,0.0042863,-0.0785255,0.,-0.0613075,0.0124445,0.,0.,0.,0.1311884,0.31
 47157,0.0782918,0.,0.0238194,0.0446377,0.,0.,0.,-0.0681761,-0.4685899,
 0.2987797,0.,0.1736586,-0.082873,0.,0.,0.,-0.2214766,0.1706084,-0.0096
 455,0.,-0.0204416,0.2092689,0.,0.,0.,0.3123976,0.0755332,-0.0355365,0.
 ,-0.0500059,-0.4646769,0.,0.,0.,-0.1964553\Polar=47.7745266,1.8882618,
 48.7956052,0.,0.,17.3638518\PG=CS [SG(C3H4N2)]\NImag=0\\0.31389181,0.1
 1292362,0.09539690,0.,0.,0.01788614,-0.29665042,-0.11288450,0.,0.78543
 918,-0.10432628,-0.10368976,0.,0.11530481,0.65079936,0.,0.,-0.02012881
 ,0.,0.,0.10219045,-0.00009809,0.00073105,0.,0.01118922,-0.01109126,0.,
 0.14215098,-0.00041459,0.00025186,0.,0.01699332,-0.00968952,0.,-0.1468
 2580,0.26530444,0.,0.,-0.00220063,0.,0.,-0.00298114,0.,0.,0.01994465,0
 .00184278,-0.02151636,0.,-0.12669146,-0.06816762,0.,-0.14346605,0.1344
 5203,0.,0.60906406,0.00176377,0.00351030,0.,-0.09176043,-0.33740991,0.
 ,0.13710535,-0.25648560,0.,-0.11920321,0.78459418,0.,0.,-0.00067055,0.
 ,0.,-0.05448003,0.,0.,-0.02244306,0.,0.,0.10285682,0.00021053,-0.00141
 518,0.,-0.00569920,0.00131498,0.,0.00030797,0.00049348,0.,-0.00704913,
 -0.01981390,0.,0.19435801,-0.00005332,0.00069319,0.,0.00276583,-0.0009
 5168,0.,-0.00067964,-0.00014659,0.,0.00492171,0.00788863,0.,0.15311323
 ,0.21617105,0.,0.,0.00095690,0.,0.,0.00423512,0.,0.,-0.00170591,0.,0.,
 -0.00006458,0.,0.,0.02223663,-0.00080548,-0.00216104,0.,-0.03320514,-0
 .07876688,0.,-0.00190460,-0.00289555,0.,-0.29631537,0.02352992,0.,-0.1
 9519012,-0.13914523,0.,0.68423889,0.00166702,-0.00632974,0.,-0.0136261
 7,0.01265087,0.,0.02346903,0.00501280,0.,-0.00715543,-0.10398995,0.,-0
 .14612745,-0.19839049,0.,0.12485312,0.73399952,0.,0.,0.00451879,0.,0.,
 0.00953983,0.,0.,-0.00365289,0.,0.,-0.05802540,0.,0.,-0.02641216,0.,0.
 ,0.12495145,-0.00217556,0.00396628,0.,-0.09108506,0.01238931,0.,-0.006
 49250,-0.00197529,0.,-0.03113738,0.01400883,0.,0.01110732,-0.02043894,
 0.,-0.12293373,0.06164858,0.,0.46321755,0.00210400,-0.00298970,0.,-0.0
 1892984,-0.02310867,0.,0.00268442,0.00027042,0.,0.07966651,-0.01816184
 ,0.,0.00731087,-0.01851255,0.,0.10106333,-0.32736784,0.,-0.03265393,0.
 53678858,0.,0.,0.00640615,0.,0.,0.01604585,0.,0.,0.00657963,0.,0.,0.01
 801188,0.,0.,-0.00777505,0.,0.,-0.06678455,0.,0.,0.09847925,-0.0001981
 5,-0.00063387,0.,0.01004193,0.02383369,0.,0.00102573,0.00108921,0.,-0.
 00617252,0.00410649,0.,0.00092756,-0.00160849,0.,-0.00791428,-0.005320
 41,0.,0.00680734,-0.03336230,0.,0.06406098,0.00038407,-0.00000792,0.,-
 0.00496776,-0.00669511,0.,-0.00034314,-0.00010892,0.,0.00318034,0.0006
 6540,0.,0.00045711,-0.00035614,0.,-0.00486541,0.00065386,0.,-0.0000510
 4,-0.01315296,0.,-0.02017674,0.45463624,0.,0.,-0.00124478,0.,0.,-0.008
 51308,0.,0.,0.00228031,0.,0.,0.00277912,0.,0.,0.00229373,0.,0.,0.00409
 745,0.,0.,-0.01246473,0.,0.,0.01121537,-0.01601743,0.02099000,0.,-0.25
 333904,0.10950925,0.,-0.00271266,-0.00091681,0.,-0.00007493,0.05026318
 ,0.,0.00102706,0.00112485,0.,-0.02597017,-0.03940829,0.,-0.22730797,-0
 .10788306,0.,-0.06857860,0.02638257,0.,0.59297374,-0.01404830,0.013164
 88,0.,0.10710475,-0.18190557,0.,-0.00505000,-0.00440890,0.,-0.00617797
 ,-0.08061123,0.,0.00466686,-0.00639541,0.,-0.02161226,-0.11623902,0.,-
 0.03689380,-0.13376543,0.,0.03207240,-0.43563446,0.,-0.06006169,0.9457
 9515,0.,0.,-0.00552322,0.,0.,-0.04590819,0.,0.,0.00417904,0.,0.,0.0120
 3579,0.,0.,0.00623533,0.,0.,0.01176748,0.,0.,-0.05849844,0.,0.,-0.0004
 4339,0.,0.,0.07615561\\-0.00001891,0.00003312,0.,0.00013624,-0.0001733
 7,0.,-0.00000494,-0.00002708,0.,-0.00000352,0.00006707,0.,0.00003447,-
 0.00003328,0.,0.00006130,0.00003907,0.,-0.00014809,-0.00000726,0.,-0.0
 0001441,0.00001147,0.,-0.00004214,0.00009025,0.\\\@


 TO DETECT ERRORS, THE PROGRAMMER MUST HAVE A CONNIVING MIND,
 ONE THAT DELIGHTS IN UNCOVERING FLAWS WHERE BEAUTY AND
 PERFECTION WERE ONCE THOUGHT TO LIE.

             -- THE PSYCHOLOGY OF COMPUTER PROGRAMMING
                GERALD M. WEINBERG
 Job cpu time:  0 days  0 hours  5 minutes  3.3 seconds.
 File lengths (MBytes):  RWF=     18 Int=      0 D2E=      0 Chk=      6 Scr=      1
 Normal termination of Gaussian 03 at Wed Feb 25 21:34:14 2004.
