 Entering Gaussian System, Link 0=g03
 Initial command:
 /usr/local/apps/g03b05/g03/l1.exe /wrk/rdj3/pbe6/Gau-1647734.inp -scrdir=/wrk/rdj3/pbe6/
 Entering Link 1 = /usr/local/apps/g03b05/g03/l1.exe PID=   1648137.
  
 Copyright (c) 1988,1990,1992,1993,1995,1998,2003, Gaussian, Inc.
                  All Rights Reserved.
  
 This is the Gaussian(R) 03 program.  It is based on the
 the Gaussian(R) 98 system (copyright 1998, Gaussian, Inc.),
 the Gaussian(R) 94 system (copyright 1995, Gaussian, Inc.),
 the Gaussian 92(TM) system (copyright 1992, Gaussian, Inc.),
 the Gaussian 90(TM) system (copyright 1990, Gaussian, Inc.),
 the Gaussian 88(TM) system (copyright 1988, Gaussian, Inc.),
 the Gaussian 86(TM) system (copyright 1986, Carnegie Mellon
 University), and the Gaussian 82(TM) system (copyright 1983,
 Carnegie Mellon University). Gaussian is a federally registered
 trademark of Gaussian, Inc.
  
 This software contains proprietary and confidential information,
 including trade secrets, belonging to Gaussian, Inc.
  
 This software is provided under written license and may be
 used, copied, transmitted, or stored only in accord with that
 written license.
  
 The following legend is applicable only to US Government
 contracts under DFARS:
  
                    RESTRICTED RIGHTS LEGEND
  
 Use, duplication or disclosure by the US Government is subject
 to restrictions as set forth in subparagraph (c)(1)(ii) of the
 Rights in Technical Data and Computer Software clause at DFARS
 252.227-7013.
  
 Gaussian, Inc.
 Carnegie Office Park, Building 6, Pittsburgh, PA 15106 USA
  
 The following legend is applicable only to US Government
 contracts under FAR:
  
                    RESTRICTED RIGHTS LEGEND
  
 Use, reproduction and disclosure by the US Government is subject
 to restrictions as set forth in subparagraph (c) of the
 Commercial Computer Software - Restricted Rights clause at FAR
 52.227-19.
  
 Gaussian, Inc.
 Carnegie Office Park, Building 6, Pittsburgh, PA 15106 USA
  
  
 ---------------------------------------------------------------
 Warning -- This program may not be used in any manner that
 competes with the business of Gaussian, Inc. or will provide
 assistance to any competitor of Gaussian, Inc.  The licensee
 of this program is prohibited from giving any competitor of
 Gaussian, Inc. access to this program.  By using this program,
 the user acknowledges that Gaussian, Inc. is engaged in the
 business of creating and licensing software in the field of
 computational chemistry and represents and warrants to the
 licensee that it is not a competitor of Gaussian, Inc. and that
 it will not use this program in any manner prohibited above.
 ---------------------------------------------------------------
  

 Cite this work as:
 Gaussian 03, Revision B.05,
 M. J. Frisch, G. W. Trucks, H. B. Schlegel, G. E. Scuseria, 
 M. A. Robb, J. R. Cheeseman, J. A. Montgomery, Jr., T. Vreven, 
 K. N. Kudin, J. C. Burant, J. M. Millam, S. S. Iyengar, J. Tomasi, 
 V. Barone, B. Mennucci, M. Cossi, G. Scalmani, N. Rega, 
 G. A. Petersson, H. Nakatsuji, M. Hada, M. Ehara, K. Toyota, 
 R. Fukuda, J. Hasegawa, M. Ishida, T. Nakajima, Y. Honda, O. Kitao, 
 H. Nakai, M. Klene, X. Li, J. E. Knox, H. P. Hratchian, J. B. Cross, 
 C. Adamo, J. Jaramillo, R. Gomperts, R. E. Stratmann, O. Yazyev, 
 A. J. Austin, R. Cammi, C. Pomelli, J. W. Ochterski, P. Y. Ayala, 
 K. Morokuma, G. A. Voth, P. Salvador, J. J. Dannenberg, 
 V. G. Zakrzewski, S. Dapprich, A. D. Daniels, M. C. Strain, 
 O. Farkas, D. K. Malick, A. D. Rabuck, K. Raghavachari, 
 J. B. Foresman, J. V. Ortiz, Q. Cui, A. G. Baboul, S. Clifford, 
 J. Cioslowski, B. B. Stefanov, G. Liu, A. Liashenko, P. Piskorz, 
 I. Komaromi, R. L. Martin, D. J. Fox, T. Keith, M. A. Al-Laham, 
 C. Y. Peng, A. Nanayakkara, M. Challacombe, P. M. W. Gill, 
 B. Johnson, W. Chen, M. W. Wong, C. Gonzalez, and J. A. Pople, 
 Gaussian, Inc., Pittsburgh PA, 2003.
 
 ******************************************
 Gaussian 03:  SGI64-G03RevB.05  8-Nov-2003
                18-Jun-2004 
 ******************************************
 %mem=56000000
 ------------------------
 #PBEPBE/cc-pVTZ opt freq
 ------------------------
 1/14=-1,18=20,26=3,38=1/1,3;
 2/9=110,17=6,18=5,40=1/2;
 3/5=16,6=1,11=2,16=1,25=1,30=1,74=1009/1,2,3;
 4//1;
 5/5=2,38=5/2;
 6/7=2,8=2,9=2,10=2,28=1/1;
 7//1,2,3,16;
 1/14=-1,18=20/3(1);
 99//99;
 2/9=110/2;
 3/5=16,6=1,11=2,16=1,25=1,30=1,74=1009/1,2,3;
 4/5=5,16=3/1;
 5/5=2,38=5/2;
 7//1,2,3,16;
 1/14=-1,18=20/3(-5);
 2/9=110/2;
 6/7=2,8=2,9=2,10=2,19=2,28=1/1;
 99/9=1/99;
 Leave Link    1 at Fri Jun 18 04:04:23 2004, MaxMem=   56000000 cpu:       0.3
 (Enter /usr/local/apps/g03b05/g03/l101.exe)
 --------------------------------------
 1hpyraz casno=288131 method=61 basis=6
 --------------------------------------
 Symbolic Z-matrix:
 Charge =  0 Multiplicity = 1
 H                     2.08045   0.72242   0. 
 C                     1.09639   0.3024    0. 
 H                     1.25554  -1.87978   0. 
 C                     0.66281  -0.9897    0. 
 H                    -1.47487  -1.65877   0. 
 C                    -0.74554  -0.87448   0. 
 N                    -1.12786   0.37057   0. 
 H                    -0.04808   2.06666   0. 
 N                     0.        1.07516   0. 
 
                    Isotopes and Nuclear Properties:

  Atom         1           2           3           4           5           6           7           8           9
 IAtWgt=           1          12           1          12           1          12          14           1          14
 AtmWgt=   1.0078250  12.0000000   1.0078250  12.0000000   1.0078250  12.0000000  14.0030740   1.0078250  14.0030740
 IAtSpn=           1           0           1           0           1           0           2           1           2
 AtZEff=   0.0000000   0.0000000   0.0000000   0.0000000   0.0000000   0.0000000   0.0000000   0.0000000   0.0000000
 AtQMom=   0.0000000   0.0000000   0.0000000   0.0000000   0.0000000   0.0000000   1.5600000   0.0000000   1.5600000
 AtGFac=   2.7928460   0.0000000   2.7928460   0.0000000   2.7928460   0.0000000   0.4037610   2.7928460   0.4037610
 Leave Link  101 at Fri Jun 18 04:04:23 2004, MaxMem=   56000000 cpu:       0.3
 (Enter /usr/local/apps/g03b05/g03/l103.exe)

 GradGradGradGradGradGradGradGradGradGradGradGradGradGradGradGradGradGrad
 Berny optimization.
 Initialization pass.
                           ----------------------------
                           !    Initial Parameters    !
                           ! (Angstroms and Degrees)  !
 --------------------------                            --------------------------
 ! Name  Definition              Value          Derivative Info.                !
 --------------------------------------------------------------------------------
 ! R1    R(1,2)                  1.0699         estimate D2E/DX2                !
 ! R2    R(2,4)                  1.3629         estimate D2E/DX2                !
 ! R3    R(2,9)                  1.3414         estimate D2E/DX2                !
 ! R4    R(3,4)                  1.0694         estimate D2E/DX2                !
 ! R5    R(4,6)                  1.4131         estimate D2E/DX2                !
 ! R6    R(5,6)                  1.071          estimate D2E/DX2                !
 ! R7    R(6,7)                  1.3024         estimate D2E/DX2                !
 ! R8    R(7,9)                  1.3299         estimate D2E/DX2                !
 ! R9    R(8,9)                  0.9927         estimate D2E/DX2                !
 ! A1    A(1,2,4)              131.6638         estimate D2E/DX2                !
 ! A2    A(1,2,9)              121.709          estimate D2E/DX2                !
 ! A3    A(4,2,9)              106.6272         estimate D2E/DX2                !
 ! A4    A(2,4,3)              127.7894         estimate D2E/DX2                !
 ! A5    A(2,4,6)              103.8727         estimate D2E/DX2                !
 ! A6    A(3,4,6)              128.3379         estimate D2E/DX2                !
 ! A7    A(4,6,5)              128.2433         estimate D2E/DX2                !
 ! A8    A(4,6,7)              111.7472         estimate D2E/DX2                !
 ! A9    A(5,6,7)              120.0095         estimate D2E/DX2                !
 ! A10   A(6,7,9)              104.9237         estimate D2E/DX2                !
 ! A11   A(2,9,7)              112.8292         estimate D2E/DX2                !
 ! A12   A(2,9,8)              127.9532         estimate D2E/DX2                !
 ! A13   A(7,9,8)              119.2176         estimate D2E/DX2                !
 ! D1    D(1,2,4,3)              0.0            estimate D2E/DX2                !
 ! D2    D(1,2,4,6)            180.0            estimate D2E/DX2                !
 ! D3    D(9,2,4,3)            180.0            estimate D2E/DX2                !
 ! D4    D(9,2,4,6)              0.0            estimate D2E/DX2                !
 ! D5    D(1,2,9,7)            180.0            estimate D2E/DX2                !
 ! D6    D(1,2,9,8)              0.0            estimate D2E/DX2                !
 ! D7    D(4,2,9,7)              0.0            estimate D2E/DX2                !
 ! D8    D(4,2,9,8)            180.0            estimate D2E/DX2                !
 ! D9    D(2,4,6,5)            180.0            estimate D2E/DX2                !
 ! D10   D(2,4,6,7)              0.0            estimate D2E/DX2                !
 ! D11   D(3,4,6,5)              0.0            estimate D2E/DX2                !
 ! D12   D(3,4,6,7)            180.0            estimate D2E/DX2                !
 ! D13   D(4,6,7,9)              0.0            estimate D2E/DX2                !
 ! D14   D(5,6,7,9)            180.0            estimate D2E/DX2                !
 ! D15   D(6,7,9,2)              0.0            estimate D2E/DX2                !
 ! D16   D(6,7,9,8)            180.0            estimate D2E/DX2                !
 --------------------------------------------------------------------------------
 Trust Radius=3.00D-01 FncErr=1.00D-07 GrdErr=1.00D-06
 Number of steps in this run=  48 maximum allowed number of steps= 100.
 GradGradGradGradGradGradGradGradGradGradGradGradGradGradGradGradGradGrad

 Leave Link  103 at Fri Jun 18 04:04:24 2004, MaxMem=   56000000 cpu:       0.2
 (Enter /usr/local/apps/g03b05/g03/l202.exe)
                          Input orientation:                          
 ---------------------------------------------------------------------
 Center     Atomic     Atomic              Coordinates (Angstroms)
 Number     Number      Type              X           Y           Z
 ---------------------------------------------------------------------
    1          1             0        2.080447    0.722417    0.000000
    2          6             0        1.096394    0.302400    0.000000
    3          1             0        1.255542   -1.879784    0.000000
    4          6             0        0.662812   -0.989701    0.000000
    5          1             0       -1.474873   -1.658768    0.000000
    6          6             0       -0.745544   -0.874478    0.000000
    7          7             0       -1.127859    0.370571    0.000000
    8          1             0       -0.048078    2.066660    0.000000
    9          7             0        0.000000    1.075164    0.000000
 ---------------------------------------------------------------------
                    Distance matrix (angstroms):
                    1          2          3          4          5
     1  H    0.000000
     2  C    1.069941   0.000000
     3  H    2.729820   2.187980   0.000000
     4  C    2.222844   1.362908   1.069381   0.000000
     5  H    4.279059   3.233820   2.739346   2.239944   0.000000
     6  C    3.245967   2.185813   2.239416   1.413062   1.070996
     7  N    3.227541   2.225297   3.277911   2.248742   2.058795
     8  H    2.517461   2.102957   4.156182   3.137946   3.989305
     9  N    2.110140   1.341359   3.210624   2.168637   3.106386
                    6          7          8          9
     6  C    0.000000
     7  N    1.302425   0.000000
     8  H    3.022706   2.010633   0.000000
     9  N    2.087328   1.329856   0.992661   0.000000
 Stoichiometry    C3H4N2
 Framework group  CS[SG(C3H4N2)]
 Deg. of freedom    15
 Full point group                 CS      NOp   2
 Largest Abelian subgroup         CS      NOp   2
 Largest concise Abelian subgroup C1      NOp   1
                         Standard orientation:                         
 ---------------------------------------------------------------------
 Center     Atomic     Atomic              Coordinates (Angstroms)
 Number     Number      Type              X           Y           Z
 ---------------------------------------------------------------------
    1          1             0        2.080447    0.722417    0.000000
    2          6             0        1.096394    0.302400    0.000000
    3          1             0        1.255542   -1.879784    0.000000
    4          6             0        0.662812   -0.989701    0.000000
    5          1             0       -1.474873   -1.658768    0.000000
    6          6             0       -0.745544   -0.874478    0.000000
    7          7             0       -1.127859    0.370571    0.000000
    8          1             0       -0.048078    2.066660    0.000000
    9          7             0        0.000000    1.075164    0.000000
 ---------------------------------------------------------------------
 Rotational constants (GHZ):      9.8799678      9.6409251      4.8794914
 Leave Link  202 at Fri Jun 18 04:04:24 2004, MaxMem=   56000000 cpu:       0.2
 (Enter /usr/local/apps/g03b05/g03/l301.exe)
 Standard basis: CC-pVTZ (5D, 7F)
 There are   140 symmetry adapted basis functions of A'  symmetry.
 There are    66 symmetry adapted basis functions of A"  symmetry.
 Integral buffers will be    131072 words long.
 Raffenetti 2 integral format.
 Two-electron integral symmetry is turned on.
   206 basis functions,   333 primitive gaussians,   235 cartesian basis functions
    18 alpha electrons       18 beta electrons
       nuclear repulsion energy       164.9559149755 Hartrees.
 IExCor=1009 DFT=T Ex=PBE Corr=PBE ExCW=0 ScaHFX=  0.000000
 ScaDFX=  1.000000  1.000000  1.000000  1.000000
 IRadAn=      0 IRanWt=     -1 IRanGd=            0 ICorTp=0
 NAtoms=    9 NActive=    9 NUniq=    9 SFac= 1.00D+00 NAtFMM=   60 Big=F
 Leave Link  301 at Fri Jun 18 04:04:24 2004, MaxMem=   56000000 cpu:       0.2
 (Enter /usr/local/apps/g03b05/g03/l302.exe)
 NPDir=0 NMtPBC=     1 NCelOv=     1 NCel=       1 NClECP=     1 NCelD=      1
         NCelK=      1 NCelE2=     1 NClLst=     1 CellRange=     0.0.
 One-electron integrals computed using PRISM.
 NBasis=   206 RedAO= T  NBF=   140    66
 NBsUse=   206 1.00D-06 NBFU=   140    66
 Precomputing XC quadrature grid using
 IXCGrd= 2 IRadAn=           0 IRanWt=          -1 IRanGd=           0.
 NRdTot=     564 NPtTot=       71150 NUsed=       75135 NTot=       75167
 NSgBfM=   235   235   235   235.
 Leave Link  302 at Fri Jun 18 04:04:26 2004, MaxMem=   56000000 cpu:       1.1
 (Enter /usr/local/apps/g03b05/g03/l303.exe)
 DipDrv:  MaxL=1.
 Leave Link  303 at Fri Jun 18 04:04:26 2004, MaxMem=   56000000 cpu:       0.1
 (Enter /usr/local/apps/g03b05/g03/l401.exe)
 Harris functional with IExCor= 1009 diagonalized for initial guess.
 ExpMin= 1.03D-01 ExpMax= 1.14D+04 ExpMxC= 3.89D+02 IAcc=1 IRadAn=         1 AccDes= 1.00D-06
 HarFok:  IExCor=1009 AccDes= 1.00D-06 IRadAn=         1 IDoV=1
 ScaDFX=  1.000000  1.000000  1.000000  1.000000
 Harris En= -226.159006679890    
 Initial guess orbital symmetries:
       Occupied  (A') (A') (A') (A') (A') (A') (A') (A') (A') (A')
                 (A') (A') (A') (A") (A') (A') (A") (A")
       Virtual   (A") (A") (A') (A') (A') (A') (A') (A') (A') (A')
                 (A") (A') (A') (A') (A") (A') (A") (A') (A') (A')
                 (A') (A') (A') (A") (A") (A') (A') (A') (A") (A')
                 (A") (A') (A') (A") (A') (A") (A") (A') (A') (A')
                 (A') (A") (A') (A') (A") (A') (A') (A') (A") (A')
                 (A") (A') (A") (A') (A') (A") (A') (A') (A') (A')
                 (A') (A") (A') (A') (A") (A') (A") (A') (A') (A")
                 (A') (A') (A") (A') (A') (A") (A') (A') (A") (A')
                 (A") (A') (A') (A') (A") (A') (A") (A") (A') (A')
                 (A') (A") (A') (A') (A") (A") (A') (A") (A') (A")
                 (A') (A') (A") (A') (A") (A") (A') (A') (A") (A')
                 (A') (A') (A") (A') (A') (A") (A') (A') (A") (A')
                 (A") (A") (A') (A') (A') (A") (A") (A') (A") (A')
                 (A') (A") (A") (A') (A') (A') (A') (A') (A") (A")
                 (A') (A') (A') (A') (A") (A') (A') (A") (A') (A")
                 (A') (A") (A') (A") (A') (A") (A") (A') (A') (A')
                 (A') (A") (A') (A") (A') (A") (A') (A') (A") (A')
                 (A') (A') (A") (A') (A") (A') (A') (A') (A') (A')
                 (A') (A') (A') (A') (A') (A') (A') (A')
 The electronic state of the initial guess is 1-A'.
 Leave Link  401 at Fri Jun 18 04:04:29 2004, MaxMem=   56000000 cpu:       2.9
 (Enter /usr/local/apps/g03b05/g03/l502.exe)
 Closed shell SCF:
 Requested convergence on RMS density matrix=1.00D-08 within 128 cycles.
 Requested convergence on MAX density matrix=1.00D-06.
 Requested convergence on             energy=1.00D-06.
 No special actions if energy rises.
 Using DIIS extrapolation, IDIIS=  1040.
 Integral symmetry usage will be decided dynamically.
        75134 words used for storage of precomputed grid.
 IEnd=    288369 IEndB=    288369 NGot=  56000000 MDV=  55783732
 LenX=  55783732
 Fock matrices will be formed incrementally for  20 cycles.
 Integral accuracy reduced to 1.0D-05 until final iterations.

 Cycle   1  Pass 0  IDiag  1:
 FoFCou: FMM=F IPFlag=           0 FMFlag=           0 FMFlg1=           0
 NFxFlg=           0 DoJE=T BraDBF=F KetDBF=F FulRan=T.
 Petite list used in FoFCou.
 E= -225.860885426713    
 DIIS: error= 2.98D-02 at cycle   1 NSaved=   1.
 NSaved= 1 IEnMin= 1 EnMin= -225.860885426713     IErMin= 1 ErrMin= 2.98D-02
 ErrMax= 2.98D-02 EMaxC= 1.00D-01 BMatC= 1.41D-01 BMatP= 1.41D-01
 IDIUse=3 WtCom= 7.02D-01 WtEn= 2.98D-01
 Coeff-Com:  0.100D+01
 Coeff-En:   0.100D+01
 Coeff:      0.100D+01
 Gap=     0.183 Goal=   None    Shift=    0.000
 GapD=    0.183 DampG=1.000 DampE=0.500 DampFc=0.5000 IDamp=-1.
 Damping current iteration by 5.00D-01
 RMSDP=4.93D-03 MaxDP=1.61D-01              OVMax= 3.00D-01

 Cycle   2  Pass 0  IDiag  1:
 RMSU=  2.46D-03    CP:  9.88D-01
 E= -225.893232172833     Delta-E=       -0.032346746120 Rises=F Damp=T
 DIIS: error= 1.50D-02 at cycle   2 NSaved=   2.
 NSaved= 2 IEnMin= 2 EnMin= -225.893232172833     IErMin= 2 ErrMin= 1.50D-02
 ErrMax= 1.50D-02 EMaxC= 1.00D-01 BMatC= 2.05D-02 BMatP= 1.41D-01
 IDIUse=3 WtCom= 8.50D-01 WtEn= 1.50D-01
 Coeff-Com:  0.235D+00 0.765D+00
 Coeff-En:   0.392D+00 0.608D+00
 Coeff:      0.259D+00 0.741D+00
 Gap=     0.210 Goal=   None    Shift=    0.000
 RMSDP=1.29D-03 MaxDP=3.36D-02 DE=-3.23D-02 OVMax= 2.48D-01

 Cycle   3  Pass 0  IDiag  1:
 RMSU=  1.04D-03    CP:  9.89D-01  6.90D-01
 E= -225.991514731282     Delta-E=       -0.098282558450 Rises=F Damp=F
 DIIS: error= 1.46D-02 at cycle   3 NSaved=   3.
 NSaved= 3 IEnMin= 3 EnMin= -225.991514731282     IErMin= 3 ErrMin= 1.46D-02
 ErrMax= 1.46D-02 EMaxC= 1.00D-01 BMatC= 1.81D-02 BMatP= 2.05D-02
 IDIUse=3 WtCom= 8.54D-01 WtEn= 1.46D-01
 Coeff-Com:  0.115D+00 0.491D+00 0.395D+00
 Coeff-En:   0.000D+00 0.000D+00 0.100D+01
 Coeff:      0.979D-01 0.419D+00 0.483D+00
 Gap=     0.210 Goal=   None    Shift=    0.000
 RMSDP=7.32D-04 MaxDP=2.17D-02 DE=-9.83D-02 OVMax= 8.30D-02

 Cycle   4  Pass 0  IDiag  1:
 RMSU=  5.21D-04    CP:  9.92D-01  6.16D-01  5.42D-01
 E= -226.002642384661     Delta-E=       -0.011127653379 Rises=F Damp=F
 DIIS: error= 7.99D-03 at cycle   4 NSaved=   4.
 NSaved= 4 IEnMin= 4 EnMin= -226.002642384661     IErMin= 4 ErrMin= 7.99D-03
 ErrMax= 7.99D-03 EMaxC= 1.00D-01 BMatC= 6.76D-03 BMatP= 1.81D-02
 IDIUse=3 WtCom= 9.20D-01 WtEn= 7.99D-02
 Coeff-Com:  0.387D-01 0.173D+00 0.361D+00 0.428D+00
 Coeff-En:   0.000D+00 0.000D+00 0.322D+00 0.678D+00
 Coeff:      0.356D-01 0.159D+00 0.358D+00 0.448D+00
 Gap=     0.212 Goal=   None    Shift=    0.000
 RMSDP=2.74D-04 MaxDP=9.08D-03 DE=-1.11D-02 OVMax= 3.90D-02

 Cycle   5  Pass 0  IDiag  1:
 RMSU=  9.86D-05    CP:  9.91D-01  6.25D-01  6.76D-01  5.92D-01
 E= -226.008954582833     Delta-E=       -0.006312198172 Rises=F Damp=F
 DIIS: error= 1.02D-03 at cycle   5 NSaved=   5.
 NSaved= 5 IEnMin= 5 EnMin= -226.008954582833     IErMin= 5 ErrMin= 1.02D-03
 ErrMax= 1.02D-03 EMaxC= 1.00D-01 BMatC= 1.10D-04 BMatP= 6.76D-03
 IDIUse=3 WtCom= 9.90D-01 WtEn= 1.02D-02
 Coeff-Com:  0.747D-02 0.474D-01 0.135D+00 0.212D+00 0.598D+00
 Coeff-En:   0.000D+00 0.000D+00 0.000D+00 0.000D+00 0.100D+01
 Coeff:      0.740D-02 0.469D-01 0.133D+00 0.210D+00 0.603D+00
 Gap=     0.212 Goal=   None    Shift=    0.000
 RMSDP=5.35D-05 MaxDP=1.98D-03 DE=-6.31D-03 OVMax= 7.13D-03

 Cycle   6  Pass 0  IDiag  1:
 RMSU=  4.45D-05    CP:  9.91D-01  6.20D-01  6.67D-01  6.21D-01  7.80D-01
 E= -226.008980701045     Delta-E=       -0.000026118212 Rises=F Damp=F
 DIIS: error= 8.12D-04 at cycle   6 NSaved=   6.
 NSaved= 6 IEnMin= 6 EnMin= -226.008980701045     IErMin= 6 ErrMin= 8.12D-04
 ErrMax= 8.12D-04 EMaxC= 1.00D-01 BMatC= 7.91D-05 BMatP= 1.10D-04
 IDIUse=3 WtCom= 9.92D-01 WtEn= 8.12D-03
 Coeff-Com: -0.751D-03 0.932D-02 0.439D-01 0.913D-01 0.479D+00 0.377D+00
 Coeff-En:   0.000D+00 0.000D+00 0.000D+00 0.000D+00 0.439D+00 0.561D+00
 Coeff:     -0.745D-03 0.925D-02 0.435D-01 0.906D-01 0.479D+00 0.379D+00
 Gap=     0.212 Goal=   None    Shift=    0.000
 RMSDP=3.48D-05 MaxDP=1.06D-03 DE=-2.61D-05 OVMax= 4.53D-03

 Cycle   7  Pass 0  IDiag  1:
 RMSU=  7.46D-06    CP:  9.91D-01  6.28D-01  6.73D-01  6.15D-01  8.11D-01
                    CP:  3.82D-01
 E= -226.009053523160     Delta-E=       -0.000072822115 Rises=F Damp=F
 DIIS: error= 9.53D-05 at cycle   7 NSaved=   7.
 NSaved= 7 IEnMin= 7 EnMin= -226.009053523160     IErMin= 7 ErrMin= 9.53D-05
 ErrMax= 9.53D-05 EMaxC= 1.00D-01 BMatC= 1.96D-06 BMatP= 7.91D-05
 IDIUse=1 WtCom= 1.00D+00 WtEn= 0.00D+00
 Coeff-Com: -0.897D-03 0.299D-02 0.197D-01 0.447D-01 0.266D+00 0.230D+00
 Coeff-Com:  0.438D+00
 Coeff:     -0.897D-03 0.299D-02 0.197D-01 0.447D-01 0.266D+00 0.230D+00
 Coeff:      0.438D+00
 Gap=     0.212 Goal=   None    Shift=    0.000
 RMSDP=5.69D-06 MaxDP=1.52D-04 DE=-7.28D-05 OVMax= 6.57D-04

 Initial convergence to 1.0D-05 achieved.  Increase integral accuracy.
 Cycle   8  Pass 1  IDiag  1:
 E= -226.009078402197     Delta-E=       -0.000024879038 Rises=F Damp=F
 DIIS: error= 3.48D-05 at cycle   1 NSaved=   1.
 NSaved= 1 IEnMin= 1 EnMin= -226.009078402197     IErMin= 1 ErrMin= 3.48D-05
 ErrMax= 3.48D-05 EMaxC= 1.00D-01 BMatC= 3.07D-07 BMatP= 3.07D-07
 IDIUse=1 WtCom= 1.00D+00 WtEn= 0.00D+00
 Coeff-Com:  0.100D+01
 Coeff:      0.100D+01
 Gap=     0.212 Goal=   None    Shift=    0.000
 RMSDP=5.69D-06 MaxDP=1.52D-04 DE=-2.49D-05 OVMax= 5.71D-04

 Cycle   9  Pass 1  IDiag  1:
 RMSU=  8.15D-06    CP:  1.00D+00
 E= -226.009077816123     Delta-E=        0.000000586074 Rises=F Damp=F
 DIIS: error= 6.79D-05 at cycle   2 NSaved=   2.
 NSaved= 2 IEnMin= 1 EnMin= -226.009078402197     IErMin= 1 ErrMin= 3.48D-05
 ErrMax= 6.79D-05 EMaxC= 1.00D-01 BMatC= 9.30D-07 BMatP= 3.07D-07
 IDIUse=1 WtCom= 1.00D+00 WtEn= 0.00D+00
 Coeff-Com:  0.651D+00 0.349D+00
 Coeff:      0.651D+00 0.349D+00
 Gap=     0.212 Goal=   None    Shift=    0.000
 RMSDP=3.76D-06 MaxDP=1.08D-04 DE= 5.86D-07 OVMax= 4.55D-04

 Cycle  10  Pass 1  IDiag  1:
 RMSU=  3.67D-06    CP:  1.00D+00  9.06D-01
 E= -226.009078609753     Delta-E=       -0.000000793629 Rises=F Damp=F
 DIIS: error= 2.09D-05 at cycle   3 NSaved=   3.
 NSaved= 3 IEnMin= 3 EnMin= -226.009078609753     IErMin= 3 ErrMin= 2.09D-05
 ErrMax= 2.09D-05 EMaxC= 1.00D-01 BMatC= 4.40D-08 BMatP= 3.07D-07
 IDIUse=1 WtCom= 1.00D+00 WtEn= 0.00D+00
 Coeff-Com:  0.184D+00 0.189D+00 0.627D+00
 Coeff:      0.184D+00 0.189D+00 0.627D+00
 Gap=     0.212 Goal=   None    Shift=    0.000
 RMSDP=1.29D-06 MaxDP=4.25D-05 DE=-7.94D-07 OVMax= 1.41D-04

 Cycle  11  Pass 1  IDiag  1:
 RMSU=  8.20D-07    CP:  1.00D+00  9.10D-01  7.31D-01
 E= -226.009078618456     Delta-E=       -0.000000008704 Rises=F Damp=F
 DIIS: error= 1.52D-05 at cycle   4 NSaved=   4.
 NSaved= 4 IEnMin= 4 EnMin= -226.009078618456     IErMin= 4 ErrMin= 1.52D-05
 ErrMax= 1.52D-05 EMaxC= 1.00D-01 BMatC= 3.46D-08 BMatP= 4.40D-08
 IDIUse=1 WtCom= 1.00D+00 WtEn= 0.00D+00
 Coeff-Com:  0.956D-02 0.776D-01 0.509D+00 0.404D+00
 Coeff:      0.956D-02 0.776D-01 0.509D+00 0.404D+00
 Gap=     0.212 Goal=   None    Shift=    0.000
 RMSDP=5.76D-07 MaxDP=2.01D-05 DE=-8.70D-09 OVMax= 7.72D-05

 Cycle  12  Pass 1  IDiag  1:
 RMSU=  1.11D-07    CP:  1.00D+00  9.17D-01  8.14D-01  4.25D-01
 E= -226.009078650063     Delta-E=       -0.000000031607 Rises=F Damp=F
 DIIS: error= 1.18D-06 at cycle   5 NSaved=   5.
 NSaved= 5 IEnMin= 5 EnMin= -226.009078650063     IErMin= 5 ErrMin= 1.18D-06
 ErrMax= 1.18D-06 EMaxC= 1.00D-01 BMatC= 2.06D-10 BMatP= 3.46D-08
 IDIUse=1 WtCom= 1.00D+00 WtEn= 0.00D+00
 Coeff-Com: -0.333D-03 0.314D-01 0.220D+00 0.188D+00 0.561D+00
 Coeff:     -0.333D-03 0.314D-01 0.220D+00 0.188D+00 0.561D+00
 Gap=     0.212 Goal=   None    Shift=    0.000
 RMSDP=6.94D-08 MaxDP=2.17D-06 DE=-3.16D-08 OVMax= 7.25D-06

 Cycle  13  Pass 1  IDiag  1:
 RMSU=  4.16D-08    CP:  1.00D+00  9.17D-01  8.13D-01  4.23D-01  5.01D-01
 E= -226.009078650117     Delta-E=       -0.000000000054 Rises=F Damp=F
 DIIS: error= 1.09D-06 at cycle   6 NSaved=   6.
 NSaved= 6 IEnMin= 6 EnMin= -226.009078650117     IErMin= 6 ErrMin= 1.09D-06
 ErrMax= 1.09D-06 EMaxC= 1.00D-01 BMatC= 9.34D-11 BMatP= 2.06D-10
 IDIUse=1 WtCom= 1.00D+00 WtEn= 0.00D+00
 Coeff-Com: -0.113D-02 0.171D-01 0.122D+00 0.107D+00 0.415D+00 0.341D+00
 Coeff:     -0.113D-02 0.171D-01 0.122D+00 0.107D+00 0.415D+00 0.341D+00
 Gap=     0.212 Goal=   None    Shift=    0.000
 RMSDP=2.94D-08 MaxDP=1.04D-06 DE=-5.42D-11 OVMax= 4.59D-06

 Cycle  14  Pass 1  IDiag  1:
 RMSU=  1.10D-08    CP:  1.00D+00  9.17D-01  8.14D-01  4.26D-01  5.92D-01
                    CP:  4.02D-01
 E= -226.009078650169     Delta-E=       -0.000000000052 Rises=F Damp=F
 DIIS: error= 8.98D-08 at cycle   7 NSaved=   7.
 NSaved= 7 IEnMin= 7 EnMin= -226.009078650169     IErMin= 7 ErrMin= 8.98D-08
 ErrMax= 8.98D-08 EMaxC= 1.00D-01 BMatC= 1.24D-12 BMatP= 9.34D-11
 IDIUse=1 WtCom= 1.00D+00 WtEn= 0.00D+00
 Coeff-Com: -0.453D-03 0.530D-02 0.377D-01 0.336D-01 0.149D+00 0.161D+00
 Coeff-Com:  0.614D+00
 Coeff:     -0.453D-03 0.530D-02 0.377D-01 0.336D-01 0.149D+00 0.161D+00
 Coeff:      0.614D+00
 Gap=     0.212 Goal=   None    Shift=    0.000
 RMSDP=5.22D-09 MaxDP=1.50D-07 DE=-5.16D-11 OVMax= 5.16D-07

 SCF Done:  E(RPBE-PBE) =  -226.009078650     A.U. after   14 cycles
             Convg  =    0.5222D-08             -V/T =  2.0051
             S**2   =   0.0000
 KE= 2.248671605888D+02 PE=-8.563626988268D+02 EE= 2.405305446123D+02
 Leave Link  502 at Fri Jun 18 04:13:38 2004, MaxMem=   56000000 cpu:     548.6
 (Enter /usr/local/apps/g03b05/g03/l601.exe)
 Copying SCF densities to generalized density rwf, ISCF=0 IROHF=0.

 **********************************************************************

            Population analysis using the SCF density.

 **********************************************************************

 Orbital symmetries:
       Occupied  (A') (A') (A') (A') (A') (A') (A') (A') (A') (A')
                 (A') (A') (A") (A') (A') (A') (A") (A")
       Virtual   (A") (A') (A") (A') (A') (A') (A') (A') (A') (A')
                 (A") (A') (A') (A") (A') (A') (A') (A") (A') (A')
                 (A') (A') (A") (A") (A') (A') (A') (A') (A") (A')
                 (A") (A') (A') (A") (A') (A") (A') (A") (A') (A')
                 (A') (A") (A') (A') (A") (A') (A') (A') (A") (A')
                 (A") (A') (A') (A") (A') (A") (A') (A') (A') (A')
                 (A') (A") (A') (A') (A") (A') (A") (A') (A') (A')
                 (A") (A') (A") (A') (A') (A") (A') (A') (A') (A")
                 (A") (A') (A') (A') (A") (A") (A') (A") (A') (A')
                 (A") (A') (A') (A') (A") (A") (A') (A") (A') (A')
                 (A") (A') (A") (A') (A") (A") (A') (A') (A") (A')
                 (A') (A') (A") (A') (A") (A') (A') (A") (A') (A')
                 (A") (A") (A') (A') (A") (A') (A") (A') (A") (A')
                 (A") (A') (A") (A') (A') (A') (A') (A') (A") (A")
                 (A') (A') (A') (A') (A') (A") (A') (A") (A') (A")
                 (A") (A') (A') (A") (A') (A") (A') (A") (A') (A')
                 (A') (A") (A') (A") (A') (A") (A') (A') (A") (A')
                 (A') (A') (A") (A') (A") (A') (A') (A') (A') (A')
                 (A') (A') (A') (A') (A') (A') (A') (A')
 The electronic state is 1-A'.
 Alpha  occ. eigenvalues --  -14.05771 -13.99456  -9.91508  -9.89360  -9.87631
 Alpha  occ. eigenvalues --   -0.97425  -0.75138  -0.71151  -0.55585  -0.54525
 Alpha  occ. eigenvalues --   -0.49356  -0.40099  -0.40025  -0.38247  -0.35231
 Alpha  occ. eigenvalues --   -0.24265  -0.23241  -0.22427
 Alpha virt. eigenvalues --   -0.01237   0.01697   0.03064   0.05728   0.06859
 Alpha virt. eigenvalues --    0.08767   0.15139   0.16686   0.17303   0.18488
 Alpha virt. eigenvalues --    0.25649   0.27394   0.29340   0.31089   0.31961
 Alpha virt. eigenvalues --    0.33960   0.35124   0.35598   0.38026   0.42666
 Alpha virt. eigenvalues --    0.43360   0.43852   0.46147   0.48445   0.49104
 Alpha virt. eigenvalues --    0.49705   0.51651   0.53386   0.54702   0.56317
 Alpha virt. eigenvalues --    0.64821   0.65301   0.69356   0.69875   0.71221
 Alpha virt. eigenvalues --    0.74257   0.78719   0.80403   0.88656   0.90497
 Alpha virt. eigenvalues --    0.92724   0.93925   0.95902   0.97129   0.97365
 Alpha virt. eigenvalues --    1.02565   1.06064   1.11370   1.12549   1.16452
 Alpha virt. eigenvalues --    1.20757   1.20904   1.22969   1.23050   1.25134
 Alpha virt. eigenvalues --    1.28008   1.29282   1.31370   1.42146   1.44856
 Alpha virt. eigenvalues --    1.47823   1.48481   1.48711   1.57035   1.59583
 Alpha virt. eigenvalues --    1.66692   1.71185   1.73876   1.78743   1.90279
 Alpha virt. eigenvalues --    1.94626   1.95506   2.04213   2.05656   2.17608
 Alpha virt. eigenvalues --    2.23542   2.26528   2.29160   2.38852   2.40295
 Alpha virt. eigenvalues --    2.42264   2.45012   2.46542   2.53038   2.56635
 Alpha virt. eigenvalues --    2.67544   2.68490   2.71150   2.72575   2.76509
 Alpha virt. eigenvalues --    2.79104   2.80140   2.82977   2.87095   2.87434
 Alpha virt. eigenvalues --    2.89466   2.89920   2.94751   2.96040   2.97771
 Alpha virt. eigenvalues --    2.97870   2.98631   3.00781   3.08500   3.09670
 Alpha virt. eigenvalues --    3.10926   3.11589   3.19562   3.21720   3.22242
 Alpha virt. eigenvalues --    3.26267   3.29505   3.33149   3.40019   3.40822
 Alpha virt. eigenvalues --    3.43426   3.47073   3.49706   3.50572   3.53175
 Alpha virt. eigenvalues --    3.55211   3.61204   3.63188   3.65687   3.72588
 Alpha virt. eigenvalues --    3.74461   3.74802   3.77192   3.78292   3.85668
 Alpha virt. eigenvalues --    3.86845   3.88317   3.88916   3.93386   3.97813
 Alpha virt. eigenvalues --    4.03459   4.08852   4.14820   4.16167   4.20503
 Alpha virt. eigenvalues --    4.23458   4.27578   4.30570   4.34550   4.37710
 Alpha virt. eigenvalues --    4.38038   4.41033   4.48845   4.52894   4.55921
 Alpha virt. eigenvalues --    4.60013   4.60824   4.61475   4.71510   4.71816
 Alpha virt. eigenvalues --    4.77360   4.80695   4.81059   4.83706   4.92183
 Alpha virt. eigenvalues --    4.93697   4.95328   4.97910   5.08033   5.15520
 Alpha virt. eigenvalues --    5.19884   5.21782   5.27310   5.29682   5.46938
 Alpha virt. eigenvalues --    5.50708   5.52101   5.59836   5.73817   5.73993
 Alpha virt. eigenvalues --    5.84619   5.89703   6.05133   6.17700   6.27742
 Alpha virt. eigenvalues --    6.49774   6.77044   6.83170   9.14900  11.53644
 Alpha virt. eigenvalues --   12.36651  13.37978  13.89534
          Condensed to atoms (all electrons):
              1          2          3          4          5          6
     1  H    0.550090   0.396773  -0.001001  -0.024328  -0.000313   0.003766
     2  C    0.396773   4.997661  -0.049869   0.496908   0.012778  -0.057085
     3  H   -0.001001  -0.049869   0.564438   0.399214  -0.002854  -0.030630
     4  C   -0.024328   0.496908   0.399214   4.989634  -0.050938   0.519193
     5  H   -0.000313   0.012778  -0.002854  -0.050938   0.555425   0.414806
     6  C    0.003766  -0.057085  -0.030630   0.519193   0.414806   4.764615
     7  N    0.007570  -0.151682   0.011151  -0.065102  -0.033568   0.640049
     8  H   -0.002270  -0.034674  -0.000498   0.008115  -0.000609   0.006028
     9  N   -0.032539   0.475759   0.004423  -0.089544   0.005592  -0.153719
              7          8          9
     1  H    0.007570  -0.002270  -0.032539
     2  C   -0.151682  -0.034674   0.475759
     3  H    0.011151  -0.000498   0.004423
     4  C   -0.065102   0.008115  -0.089544
     5  H   -0.033568  -0.000609   0.005592
     6  C    0.640049   0.006028  -0.153719
     7  N    6.394504  -0.029425   0.369953
     8  H   -0.029425   0.505334   0.399669
     9  N    0.369953   0.399669   5.956099
 Mulliken atomic charges:
              1
     1  H    0.102251
     2  C   -0.086570
     3  H    0.105626
     4  C   -0.183152
     5  H    0.099681
     6  C   -0.107023
     7  N   -0.143451
     8  H    0.148330
     9  N    0.064308
 Sum of Mulliken charges=   0.00000
 Atomic charges with hydrogens summed into heavy atoms:
              1
     1  H    0.000000
     2  C    0.015681
     3  H    0.000000
     4  C   -0.077526
     5  H    0.000000
     6  C   -0.007342
     7  N   -0.143451
     8  H    0.000000
     9  N    0.212638
 Sum of Mulliken charges=   0.00000
 Electronic spatial extent (au):  <R**2>=   281.2988
 Charge=     0.0000 electrons
 Dipole moment (field-independent basis, Debye):
    X=     1.9418    Y=     0.9714    Z=     0.0000  Tot=     2.1712
 Quadrupole moment (field-independent basis, Debye-Ang):
   XX=   -29.8706   YY=   -22.4380   ZZ=   -31.5383
   XY=     2.3341   XZ=     0.0000   YZ=     0.0000
 Traceless Quadrupole moment (field-independent basis, Debye-Ang):
   XX=    -1.9217   YY=     5.5110   ZZ=    -3.5893
   XY=     2.3341   XZ=     0.0000   YZ=     0.0000
 Octapole moment (field-independent basis, Debye-Ang**2):
  XXX=     8.2371  YYY=    12.1356  ZZZ=     0.0000  XYY=     0.2768
  XXY=    -2.1609  XXZ=     0.0000  XZZ=    -1.1410  YZZ=     2.3809
  YYZ=     0.0000  XYZ=     0.0000
 Hexadecapole moment (field-independent basis, Debye-Ang**3):
 XXXX=  -174.8643 YYYY=  -133.8835 ZZZZ=   -33.2457 XXXY=     9.7489
 XXXZ=     0.0000 YYYX=    -1.7023 YYYZ=     0.0000 ZZZX=     0.0000
 ZZZY=     0.0000 XXYY=   -51.8829 XXZZ=   -37.9761 YYZZ=   -36.3787
 XXYZ=     0.0000 YYXZ=     0.0000 ZZXY=    -0.1507
 N-N= 1.649559149755D+02 E-N=-8.563627107614D+02  KE= 2.248671605888D+02
 Symmetry A'   KE= 2.165544123754D+02
 Symmetry A"   KE= 8.312748213428D+00
 No NMR shielding tensors so no spin-rotation constants.
 Leave Link  601 at Fri Jun 18 04:13:40 2004, MaxMem=   56000000 cpu:       1.6
 (Enter /usr/local/apps/g03b05/g03/l701.exe)
 Compute integral first derivatives.
 ... and contract with generalized density number  0.
 Leave Link  701 at Fri Jun 18 04:13:42 2004, MaxMem=   56000000 cpu:       1.3
 (Enter /usr/local/apps/g03b05/g03/l702.exe)
 L702 exits ... SP integral derivatives will be done elsewhere.
 Leave Link  702 at Fri Jun 18 04:13:42 2004, MaxMem=   56000000 cpu:       0.0
 (Enter /usr/local/apps/g03b05/g03/l703.exe)
 Compute integral first derivatives, UseDBF=F.
 Integral derivatives from FoFDir, PRISM(SPDF).
 Calling FoFCou, ICntrl=  2527 FMM=F ISym2X=1 I1Cent= 0 ISCF1= 0.
 FoFCou: FMM=F IPFlag=           0 FMFlag=           0 FMFlg1=           0
 NFxFlg=           0 DoJE=F BraDBF=F KetDBF=F FulRan=T.
 Petite list used in FoFCou.
 Leave Link  703 at Fri Jun 18 04:20:24 2004, MaxMem=   56000000 cpu:     401.6
 (Enter /usr/local/apps/g03b05/g03/l716.exe)
 Dipole        = 7.63975342D-01 3.82168509D-01 0.00000000D+00
 ***** Axes restored to original set *****
 -------------------------------------------------------------------
 Center     Atomic                   Forces (Hartrees/Bohr)
 Number     Number              X              Y              Z
 -------------------------------------------------------------------
    1          1           0.010104999    0.003964545    0.000000000
    2          6           0.016207470    0.004228745    0.000000000
    3          1           0.005916818   -0.008217381    0.000000000
    4          6          -0.007524241   -0.010821813    0.000000000
    5          1          -0.007434510   -0.008077979    0.000000000
    6          6           0.012360906   -0.026036513    0.000000000
    7          7          -0.028341630    0.025330288    0.000000000
    8          1          -0.000707614    0.017985461    0.000000000
    9          7          -0.000582197    0.001644647    0.000000000
 -------------------------------------------------------------------
 Cartesian Forces:  Max     0.028341630 RMS     0.011217981
 Leave Link  716 at Fri Jun 18 04:20:24 2004, MaxMem=   56000000 cpu:       0.0
 (Enter /usr/local/apps/g03b05/g03/l103.exe)

 GradGradGradGradGradGradGradGradGradGradGradGradGradGradGradGradGradGrad
 Berny optimization.
 Internal  Forces:  Max     0.035401020 RMS     0.009224401
 Search for a local minimum.
 Step number   1 out of a maximum of  48
 All quantities printed in internal units (Hartrees-Bohrs-Radians)
 Second derivative matrix not updated -- first step.
     Eigenvalues ---    0.02140   0.02277   0.02344   0.02397   0.02534
     Eigenvalues ---    0.02554   0.16000   0.16000   0.16000   0.16000
     Eigenvalues ---    0.22000   0.22929   0.37105   0.37238   0.37308
     Eigenvalues ---    0.40394   0.48796   0.49002   0.53148   0.57511
     Eigenvalues ---    0.639231000.000001000.000001000.000001000.00000
     Eigenvalues --- 1000.000001000.000001000.000001000.000001000.00000
     Eigenvalues --- 1000.000001000.000001000.000001000.000001000.00000
     Eigenvalues --- 1000.000001000.000001000.00000
 RFO step:  Lambda=-5.81308457D-03.
 Linear search not attempted -- first point.
 Iteration  1 RMS(Cart)=  0.02203866 RMS(Int)=  0.00003939
 Iteration  2 RMS(Cart)=  0.00004041 RMS(Int)=  0.00001444
 Iteration  3 RMS(Cart)=  0.00000000 RMS(Int)=  0.00001444
 Variable       Old X    -DE/DX   Delta X   Delta X   Delta X     New X
                                 (Linear)    (Quad)   (Total)
    R1        2.02190   0.01085   0.00000   0.02869   0.02869   2.05059
    R2        2.57552   0.02159   0.00000   0.03894   0.03892   2.61445
    R3        2.53480   0.02106   0.00000   0.03661   0.03663   2.57143
    R4        2.02084   0.01012   0.00000   0.02671   0.02671   2.04755
    R5        2.67030   0.00706   0.00000   0.01486   0.01484   2.68513
    R6        2.02389   0.01098   0.00000   0.02913   0.02913   2.05302
    R7        2.46123   0.03540   0.00000   0.05369   0.05369   2.51492
    R8        2.51306   0.01802   0.00000   0.03152   0.03155   2.54461
    R9        1.87586   0.01800   0.00000   0.03630   0.03630   1.91216
    A1        2.29797  -0.00022   0.00000   0.00100   0.00100   2.29897
    A2        2.12422   0.00040   0.00000   0.00474   0.00474   2.12896
    A3        1.86100  -0.00018   0.00000  -0.00574  -0.00574   1.85526
    A4        2.23035  -0.00196   0.00000  -0.00579  -0.00577   2.22457
    A5        1.81292   0.00315   0.00000   0.00690   0.00686   1.81978
    A6        2.23992  -0.00119   0.00000  -0.00111  -0.00109   2.23883
    A7        2.23827  -0.00026   0.00000  -0.00118  -0.00117   2.23709
    A8        1.95036   0.00037   0.00000   0.00149   0.00147   1.95182
    A9        2.09456  -0.00011   0.00000  -0.00031  -0.00029   2.09427
   A10        1.83126  -0.00390   0.00000  -0.00777  -0.00774   1.82352
   A11        1.96924   0.00056   0.00000   0.00512   0.00515   1.97439
   A12        2.23320  -0.00042   0.00000  -0.00340  -0.00342   2.22978
   A13        2.08074  -0.00014   0.00000  -0.00171  -0.00173   2.07901
    D1        0.00000   0.00000   0.00000   0.00000   0.00000   0.00000
    D2        3.14159   0.00000   0.00000   0.00000   0.00000   3.14159
    D3        3.14159   0.00000   0.00000   0.00000   0.00000   3.14159
    D4        0.00000   0.00000   0.00000   0.00000   0.00000   0.00000
    D5        3.14159   0.00000   0.00000   0.00000   0.00000   3.14159
    D6        0.00000   0.00000   0.00000   0.00000   0.00000   0.00000
    D7        0.00000   0.00000   0.00000   0.00000   0.00000   0.00000
    D8        3.14159   0.00000   0.00000   0.00000   0.00000   3.14159
    D9        3.14159   0.00000   0.00000   0.00000   0.00000   3.14159
   D10        0.00000   0.00000   0.00000   0.00000   0.00000   0.00000
   D11        0.00000   0.00000   0.00000   0.00000   0.00000   0.00000
   D12        3.14159   0.00000   0.00000   0.00000   0.00000   3.14159
   D13        0.00000   0.00000   0.00000   0.00000   0.00000   0.00000
   D14        3.14159   0.00000   0.00000   0.00000   0.00000   3.14159
   D15        0.00000   0.00000   0.00000   0.00000   0.00000   0.00000
   D16        3.14159   0.00000   0.00000   0.00000   0.00000   3.14159
         Item               Value     Threshold  Converged?
 Maximum Force            0.035401     0.000450     NO 
 RMS     Force            0.009224     0.000300     NO 
 Maximum Displacement     0.066310     0.001800     NO 
 RMS     Displacement     0.022025     0.001200     NO 
 Predicted change in Energy=-2.937973D-03
 GradGradGradGradGradGradGradGradGradGradGradGradGradGradGradGradGradGrad

 Leave Link  103 at Fri Jun 18 04:20:25 2004, MaxMem=   56000000 cpu:       0.2
 (Enter /usr/local/apps/g03b05/g03/l202.exe)
                          Input orientation:                          
 ---------------------------------------------------------------------
 Center     Atomic     Atomic              Coordinates (Angstroms)
 Number     Number      Type              X           Y           Z
 ---------------------------------------------------------------------
    1          1             0        2.108865    0.730492    0.000000
    2          6             0        1.109286    0.308196    0.000000
    3          1             0        1.264554   -1.902549    0.000000
    4          6             0        0.663010   -1.001355    0.000000
    5          1             0       -1.490576   -1.686632    0.000000
    6          6             0       -0.753419   -0.888577    0.000000
    7          7             0       -1.148709    0.382200    0.000000
    8          1             0       -0.050393    2.101750    0.000000
    9          7             0       -0.003778    1.090955    0.000000
 ---------------------------------------------------------------------
                    Distance matrix (angstroms):
                    1          2          3          4          5
     1  H    0.000000
     2  C    1.085123   0.000000
     3  H    2.765098   2.216191   0.000000
     4  C    2.256057   1.383505   1.083515   0.000000
     5  H    4.335720   3.276983   2.763578   2.259987   0.000000
     6  C    3.288473   2.214031   2.258397   1.420912   1.086413
     7  N    3.276140   2.259207   3.323239   2.279595   2.096888
     8  H    2.557878   2.135811   4.214676   3.184055   4.052895
     9  N    2.143173   1.360743   3.251112   2.195989   3.150485
                    6          7          8          9
     6  C    0.000000
     7  N    1.330838   0.000000
     8  H    3.071856   2.040379   0.000000
     9  N    2.116721   1.346551   1.011869   0.000000
 Stoichiometry    C3H4N2
 Framework group  CS[SG(C3H4N2)]
 Deg. of freedom    15
 Full point group                 CS      NOp   2
 Largest Abelian subgroup         CS      NOp   2
 Largest concise Abelian subgroup C1      NOp   1
                         Standard orientation:                         
 ---------------------------------------------------------------------
 Center     Atomic     Atomic              Coordinates (Angstroms)
 Number     Number      Type              X           Y           Z
 ---------------------------------------------------------------------
    1          1             0        2.112511    0.727924    0.000000
    2          6             0        1.112778    0.305992    0.000000
    3          1             0        1.267240   -1.904809    0.000000
    4          6             0        0.666025   -1.003397    0.000000
    5          1             0       -1.487812   -1.687887    0.000000
    6          6             0       -0.750363   -0.890101    0.000000
    7          7             0       -1.145189    0.380820    0.000000
    8          1             0       -0.046247    2.099969    0.000000
    9          7             0        0.000000    1.089157    0.000000
 ---------------------------------------------------------------------
 Rotational constants (GHZ):      9.6010184      9.3906168      4.7473260
 Leave Link  202 at Fri Jun 18 04:20:25 2004, MaxMem=   56000000 cpu:       0.3
 (Enter /usr/local/apps/g03b05/g03/l301.exe)
 Standard basis: CC-pVTZ (5D, 7F)
 There are   140 symmetry adapted basis functions of A'  symmetry.
 There are    66 symmetry adapted basis functions of A"  symmetry.
 Integral buffers will be    131072 words long.
 Raffenetti 2 integral format.
 Two-electron integral symmetry is turned on.
   206 basis functions,   333 primitive gaussians,   235 cartesian basis functions
    18 alpha electrons       18 beta electrons
       nuclear repulsion energy       162.6605217019 Hartrees.
 IExCor=1009 DFT=T Ex=PBE Corr=PBE ExCW=0 ScaHFX=  0.000000
 ScaDFX=  1.000000  1.000000  1.000000  1.000000
 IRadAn=      0 IRanWt=     -1 IRanGd=            0 ICorTp=0
 NAtoms=    9 NActive=    9 NUniq=    9 SFac= 1.00D+00 NAtFMM=   60 Big=F
 Leave Link  301 at Fri Jun 18 04:20:25 2004, MaxMem=   56000000 cpu:       0.2
 (Enter /usr/local/apps/g03b05/g03/l302.exe)
 NPDir=0 NMtPBC=     1 NCelOv=     1 NCel=       1 NClECP=     1 NCelD=      1
         NCelK=      1 NCelE2=     1 NClLst=     1 CellRange=     0.0.
 One-electron integrals computed using PRISM.
 NBasis=   206 RedAO= T  NBF=   140    66
 NBsUse=   206 1.00D-06 NBFU=   140    66
 Precomputing XC quadrature grid using
 IXCGrd= 2 IRadAn=           0 IRanWt=          -1 IRanGd=           0.
 NRdTot=     564 NPtTot=       71150 NUsed=       75135 NTot=       75167
 NSgBfM=   235   235   235   235.
 Leave Link  302 at Fri Jun 18 04:20:27 2004, MaxMem=   56000000 cpu:       1.1
 (Enter /usr/local/apps/g03b05/g03/l303.exe)
 DipDrv:  MaxL=1.
 Leave Link  303 at Fri Jun 18 04:20:27 2004, MaxMem=   56000000 cpu:       0.1
 (Enter /usr/local/apps/g03b05/g03/l401.exe)
 Initial guess read from the read-write file:
 Guess basis will be translated and rotated to current coordinates.
 Initial guess orbital symmetries:
       Occupied  (A') (A') (A') (A') (A') (A') (A') (A') (A') (A')
                 (A') (A') (A") (A') (A') (A') (A") (A")
       Virtual   (A") (A') (A") (A') (A') (A') (A') (A') (A') (A')
                 (A") (A') (A') (A") (A') (A') (A') (A") (A') (A')
                 (A') (A') (A") (A") (A') (A') (A') (A') (A") (A')
                 (A") (A') (A') (A") (A') (A") (A') (A") (A') (A')
                 (A') (A") (A') (A') (A") (A') (A') (A') (A") (A')
                 (A") (A') (A') (A") (A') (A") (A') (A') (A') (A')
                 (A') (A") (A') (A') (A") (A') (A") (A') (A') (A')
                 (A") (A') (A") (A') (A') (A") (A') (A') (A') (A")
                 (A") (A') (A') (A') (A") (A") (A') (A") (A') (A')
                 (A") (A') (A') (A') (A") (A") (A') (A") (A') (A')
                 (A") (A') (A") (A') (A") (A") (A') (A') (A") (A')
                 (A') (A') (A") (A') (A") (A') (A') (A") (A') (A')
                 (A") (A") (A') (A') (A") (A') (A") (A') (A") (A')
                 (A") (A') (A") (A') (A') (A') (A') (A') (A") (A")
                 (A') (A') (A') (A') (A') (A") (A') (A") (A') (A")
                 (A") (A') (A') (A") (A') (A") (A') (A") (A') (A')
                 (A') (A") (A') (A") (A') (A") (A') (A') (A") (A')
                 (A') (A') (A") (A') (A") (A') (A') (A') (A') (A')
                 (A') (A') (A') (A') (A') (A') (A') (A')
 The electronic state of the initial guess is 1-A'.
 Generating alternative initial guess.
 Harris functional with IExCor= 1009 diagonalized for initial guess.
 ExpMin= 1.03D-01 ExpMax= 1.14D+04 ExpMxC= 3.89D+02 IAcc=1 IRadAn=         1 AccDes= 1.00D-06
 HarFok:  IExCor=1009 AccDes= 1.00D-06 IRadAn=         1 IDoV=1
 ScaDFX=  1.000000  1.000000  1.000000  1.000000
 Harris En= -226.148927233684    
 Leave Link  401 at Fri Jun 18 04:20:31 2004, MaxMem=   56000000 cpu:       3.4
 (Enter /usr/local/apps/g03b05/g03/l502.exe)
 Closed shell SCF:
 Requested convergence on RMS density matrix=1.00D-08 within 128 cycles.
 Requested convergence on MAX density matrix=1.00D-06.
 Requested convergence on             energy=1.00D-06.
 No special actions if energy rises.
 Using DIIS extrapolation, IDIIS=  1040.
 Integral symmetry usage will be decided dynamically.
        75134 words used for storage of precomputed grid.
 IEnd=    288369 IEndB=    288369 NGot=  56000000 MDV=  55783732
 LenX=  55783732
 Fock matrices will be formed incrementally for  20 cycles.
 Integral accuracy reduced to 1.0D-05 until final iterations.

 Cycle   1  Pass 0  IDiag  1:
 FoFCou: FMM=F IPFlag=           0 FMFlag=           0 FMFlg1=           0
 NFxFlg=           0 DoJE=T BraDBF=F KetDBF=F FulRan=T.
 Petite list used in FoFCou.
 E= -226.011258783290    
 DIIS: error= 2.15D-03 at cycle   1 NSaved=   1.
 NSaved= 1 IEnMin= 1 EnMin= -226.011258783290     IErMin= 1 ErrMin= 2.15D-03
 ErrMax= 2.15D-03 EMaxC= 1.00D-01 BMatC= 1.08D-03 BMatP= 1.08D-03
 IDIUse=3 WtCom= 9.79D-01 WtEn= 2.15D-02
 Coeff-Com:  0.100D+01
 Coeff-En:   0.100D+01
 Coeff:      0.100D+01
 Gap=     0.211 Goal=   None    Shift=    0.000
 GapD=    0.211 DampG=1.000 DampE=1.000 DampFc=1.0000 IDamp=-1.
 RMSDP=2.00D-04 MaxDP=6.51D-03              OVMax= 1.10D-02

 Cycle   2  Pass 0  IDiag  1:
 RMSU=  2.00D-04    CP:  1.00D+00
 E= -226.011852289482     Delta-E=       -0.000593506193 Rises=F Damp=F
 DIIS: error= 1.21D-03 at cycle   2 NSaved=   2.
 NSaved= 2 IEnMin= 2 EnMin= -226.011852289482     IErMin= 2 ErrMin= 1.21D-03
 ErrMax= 1.21D-03 EMaxC= 1.00D-01 BMatC= 2.67D-04 BMatP= 1.08D-03
 IDIUse=3 WtCom= 9.88D-01 WtEn= 1.21D-02
 Coeff-Com:  0.277D+00 0.723D+00
 Coeff-En:   0.000D+00 0.100D+01
 Coeff:      0.273D+00 0.727D+00
 Gap=     0.203 Goal=   None    Shift=    0.000
 RMSDP=1.27D-04 MaxDP=3.40D-03 DE=-5.94D-04 OVMax= 8.58D-03

 Cycle   3  Pass 0  IDiag  1:
 RMSU=  1.27D-04    CP:  1.00D+00  9.84D-01
 E= -226.011860239572     Delta-E=       -0.000007950089 Rises=F Damp=F
 DIIS: error= 1.55D-03 at cycle   3 NSaved=   3.
 NSaved= 3 IEnMin= 3 EnMin= -226.011860239572     IErMin= 2 ErrMin= 1.21D-03
 ErrMax= 1.55D-03 EMaxC= 1.00D-01 BMatC= 2.46D-04 BMatP= 2.67D-04
 IDIUse=3 WtCom= 9.84D-01 WtEn= 1.55D-02
 Coeff-Com:  0.522D-01 0.484D+00 0.463D+00
 Coeff-En:   0.000D+00 0.493D+00 0.507D+00
 Coeff:      0.514D-01 0.484D+00 0.464D+00
 Gap=     0.204 Goal=   None    Shift=    0.000
 RMSDP=7.87D-05 MaxDP=2.24D-03 DE=-7.95D-06 OVMax= 7.85D-03

 Cycle   4  Pass 0  IDiag  1:
 RMSU=  3.34D-05    CP:  1.00D+00  9.72D-01  4.40D-01
 E= -226.012038854358     Delta-E=       -0.000178614786 Rises=F Damp=F
 DIIS: error= 7.75D-04 at cycle   4 NSaved=   4.
 NSaved= 4 IEnMin= 4 EnMin= -226.012038854358     IErMin= 4 ErrMin= 7.75D-04
 ErrMax= 7.75D-04 EMaxC= 1.00D-01 BMatC= 5.36D-05 BMatP= 2.46D-04
 IDIUse=3 WtCom= 9.92D-01 WtEn= 7.75D-03
 Coeff-Com:  0.174D-01 0.297D+00 0.356D+00 0.330D+00
 Coeff-En:   0.000D+00 0.000D+00 0.193D+00 0.807D+00
 Coeff:      0.172D-01 0.295D+00 0.354D+00 0.334D+00
 Gap=     0.203 Goal=   None    Shift=    0.000
 RMSDP=2.36D-05 MaxDP=7.51D-04 DE=-1.79D-04 OVMax= 3.29D-03

 Cycle   5  Pass 0  IDiag  1:
 RMSU=  8.14D-06    CP:  1.00D+00  9.80D-01  5.01D-01  3.80D-01
 E= -226.012096189403     Delta-E=       -0.000057335045 Rises=F Damp=F
 DIIS: error= 9.28D-05 at cycle   5 NSaved=   5.
 NSaved= 5 IEnMin= 5 EnMin= -226.012096189403     IErMin= 5 ErrMin= 9.28D-05
 ErrMax= 9.28D-05 EMaxC= 1.00D-01 BMatC= 8.72D-07 BMatP= 5.36D-05
 IDIUse=1 WtCom= 1.00D+00 WtEn= 0.00D+00
 Coeff-Com:  0.130D-02 0.773D-01 0.117D+00 0.156D+00 0.649D+00
 Coeff:      0.130D-02 0.773D-01 0.117D+00 0.156D+00 0.649D+00
 Gap=     0.203 Goal=   None    Shift=    0.000
 RMSDP=3.28D-06 MaxDP=7.84D-05 DE=-5.73D-05 OVMax= 2.63D-04

 Initial convergence to 1.0D-05 achieved.  Increase integral accuracy.
 Cycle   6  Pass 1  IDiag  1:
 E= -226.012115278516     Delta-E=       -0.000019089114 Rises=F Damp=F
 DIIS: error= 3.93D-05 at cycle   1 NSaved=   1.
 NSaved= 1 IEnMin= 1 EnMin= -226.012115278516     IErMin= 1 ErrMin= 3.93D-05
 ErrMax= 3.93D-05 EMaxC= 1.00D-01 BMatC= 1.88D-07 BMatP= 1.88D-07
 IDIUse=1 WtCom= 1.00D+00 WtEn= 0.00D+00
 Coeff-Com:  0.100D+01
 Coeff:      0.100D+01
 Gap=     0.203 Goal=   None    Shift=    0.000
 RMSDP=3.28D-06 MaxDP=7.84D-05 DE=-1.91D-05 OVMax= 4.08D-04

 Cycle   7  Pass 1  IDiag  1:
 RMSU=  8.86D-06    CP:  1.00D+00
 E= -226.012114988346     Delta-E=        0.000000290170 Rises=F Damp=F
 DIIS: error= 5.13D-05 at cycle   2 NSaved=   2.
 NSaved= 2 IEnMin= 1 EnMin= -226.012115278516     IErMin= 1 ErrMin= 3.93D-05
 ErrMax= 5.13D-05 EMaxC= 1.00D-01 BMatC= 4.38D-07 BMatP= 1.88D-07
 IDIUse=1 WtCom= 1.00D+00 WtEn= 0.00D+00
 Coeff-Com:  0.632D+00 0.368D+00
 Coeff:      0.632D+00 0.368D+00
 Gap=     0.203 Goal=   None    Shift=    0.000
 RMSDP=2.85D-06 MaxDP=7.63D-05 DE= 2.90D-07 OVMax= 4.05D-04

 Cycle   8  Pass 1  IDiag  1:
 RMSU=  2.58D-06    CP:  1.00D+00  8.66D-01
 E= -226.012115348084     Delta-E=       -0.000000359737 Rises=F Damp=F
 DIIS: error= 1.84D-05 at cycle   3 NSaved=   3.
 NSaved= 3 IEnMin= 3 EnMin= -226.012115348084     IErMin= 3 ErrMin= 1.84D-05
 ErrMax= 1.84D-05 EMaxC= 1.00D-01 BMatC= 6.08D-08 BMatP= 1.88D-07
 IDIUse=1 WtCom= 1.00D+00 WtEn= 0.00D+00
 Coeff-Com:  0.217D-01 0.270D+00 0.709D+00
 Coeff:      0.217D-01 0.270D+00 0.709D+00
 Gap=     0.203 Goal=   None    Shift=    0.000
 RMSDP=7.64D-07 MaxDP=2.30D-05 DE=-3.60D-07 OVMax= 1.23D-04

 Cycle   9  Pass 1  IDiag  1:
 RMSU=  2.26D-07    CP:  1.00D+00  9.03D-01  7.48D-01
 E= -226.012115404845     Delta-E=       -0.000000056761 Rises=F Damp=F
 DIIS: error= 2.40D-06 at cycle   4 NSaved=   4.
 NSaved= 4 IEnMin= 4 EnMin= -226.012115404845     IErMin= 4 ErrMin= 2.40D-06
 ErrMax= 2.40D-06 EMaxC= 1.00D-01 BMatC= 1.07D-09 BMatP= 6.08D-08
 IDIUse=1 WtCom= 1.00D+00 WtEn= 0.00D+00
 Coeff-Com:  0.798D-03 0.134D+00 0.365D+00 0.501D+00
 Coeff:      0.798D-03 0.134D+00 0.365D+00 0.501D+00
 Gap=     0.203 Goal=   None    Shift=    0.000
 RMSDP=1.44D-07 MaxDP=4.48D-06 DE=-5.68D-08 OVMax= 1.76D-05

 Cycle  10  Pass 1  IDiag  1:
 RMSU=  9.13D-08    CP:  1.00D+00  9.01D-01  7.48D-01  5.20D-01
 E= -226.012115405288     Delta-E=       -0.000000000443 Rises=F Damp=F
 DIIS: error= 1.84D-06 at cycle   5 NSaved=   5.
 NSaved= 5 IEnMin= 5 EnMin= -226.012115405288     IErMin= 5 ErrMin= 1.84D-06
 ErrMax= 1.84D-06 EMaxC= 1.00D-01 BMatC= 4.18D-10 BMatP= 1.07D-09
 IDIUse=1 WtCom= 1.00D+00 WtEn= 0.00D+00
 Coeff-Com: -0.160D-02 0.726D-01 0.200D+00 0.376D+00 0.352D+00
 Coeff:     -0.160D-02 0.726D-01 0.200D+00 0.376D+00 0.352D+00
 Gap=     0.203 Goal=   None    Shift=    0.000
 RMSDP=7.14D-08 MaxDP=2.36D-06 DE=-4.43D-10 OVMax= 9.44D-06

 Cycle  11  Pass 1  IDiag  1:
 RMSU=  2.17D-08    CP:  1.00D+00  9.03D-01  7.45D-01  5.76D-01  3.30D-01
 E= -226.012115405592     Delta-E=       -0.000000000305 Rises=F Damp=F
 DIIS: error= 4.17D-07 at cycle   6 NSaved=   6.
 NSaved= 6 IEnMin= 6 EnMin= -226.012115405592     IErMin= 6 ErrMin= 4.17D-07
 ErrMax= 4.17D-07 EMaxC= 1.00D-01 BMatC= 1.59D-11 BMatP= 4.18D-10
 IDIUse=1 WtCom= 1.00D+00 WtEn= 0.00D+00
 Coeff-Com: -0.107D-02 0.410D-01 0.113D+00 0.226D+00 0.236D+00 0.384D+00
 Coeff:     -0.107D-02 0.410D-01 0.113D+00 0.226D+00 0.236D+00 0.384D+00
 Gap=     0.203 Goal=   None    Shift=    0.000
 RMSDP=1.58D-08 MaxDP=6.03D-07 DE=-3.05D-10 OVMax= 2.05D-06

 Cycle  12  Pass 1  IDiag  1:
 RMSU=  1.00D-08    CP:  1.00D+00  9.03D-01  7.45D-01  5.71D-01  3.88D-01
                    CP:  5.31D-01
 E= -226.012115405491     Delta-E=        0.000000000101 Rises=F Damp=F
 DIIS: error= 9.40D-08 at cycle   7 NSaved=   7.
 NSaved= 7 IEnMin= 6 EnMin= -226.012115405592     IErMin= 7 ErrMin= 9.40D-08
 ErrMax= 9.40D-08 EMaxC= 1.00D-01 BMatC= 8.63D-13 BMatP= 1.59D-11
 IDIUse=1 WtCom= 1.00D+00 WtEn= 0.00D+00
 Coeff-Com: -0.177D-03 0.500D-02 0.139D-01 0.330D-01 0.408D-01 0.211D+00
 Coeff-Com:  0.696D+00
 Coeff:     -0.177D-03 0.500D-02 0.139D-01 0.330D-01 0.408D-01 0.211D+00
 Coeff:      0.696D+00
 Gap=     0.203 Goal=   None    Shift=    0.000
 RMSDP=3.32D-09 MaxDP=1.20D-07 DE= 1.01D-10 OVMax= 4.41D-07

 SCF Done:  E(RPBE-PBE) =  -226.012115405     A.U. after   12 cycles
             Convg  =    0.3324D-08             -V/T =  2.0067
             S**2   =   0.0000
 KE= 2.245112224707D+02 PE=-8.515277989423D+02 EE= 2.383439393641D+02
 Leave Link  502 at Fri Jun 18 04:28:18 2004, MaxMem=   56000000 cpu:     466.6
 (Enter /usr/local/apps/g03b05/g03/l701.exe)
 Compute integral first derivatives.
 ... and contract with generalized density number  0.
 Leave Link  701 at Fri Jun 18 04:28:19 2004, MaxMem=   56000000 cpu:       1.3
 (Enter /usr/local/apps/g03b05/g03/l702.exe)
 L702 exits ... SP integral derivatives will be done elsewhere.
 Leave Link  702 at Fri Jun 18 04:28:19 2004, MaxMem=   56000000 cpu:       0.0
 (Enter /usr/local/apps/g03b05/g03/l703.exe)
 Compute integral first derivatives, UseDBF=F.
 Integral derivatives from FoFDir, PRISM(SPDF).
 Calling FoFCou, ICntrl=  2527 FMM=F ISym2X=1 I1Cent= 0 ISCF1= 0.
 FoFCou: FMM=F IPFlag=           0 FMFlag=           0 FMFlg1=           0
 NFxFlg=           0 DoJE=F BraDBF=F KetDBF=F FulRan=T.
 Petite list used in FoFCou.
 Leave Link  703 at Fri Jun 18 04:34:58 2004, MaxMem=   56000000 cpu:     398.2
 (Enter /usr/local/apps/g03b05/g03/l716.exe)
 Dipole        = 7.77280123D-01 3.70735759D-01 0.00000000D+00
 ***** Axes restored to original set *****
 -------------------------------------------------------------------
 Center     Atomic                   Forces (Hartrees/Bohr)
 Number     Number              X              Y              Z
 -------------------------------------------------------------------
    1          1          -0.000171715    0.000079945    0.000000000
    2          6           0.002476170    0.000313383    0.000000000
    3          1           0.000376057    0.000071897    0.000000000
    4          6          -0.005338532    0.000768932    0.000000000
    5          1          -0.000391738    0.000681068    0.000000000
    6          6           0.007853787   -0.005672438    0.000000000
    7          7          -0.006584903    0.005505070    0.000000000
    8          1          -0.000167167    0.000280837    0.000000000
    9          7           0.001948042   -0.002028693    0.000000000
 -------------------------------------------------------------------
 Cartesian Forces:  Max     0.007853787 RMS     0.002799888
 Leave Link  716 at Fri Jun 18 04:34:58 2004, MaxMem=   56000000 cpu:       0.0
 (Enter /usr/local/apps/g03b05/g03/l103.exe)

 GradGradGradGradGradGradGradGradGradGradGradGradGradGradGradGradGradGrad
 Berny optimization.
 Internal  Forces:  Max     0.005448924 RMS     0.001340503
 Search for a local minimum.
 Step number   2 out of a maximum of  48
 All quantities printed in internal units (Hartrees-Bohrs-Radians)
 Update second derivatives using D2CorX and points  1  2
 Trust test= 1.03D+00 RLast= 1.04D-01 DXMaxT set to 3.13D-01
     Eigenvalues ---    0.02140   0.02277   0.02344   0.02397   0.02533
     Eigenvalues ---    0.02554   0.15974   0.16000   0.16000   0.16011
     Eigenvalues ---    0.21736   0.22617   0.37156   0.37248   0.37312
     Eigenvalues ---    0.40751   0.48615   0.50309   0.54697   0.55919
     Eigenvalues ---    0.603801000.000001000.000001000.000001000.00000
     Eigenvalues --- 1000.000001000.000001000.000001000.000001000.00000
     Eigenvalues --- 1000.000001000.000001000.000001000.000001000.00000
     Eigenvalues --- 1000.000001000.000001000.00000
 RFO step:  Lambda=-1.68221762D-04.
 Quartic linear search produced a step of  0.07426.
 Iteration  1 RMS(Cart)=  0.00291193 RMS(Int)=  0.00001456
 Iteration  2 RMS(Cart)=  0.00001740 RMS(Int)=  0.00000621
 Iteration  3 RMS(Cart)=  0.00000000 RMS(Int)=  0.00000621
 Variable       Old X    -DE/DX   Delta X   Delta X   Delta X     New X
                                 (Linear)    (Quad)   (Total)
    R1        2.05059  -0.00013   0.00213  -0.00151   0.00062   2.05121
    R2        2.61445   0.00007   0.00289  -0.00212   0.00076   2.61521
    R3        2.57143   0.00038   0.00272  -0.00086   0.00186   2.57329
    R4        2.04755   0.00015   0.00198  -0.00063   0.00135   2.04890
    R5        2.68513  -0.00368   0.00110  -0.01004  -0.00895   2.67619
    R6        2.05302  -0.00023   0.00216  -0.00183   0.00033   2.05335
    R7        2.51492   0.00545   0.00399   0.00689   0.01088   2.52580
    R8        2.54461   0.00184   0.00234   0.00252   0.00487   2.54949
    R9        1.91216   0.00029   0.00270  -0.00086   0.00183   1.91399
    A1        2.29897   0.00051   0.00007   0.00382   0.00390   2.30286
    A2        2.12896   0.00020   0.00035   0.00159   0.00194   2.13091
    A3        1.85526  -0.00071  -0.00043  -0.00541  -0.00584   1.84942
    A4        2.22457  -0.00101  -0.00043  -0.00405  -0.00447   2.22010
    A5        1.81978   0.00127   0.00051   0.00323   0.00372   1.82350
    A6        2.23883  -0.00026  -0.00008   0.00082   0.00075   2.23958
    A7        2.23709   0.00017  -0.00009   0.00232   0.00224   2.23933
    A8        1.95182   0.00117   0.00011   0.00551   0.00562   1.95744
    A9        2.09427  -0.00134  -0.00002  -0.00784  -0.00785   2.08641
   A10        1.82352  -0.00330  -0.00057  -0.01143  -0.01198   1.81154
   A11        1.97439   0.00158   0.00038   0.00809   0.00849   1.98288
   A12        2.22978  -0.00063  -0.00025  -0.00294  -0.00320   2.22658
   A13        2.07901  -0.00095  -0.00013  -0.00515  -0.00528   2.07373
    D1        0.00000   0.00000   0.00000   0.00000   0.00000   0.00000
    D2        3.14159   0.00000   0.00000   0.00000   0.00000   3.14159
    D3        3.14159   0.00000   0.00000   0.00000   0.00000   3.14159
    D4        0.00000   0.00000   0.00000   0.00000   0.00000   0.00000
    D5        3.14159   0.00000   0.00000   0.00000   0.00000   3.14159
    D6        0.00000   0.00000   0.00000   0.00000   0.00000   0.00000
    D7        0.00000   0.00000   0.00000   0.00000   0.00000   0.00000
    D8        3.14159   0.00000   0.00000   0.00000   0.00000   3.14159
    D9        3.14159   0.00000   0.00000   0.00000   0.00000   3.14159
   D10        0.00000   0.00000   0.00000   0.00000   0.00000   0.00000
   D11        0.00000   0.00000   0.00000   0.00000   0.00000   0.00000
   D12        3.14159   0.00000   0.00000   0.00000   0.00000   3.14159
   D13        0.00000   0.00000   0.00000   0.00000   0.00000   0.00000
   D14        3.14159   0.00000   0.00000   0.00000   0.00000   3.14159
   D15        0.00000   0.00000   0.00000   0.00000   0.00000   0.00000
   D16        3.14159   0.00000   0.00000   0.00000   0.00000   3.14159
         Item               Value     Threshold  Converged?
 Maximum Force            0.005449     0.000450     NO 
 RMS     Force            0.001341     0.000300     NO 
 Maximum Displacement     0.012659     0.001800     NO 
 RMS     Displacement     0.002915     0.001200     NO 
 Predicted change in Energy=-9.636190D-05
 GradGradGradGradGradGradGradGradGradGradGradGradGradGradGradGradGradGrad

 Leave Link  103 at Fri Jun 18 04:34:59 2004, MaxMem=   56000000 cpu:       0.1
 (Enter /usr/local/apps/g03b05/g03/l202.exe)
                          Input orientation:                          
 ---------------------------------------------------------------------
 Center     Atomic     Atomic              Coordinates (Angstroms)
 Number     Number      Type              X           Y           Z
 ---------------------------------------------------------------------
    1          1             0        2.111381    0.730879    0.000000
    2          6             0        1.111778    0.307792    0.000000
    3          1             0        1.264191   -1.901736    0.000000
    4          6             0        0.661137   -1.000691    0.000000
    5          1             0       -1.489299   -1.685862    0.000000
    6          6             0       -0.750626   -0.888972    0.000000
    7          7             0       -1.155407    0.384856    0.000000
    8          1             0       -0.050185    2.100003    0.000000
    9          7             0       -0.004129    1.088212    0.000000
 ---------------------------------------------------------------------
                    Distance matrix (angstroms):
                    1          2          3          4          5
     1  H    0.000000
     2  C    1.085453   0.000000
     3  H    2.765572   2.214778   0.000000
     4  C    2.258659   1.383909   1.084231   0.000000
     5  H    4.336535   3.277234   2.761940   2.256953   0.000000
     6  C    3.288617   2.213773   2.255034   1.416177   1.086587
     7  N    3.285063   2.268495   3.329108   2.284639   2.097465
     8  H    2.558686   2.135926   4.212067   3.181240   4.050164
     9  N    2.145476   1.361728   3.247834   2.192280   3.146620
                    6          7          8          9
     6  C    0.000000
     7  N    1.336595   0.000000
     8  H    3.069950   2.040403   0.000000
     9  N    2.113413   1.349130   1.012839   0.000000
 Stoichiometry    C3H4N2
 Framework group  CS[SG(C3H4N2)]
 Deg. of freedom    15
 Full point group                 CS      NOp   2
 Largest Abelian subgroup         CS      NOp   2
 Largest concise Abelian subgroup C1      NOp   1
                         Standard orientation:                         
 ---------------------------------------------------------------------
 Center     Atomic     Atomic              Coordinates (Angstroms)
 Number     Number      Type              X           Y           Z
 ---------------------------------------------------------------------
    1          1             0        2.115494    0.729022    0.000000
    2          6             0        1.115873    0.305978    0.000000
    3          1             0        1.268190   -1.903556    0.000000
    4          6             0        0.665175   -1.002485    0.000000
    5          1             0       -1.485292   -1.687562    0.000000
    6          6             0       -0.746584   -0.890704    0.000000
    7          7             0       -1.151309    0.383142    0.000000
    8          1             0       -0.046012    2.098241    0.000000
    9          7             0        0.000000    1.086447    0.000000
 ---------------------------------------------------------------------
 Rotational constants (GHZ):      9.6171270      9.3532510      4.7416769
 Leave Link  202 at Fri Jun 18 04:34:59 2004, MaxMem=   56000000 cpu:       0.3
 (Enter /usr/local/apps/g03b05/g03/l301.exe)
 Standard basis: CC-pVTZ (5D, 7F)
 There are   140 symmetry adapted basis functions of A'  symmetry.
 There are    66 symmetry adapted basis functions of A"  symmetry.
 Integral buffers will be    131072 words long.
 Raffenetti 2 integral format.
 Two-electron integral symmetry is turned on.
   206 basis functions,   333 primitive gaussians,   235 cartesian basis functions
    18 alpha electrons       18 beta electrons
       nuclear repulsion energy       162.5466845095 Hartrees.
 IExCor=1009 DFT=T Ex=PBE Corr=PBE ExCW=0 ScaHFX=  0.000000
 ScaDFX=  1.000000  1.000000  1.000000  1.000000
 IRadAn=      0 IRanWt=     -1 IRanGd=            0 ICorTp=0
 NAtoms=    9 NActive=    9 NUniq=    9 SFac= 1.00D+00 NAtFMM=   60 Big=F
 Leave Link  301 at Fri Jun 18 04:35:00 2004, MaxMem=   56000000 cpu:       0.2
 (Enter /usr/local/apps/g03b05/g03/l302.exe)
 NPDir=0 NMtPBC=     1 NCelOv=     1 NCel=       1 NClECP=     1 NCelD=      1
         NCelK=      1 NCelE2=     1 NClLst=     1 CellRange=     0.0.
 One-electron integrals computed using PRISM.
 NBasis=   206 RedAO= T  NBF=   140    66
 NBsUse=   206 1.00D-06 NBFU=   140    66
 Precomputing XC quadrature grid using
 IXCGrd= 2 IRadAn=           0 IRanWt=          -1 IRanGd=           0.
 NRdTot=     564 NPtTot=       71150 NUsed=       75135 NTot=       75167
 NSgBfM=   235   235   235   235.
 Leave Link  302 at Fri Jun 18 04:35:01 2004, MaxMem=   56000000 cpu:       1.1
 (Enter /usr/local/apps/g03b05/g03/l303.exe)
 DipDrv:  MaxL=1.
 Leave Link  303 at Fri Jun 18 04:35:01 2004, MaxMem=   56000000 cpu:       0.1
 (Enter /usr/local/apps/g03b05/g03/l401.exe)
 Initial guess read from the read-write file:
 Guess basis will be translated and rotated to current coordinates.
 Initial guess orbital symmetries:
       Occupied  (A') (A') (A') (A') (A') (A') (A') (A') (A') (A')
                 (A') (A') (A") (A') (A') (A') (A") (A")
       Virtual   (A") (A') (A") (A') (A') (A') (A') (A') (A') (A')
                 (A") (A') (A') (A') (A") (A') (A') (A") (A') (A')
                 (A') (A') (A") (A') (A") (A') (A') (A') (A") (A')
                 (A") (A') (A') (A") (A') (A") (A') (A") (A') (A')
                 (A') (A") (A') (A") (A') (A') (A') (A') (A") (A')
                 (A") (A') (A") (A') (A') (A") (A') (A') (A') (A')
                 (A') (A") (A') (A') (A") (A') (A") (A') (A') (A')
                 (A') (A") (A') (A") (A') (A") (A') (A') (A') (A")
                 (A") (A') (A') (A') (A") (A") (A') (A") (A') (A')
                 (A") (A') (A') (A") (A') (A') (A") (A") (A') (A')
                 (A') (A") (A") (A') (A") (A') (A") (A') (A') (A")
                 (A') (A') (A") (A') (A') (A") (A') (A") (A') (A')
                 (A") (A") (A') (A') (A") (A") (A') (A') (A") (A')
                 (A") (A') (A") (A') (A') (A') (A') (A') (A") (A")
                 (A') (A') (A') (A') (A") (A') (A') (A") (A') (A")
                 (A') (A") (A') (A') (A") (A") (A') (A") (A') (A')
                 (A') (A") (A') (A") (A') (A") (A') (A') (A") (A')
                 (A') (A') (A") (A") (A') (A') (A') (A') (A') (A')
                 (A') (A') (A') (A') (A') (A') (A') (A')
 The electronic state of the initial guess is 1-A'.
 Leave Link  401 at Fri Jun 18 04:35:02 2004, MaxMem=   56000000 cpu:       0.7
 (Enter /usr/local/apps/g03b05/g03/l502.exe)
 Closed shell SCF:
 Requested convergence on RMS density matrix=1.00D-08 within 128 cycles.
 Requested convergence on MAX density matrix=1.00D-06.
 Requested convergence on             energy=1.00D-06.
 No special actions if energy rises.
 Using DIIS extrapolation, IDIIS=  1040.
 Integral symmetry usage will be decided dynamically.
        75134 words used for storage of precomputed grid.
 IEnd=    288369 IEndB=    288369 NGot=  56000000 MDV=  55783732
 LenX=  55783732
 Fock matrices will be formed incrementally for  20 cycles.

 Cycle   1  Pass 1  IDiag  1:
 FoFCou: FMM=F IPFlag=           0 FMFlag=           0 FMFlg1=           0
 NFxFlg=           0 DoJE=T BraDBF=F KetDBF=F FulRan=T.
 Petite list used in FoFCou.
 E= -226.012164381112    
 DIIS: error= 3.47D-04 at cycle   1 NSaved=   1.
 NSaved= 1 IEnMin= 1 EnMin= -226.012164381112     IErMin= 1 ErrMin= 3.47D-04
 ErrMax= 3.47D-04 EMaxC= 1.00D-01 BMatC= 4.67D-05 BMatP= 4.67D-05
 IDIUse=3 WtCom= 9.97D-01 WtEn= 3.47D-03
 Coeff-Com:  0.100D+01
 Coeff-En:   0.100D+01
 Coeff:      0.100D+01
 Gap=     0.203 Goal=   None    Shift=    0.000
 RMSDP=5.29D-05 MaxDP=1.62D-03              OVMax= 4.00D-03

 Cycle   2  Pass 1  IDiag  1:
 RMSU=  5.29D-05    CP:  1.00D+00
 E= -226.012204850578     Delta-E=       -0.000040469466 Rises=F Damp=F
 DIIS: error= 4.16D-04 at cycle   2 NSaved=   2.
 NSaved= 2 IEnMin= 2 EnMin= -226.012204850578     IErMin= 1 ErrMin= 3.47D-04
 ErrMax= 4.16D-04 EMaxC= 1.00D-01 BMatC= 1.83D-05 BMatP= 4.67D-05
 IDIUse=3 WtCom= 9.96D-01 WtEn= 4.16D-03
 Coeff-Com:  0.332D+00 0.668D+00
 Coeff-En:   0.000D+00 0.100D+01
 Coeff:      0.331D+00 0.669D+00
 Gap=     0.202 Goal=   None    Shift=    0.000
 RMSDP=3.28D-05 MaxDP=1.05D-03 DE=-4.05D-05 OVMax= 4.25D-03

 Cycle   3  Pass 1  IDiag  1:
 RMSU=  3.28D-05    CP:  1.00D+00  9.68D-01
 E= -226.012182183685     Delta-E=        0.000022666893 Rises=F Damp=F
 DIIS: error= 7.13D-04 at cycle   3 NSaved=   3.
 NSaved= 3 IEnMin= 2 EnMin= -226.012204850578     IErMin= 1 ErrMin= 3.47D-04
 ErrMax= 7.13D-04 EMaxC= 1.00D-01 BMatC= 3.99D-05 BMatP= 1.83D-05
 IDIUse=3 WtCom= 2.72D-01 WtEn= 7.28D-01
 Coeff-Com:  0.406D-01 0.582D+00 0.377D+00
 Coeff-En:   0.000D+00 0.651D+00 0.349D+00
 Coeff:      0.111D-01 0.633D+00 0.356D+00
 Gap=     0.202 Goal=   None    Shift=    0.000
 RMSDP=1.96D-05 MaxDP=6.53D-04 DE= 2.27D-05 OVMax= 2.41D-03

 Cycle   4  Pass 1  IDiag  1:
 RMSU=  4.50D-06    CP:  1.00D+00  9.85D-01  4.17D-01
 E= -226.012220089069     Delta-E=       -0.000037905384 Rises=F Damp=F
 DIIS: error= 4.79D-05 at cycle   4 NSaved=   4.
 NSaved= 4 IEnMin= 4 EnMin= -226.012220089069     IErMin= 4 ErrMin= 4.79D-05
 ErrMax= 4.79D-05 EMaxC= 1.00D-01 BMatC= 6.20D-07 BMatP= 1.83D-05
 IDIUse=1 WtCom= 1.00D+00 WtEn= 0.00D+00
 Coeff-Com:  0.427D-02 0.271D+00 0.124D+00 0.601D+00
 Coeff:      0.427D-02 0.271D+00 0.124D+00 0.601D+00
 Gap=     0.202 Goal=   None    Shift=    0.000
 RMSDP=2.97D-06 MaxDP=7.96D-05 DE=-3.79D-05 OVMax= 3.30D-04

 Cycle   5  Pass 1  IDiag  1:
 RMSU=  1.39D-06    CP:  1.00D+00  9.84D-01  3.60D-01  5.91D-01
 E= -226.012220519537     Delta-E=       -0.000000430469 Rises=F Damp=F
 DIIS: error= 2.90D-05 at cycle   5 NSaved=   5.
 NSaved= 5 IEnMin= 5 EnMin= -226.012220519537     IErMin= 5 ErrMin= 2.90D-05
 ErrMax= 2.90D-05 EMaxC= 1.00D-01 BMatC= 1.01D-07 BMatP= 6.20D-07
 IDIUse=1 WtCom= 1.00D+00 WtEn= 0.00D+00
 Coeff-Com:  0.631D-03 0.145D+00 0.623D-01 0.405D+00 0.387D+00
 Coeff:      0.631D-03 0.145D+00 0.623D-01 0.405D+00 0.387D+00
 Gap=     0.202 Goal=   None    Shift=    0.000
 RMSDP=1.08D-06 MaxDP=4.57D-05 DE=-4.30D-07 OVMax= 1.93D-04

 Cycle   6  Pass 1  IDiag  1:
 RMSU=  4.75D-07    CP:  1.00D+00  9.84D-01  3.66D-01  6.17D-01  3.19D-01
 E= -226.012220613481     Delta-E=       -0.000000093944 Rises=F Damp=F
 DIIS: error= 6.52D-06 at cycle   6 NSaved=   6.
 NSaved= 6 IEnMin= 6 EnMin= -226.012220613481     IErMin= 6 ErrMin= 6.52D-06
 ErrMax= 6.52D-06 EMaxC= 1.00D-01 BMatC= 6.80D-09 BMatP= 1.01D-07
 IDIUse=1 WtCom= 1.00D+00 WtEn= 0.00D+00
 Coeff-Com:  0.288D-03 0.646D-01 0.270D-01 0.201D+00 0.252D+00 0.456D+00
 Coeff:      0.288D-03 0.646D-01 0.270D-01 0.201D+00 0.252D+00 0.456D+00
 Gap=     0.202 Goal=   None    Shift=    0.000
 RMSDP=4.12D-07 MaxDP=9.66D-06 DE=-9.39D-08 OVMax= 4.58D-05

 Cycle   7  Pass 1  IDiag  1:
 RMSU=  1.94D-07    CP:  1.00D+00  9.85D-01  3.71D-01  6.23D-01  4.03D-01
                    CP:  3.68D-01
 E= -226.012220619302     Delta-E=       -0.000000005821 Rises=F Damp=F
 DIIS: error= 3.06D-06 at cycle   7 NSaved=   7.
 NSaved= 7 IEnMin= 7 EnMin= -226.012220619302     IErMin= 7 ErrMin= 3.06D-06
 ErrMax= 3.06D-06 EMaxC= 1.00D-01 BMatC= 1.09D-09 BMatP= 6.80D-09
 IDIUse=1 WtCom= 1.00D+00 WtEn= 0.00D+00
 Coeff-Com: -0.311D-04 0.202D-01 0.806D-02 0.696D-01 0.107D+00 0.314D+00
 Coeff-Com:  0.481D+00
 Coeff:     -0.311D-04 0.202D-01 0.806D-02 0.696D-01 0.107D+00 0.314D+00
 Coeff:      0.481D+00
 Gap=     0.202 Goal=   None    Shift=    0.000
 RMSDP=1.11D-07 MaxDP=2.95D-06 DE=-5.82D-09 OVMax= 1.27D-05

 Cycle   8  Pass 1  IDiag  1:
 RMSU=  3.97D-08    CP:  1.00D+00  9.85D-01  3.69D-01  6.27D-01  4.06D-01
                    CP:  4.58D-01  5.64D-01
 E= -226.012220620307     Delta-E=       -0.000000001005 Rises=F Damp=F
 DIIS: error= 5.25D-07 at cycle   8 NSaved=   8.
 NSaved= 8 IEnMin= 8 EnMin= -226.012220620307     IErMin= 8 ErrMin= 5.25D-07
 ErrMax= 5.25D-07 EMaxC= 1.00D-01 BMatC= 5.52D-11 BMatP= 1.09D-09
 IDIUse=1 WtCom= 1.00D+00 WtEn= 0.00D+00
 Coeff-Com: -0.222D-04 0.875D-02 0.337D-02 0.316D-01 0.513D-01 0.170D+00
 Coeff-Com:  0.287D+00 0.448D+00
 Coeff:     -0.222D-04 0.875D-02 0.337D-02 0.316D-01 0.513D-01 0.170D+00
 Coeff:      0.287D+00 0.448D+00
 Gap=     0.202 Goal=   None    Shift=    0.000
 RMSDP=2.56D-08 MaxDP=8.45D-07 DE=-1.01D-09 OVMax= 2.03D-06

 Cycle   9  Pass 1  IDiag  1:
 RMSU=  1.47D-08    CP:  1.00D+00  9.85D-01  3.69D-01  6.27D-01  4.05D-01
                    CP:  4.75D-01  5.61D-01  5.51D-01
 E= -226.012220620113     Delta-E=        0.000000000194 Rises=F Damp=F
 DIIS: error= 8.82D-08 at cycle   9 NSaved=   9.
 NSaved= 9 IEnMin= 8 EnMin= -226.012220620307     IErMin= 9 ErrMin= 8.82D-08
 ErrMax= 8.82D-08 EMaxC= 1.00D-01 BMatC= 1.56D-12 BMatP= 5.52D-11
 IDIUse=1 WtCom= 1.00D+00 WtEn= 0.00D+00
 Coeff-Com: -0.656D-05 0.156D-02 0.529D-03 0.592D-02 0.982D-02 0.397D-01
 Coeff-Com:  0.648D-01 0.181D+00 0.697D+00
 Coeff:     -0.656D-05 0.156D-02 0.529D-03 0.592D-02 0.982D-02 0.397D-01
 Coeff:      0.648D-01 0.181D+00 0.697D+00
 Gap=     0.202 Goal=   None    Shift=    0.000
 RMSDP=5.82D-09 MaxDP=1.47D-07 DE= 1.94D-10 OVMax= 3.70D-07

 SCF Done:  E(RPBE-PBE) =  -226.012220620     A.U. after    9 cycles
             Convg  =    0.5824D-08             -V/T =  2.0067
             S**2   =   0.0000
 KE= 2.244973425041D+02 PE=-8.512910566995D+02 EE= 2.382348090658D+02
 Leave Link  502 at Fri Jun 18 04:41:55 2004, MaxMem=   56000000 cpu:     411.4
 (Enter /usr/local/apps/g03b05/g03/l701.exe)
 Compute integral first derivatives.
 ... and contract with generalized density number  0.
 Leave Link  701 at Fri Jun 18 04:41:57 2004, MaxMem=   56000000 cpu:       1.4
 (Enter /usr/local/apps/g03b05/g03/l702.exe)
 L702 exits ... SP integral derivatives will be done elsewhere.
 Leave Link  702 at Fri Jun 18 04:41:57 2004, MaxMem=   56000000 cpu:       0.0
 (Enter /usr/local/apps/g03b05/g03/l703.exe)
 Compute integral first derivatives, UseDBF=F.
 Integral derivatives from FoFDir, PRISM(SPDF).
 Calling FoFCou, ICntrl=  2527 FMM=F ISym2X=1 I1Cent= 0 ISCF1= 0.
 FoFCou: FMM=F IPFlag=           0 FMFlag=           0 FMFlg1=           0
 NFxFlg=           0 DoJE=F BraDBF=F KetDBF=F FulRan=T.
 Petite list used in FoFCou.
 Leave Link  703 at Fri Jun 18 04:48:36 2004, MaxMem=   56000000 cpu:     398.3
 (Enter /usr/local/apps/g03b05/g03/l716.exe)
 Dipole        = 7.86404167D-01 3.67919480D-01 0.00000000D+00
 ***** Axes restored to original set *****
 -------------------------------------------------------------------
 Center     Atomic                   Forces (Hartrees/Bohr)
 Number     Number              X              Y              Z
 -------------------------------------------------------------------
    1          1          -0.000530753    0.000008705    0.000000000
    2          6          -0.000526849    0.000801642    0.000000000
    3          1          -0.000133008    0.000242863    0.000000000
    4          6          -0.002268047   -0.000244273    0.000000000
    5          1          -0.000021185    0.000387138    0.000000000
    6          6           0.002089781   -0.003138186    0.000000000
    7          7           0.000090576    0.001138092    0.000000000
    8          1           0.000089795   -0.000338224    0.000000000
    9          7           0.001209690    0.001142242    0.000000000
 -------------------------------------------------------------------
 Cartesian Forces:  Max     0.003138186 RMS     0.000963060
[...]
     11  0.767894D-01
     12 -0.510444D-01  0.941465D-01
     13 -0.117317D-01  0.252515D-01  0.683105D-01
     14  0.239230D-01 -0.476851D-01 -0.450122D-01  0.899612D-01
     15 -0.121914D-01  0.224335D-01 -0.232983D-01 -0.449491D-01  0.682474D-01
     16 -0.252069D-02 -0.369550D-02 -0.103817D-01  0.250667D-01 -0.146850D-01
     17  0.775628D-02 -0.371195D-02  0.242627D-01 -0.535647D-01  0.293021D-01
     18 -0.523559D-02  0.740745D-02 -0.138810D-01  0.284980D-01 -0.146170D-01
     19 -0.135734D-01  0.148386D-01  0.180131D-02  0.102835D-01 -0.120848D-01
     20  0.329385D-01 -0.575881D-01 -0.630338D-02  0.100510D-02  0.529828D-02
     21 -0.168768D-01  0.283859D-01  0.775168D-02 -0.716827D-02 -0.583402D-03
     22 -0.160617D-01  0.292021D-01 -0.144830D-02  0.616318D-02 -0.471488D-02
     23  0.000000D+00  0.000000D+00  0.000000D+00  0.000000D+00  0.000000D+00
     24  0.000000D+00  0.000000D+00  0.000000D+00  0.000000D+00  0.000000D+00
     25  0.000000D+00  0.000000D+00  0.000000D+00  0.000000D+00  0.000000D+00
     26  0.000000D+00  0.000000D+00  0.000000D+00  0.000000D+00  0.000000D+00
     27  0.000000D+00  0.000000D+00  0.000000D+00  0.000000D+00  0.000000D+00
     28  0.000000D+00  0.000000D+00  0.000000D+00  0.000000D+00  0.000000D+00
     29  0.000000D+00  0.000000D+00  0.000000D+00  0.000000D+00  0.000000D+00
     30  0.000000D+00  0.000000D+00  0.000000D+00  0.000000D+00  0.000000D+00
     31  0.000000D+00  0.000000D+00  0.000000D+00  0.000000D+00  0.000000D+00
     32  0.000000D+00  0.000000D+00  0.000000D+00  0.000000D+00  0.000000D+00
     33  0.000000D+00  0.000000D+00  0.000000D+00  0.000000D+00  0.000000D+00
     34  0.000000D+00  0.000000D+00  0.000000D+00  0.000000D+00  0.000000D+00
     35  0.000000D+00  0.000000D+00  0.000000D+00  0.000000D+00  0.000000D+00
     36  0.000000D+00  0.000000D+00  0.000000D+00  0.000000D+00  0.000000D+00
     37  0.000000D+00  0.000000D+00  0.000000D+00  0.000000D+00  0.000000D+00
     38  0.000000D+00  0.000000D+00  0.000000D+00  0.000000D+00  0.000000D+00
               16            17            18            19            20
     16  0.761035D-01
     17 -0.507839D-01  0.111414D+00
     18 -0.253196D-01 -0.606305D-01  0.859501D-01
     19  0.344444D-01 -0.759375D-01  0.414931D-01  0.135314D+00
     20 -0.503173D-02  0.217998D-01 -0.167681D-01 -0.844991D-01  0.119282D+00
     21  0.800210D-03 -0.423776D-02  0.343755D-02  0.376235D-01 -0.546034D-01
     22  0.423152D-02 -0.175621D-01  0.133306D-01  0.468756D-01 -0.646788D-01
     23  0.000000D+00  0.000000D+00  0.000000D+00  0.000000D+00  0.000000D+00
     24  0.000000D+00  0.000000D+00  0.000000D+00  0.000000D+00  0.000000D+00
     25  0.000000D+00  0.000000D+00  0.000000D+00  0.000000D+00  0.000000D+00
     26  0.000000D+00  0.000000D+00  0.000000D+00  0.000000D+00  0.000000D+00
     27  0.000000D+00  0.000000D+00  0.000000D+00  0.000000D+00  0.000000D+00
     28  0.000000D+00  0.000000D+00  0.000000D+00  0.000000D+00  0.000000D+00
     29  0.000000D+00  0.000000D+00  0.000000D+00  0.000000D+00  0.000000D+00
     30  0.000000D+00  0.000000D+00  0.000000D+00  0.000000D+00  0.000000D+00
     31  0.000000D+00  0.000000D+00  0.000000D+00  0.000000D+00  0.000000D+00
     32  0.000000D+00  0.000000D+00  0.000000D+00  0.000000D+00  0.000000D+00
     33  0.000000D+00  0.000000D+00  0.000000D+00  0.000000D+00  0.000000D+00
     34  0.000000D+00  0.000000D+00  0.000000D+00  0.000000D+00  0.000000D+00
     35  0.000000D+00  0.000000D+00  0.000000D+00  0.000000D+00  0.000000D+00
     36  0.000000D+00  0.000000D+00  0.000000D+00  0.000000D+00  0.000000D+00
     37  0.000000D+00  0.000000D+00  0.000000D+00  0.000000D+00  0.000000D+00
     38  0.000000D+00  0.000000D+00  0.000000D+00  0.000000D+00  0.000000D+00
               21            22            23            24            25
     21  0.806208D-01
     22 -0.260174D-01  0.906961D-01
     23  0.000000D+00  0.000000D+00  0.579230D-02
     24  0.000000D+00  0.000000D+00  0.147104D-02  0.748530D-02
     25  0.000000D+00  0.000000D+00  0.109231D-02 -0.765553D-03  0.871908D-02
     26  0.000000D+00  0.000000D+00 -0.322895D-02  0.524871D-02  0.686121D-02
     27  0.000000D+00  0.000000D+00 -0.128900D-02 -0.453999D-02 -0.101113D-02
     28  0.000000D+00  0.000000D+00 -0.172168D-02 -0.170765D-02  0.170847D-02
     29  0.000000D+00  0.000000D+00  0.282815D-02 -0.258075D-02 -0.769211D-02
     30  0.000000D+00  0.000000D+00  0.239547D-02  0.251592D-03 -0.497251D-02
     31  0.000000D+00  0.000000D+00  0.302033D-02 -0.383821D-02  0.127547D-02
     32  0.000000D+00  0.000000D+00  0.281680D-02 -0.658910D-02 -0.430797D-02
     33  0.000000D+00  0.000000D+00 -0.137471D-02  0.227874D-02 -0.614113D-03
     34  0.000000D+00  0.000000D+00 -0.157824D-02 -0.472152D-03 -0.619755D-02
     35  0.000000D+00  0.000000D+00 -0.114656D-02  0.498154D-02 -0.165217D-03
     36  0.000000D+00  0.000000D+00 -0.132918D-02  0.251316D-02 -0.517526D-02
     37  0.000000D+00  0.000000D+00 -0.106350D-02 -0.144994D-02  0.491217D-02
     38  0.000000D+00  0.000000D+00 -0.672221D-03 -0.401127D-02  0.245279D-02
               26            27            28            29            30
     26  0.153389D-01
     27 -0.426211D-02  0.846027D-02
     28  0.172251D-02  0.653559D-03  0.380764D-02
     29 -0.131010D-01  0.821686D-02 -0.235123D-02  0.174325D-01
     30 -0.711639D-02  0.410144D-03  0.802851D-03  0.686444D-02  0.725714D-02
     31 -0.558306D-02  0.308565D-02 -0.335516D-03  0.461413D-02  0.119296D-02
     32 -0.137139D-01 -0.752117D-03 -0.662665D-03  0.548912D-02  0.557857D-02
     33  0.303934D-02 -0.220839D-03 -0.321242D-03 -0.887119D-03 -0.987522D-03
     34 -0.509146D-02 -0.405861D-02 -0.648391D-03 -0.121278D-04  0.339809D-02
     35  0.596288D-02  0.541932D-02 -0.691062D-03  0.455967D-02 -0.155071D-02
     36 -0.133292D-02  0.197567D-02 -0.984614D-03  0.534480D-02  0.238452D-02
     37  0.452573D-02 -0.847189D-02  0.189547D-02 -0.137065D-01 -0.333917D-02
     38 -0.886260D-03 -0.141215D-02 -0.956815D-03 -0.414964D-02 -0.369430D-02
               31            32            33            34            35
     31  0.113071D-01
     32  0.514551D-02  0.184661D-01
     33  0.433151D-02 -0.442098D-02  0.804734D-02
     34 -0.183012D-02  0.889964D-02 -0.705145D-03  0.100246D-01
     35 -0.240910D-02 -0.149545D-01  0.382363D-02 -0.872182D-02  0.172427D-01
     36 -0.793794D-02 -0.300191D-02 -0.403000D-02  0.906036D-03  0.598561D-02
     37 -0.140390D-02  0.576500D-02 -0.179694D-02  0.537196D-02 -0.134567D-01
     38  0.168992D-02  0.568411D-02 -0.170615D-02  0.228805D-02 -0.793101D-02
               36            37            38
     36  0.104147D-01
     37 -0.702404D-02  0.168485D-01
     38 -0.434701D-02  0.747313D-02  0.706136D-02
 Leave Link  716 at Fri Jun 18 07:06:52 2004, MaxMem=   56000000 cpu:       0.1
 (Enter /usr/local/apps/g03b05/g03/l103.exe)

 GradGradGradGradGradGradGradGradGradGradGradGradGradGradGradGradGradGrad
 Berny optimization.
 Internal  Forces:  Max     0.000154235 RMS     0.000039874
 Search for a local minimum.
 Step number   1 out of a maximum of   2
 All quantities printed in internal units (Hartrees-Bohrs-Radians)
 Second derivative matrix not updated -- analytic derivatives used.
     Eigenvalues ---    0.00694   0.01070   0.01475   0.02571   0.05646
     Eigenvalues ---    0.05915   0.08695   0.09664   0.10282   0.11070
     Eigenvalues ---    0.20718   0.25115   0.32547   0.34861   0.35638
     Eigenvalues ---    0.35933   0.37582   0.40986   0.45300   0.46324
     Eigenvalues ---    0.536301000.000001000.000001000.000001000.00000
     Eigenvalues --- 1000.000001000.000001000.000001000.000001000.00000
     Eigenvalues --- 1000.000001000.000001000.000001000.000001000.00000
     Eigenvalues --- 1000.000001000.000001000.00000
 Angle between quadratic step and forces=  36.84 degrees.
 Linear search not attempted -- first point.
 Iteration  1 RMS(Cart)=  0.00026584 RMS(Int)=  0.00000007
 Iteration  2 RMS(Cart)=  0.00000007 RMS(Int)=  0.00000000
 Variable       Old X    -DE/DX   Delta X   Delta X   Delta X     New X
                                 (Linear)    (Quad)   (Total)
    R1        2.04992   0.00000   0.00000   0.00001   0.00001   2.04993
    R2        2.61710   0.00005   0.00000   0.00020   0.00020   2.61730
    R3        2.57069  -0.00015   0.00000  -0.00042  -0.00042   2.57027
    R4        2.04832  -0.00001   0.00000  -0.00004  -0.00004   2.04828
    R5        2.66965   0.00002   0.00000   0.00005   0.00005   2.66970
    R6        2.05246  -0.00001   0.00000  -0.00003  -0.00003   2.05243
    R7        2.53086  -0.00002   0.00000   0.00004   0.00004   2.53090
    R8        2.55038  -0.00012   0.00000  -0.00036  -0.00036   2.55002
    R9        1.91326  -0.00002   0.00000  -0.00003  -0.00003   1.91323
    A1        2.30406  -0.00003   0.00000  -0.00038  -0.00038   2.30368
    A2        2.12906   0.00002   0.00000   0.00033   0.00033   2.12940
    A3        1.85006   0.00001   0.00000   0.00005   0.00005   1.85011
    A4        2.21800  -0.00002   0.00000  -0.00038  -0.00038   2.21762
    A5        1.82529  -0.00004   0.00000  -0.00011  -0.00011   1.82518
    A6        2.23990   0.00005   0.00000   0.00048   0.00048   2.24038
    A7        2.24382   0.00008   0.00000   0.00062   0.00062   2.24444
    A8        1.95590  -0.00005   0.00000  -0.00016  -0.00016   1.95573
    A9        2.08347  -0.00003   0.00000  -0.00046  -0.00046   2.08302
   A10        1.81214   0.00004   0.00000   0.00014   0.00014   1.81227
   A11        1.98140   0.00003   0.00000   0.00009   0.00009   1.98148
   A12        2.22742  -0.00001   0.00000  -0.00004  -0.00004   2.22738
   A13        2.07437  -0.00002   0.00000  -0.00005  -0.00005   2.07432
    D1        0.00000   0.00000   0.00000   0.00000   0.00000   0.00000
    D2        3.14159   0.00000   0.00000   0.00000   0.00000   3.14159
    D3        3.14159   0.00000   0.00000   0.00000   0.00000   3.14159
    D4        0.00000   0.00000   0.00000   0.00000   0.00000   0.00000
    D5        3.14159   0.00000   0.00000   0.00000   0.00000   3.14159
    D6        0.00000   0.00000   0.00000   0.00000   0.00000   0.00000
    D7        0.00000   0.00000   0.00000   0.00000   0.00000   0.00000
    D8        3.14159   0.00000   0.00000   0.00000   0.00000   3.14159
    D9        3.14159   0.00000   0.00000   0.00000   0.00000   3.14159
   D10        0.00000   0.00000   0.00000   0.00000   0.00000   0.00000
   D11        0.00000   0.00000   0.00000   0.00000   0.00000   0.00000
   D12        3.14159   0.00000   0.00000   0.00000   0.00000   3.14159
   D13        0.00000   0.00000   0.00000   0.00000   0.00000   0.00000
   D14        3.14159   0.00000   0.00000   0.00000   0.00000   3.14159
   D15        0.00000   0.00000   0.00000   0.00000   0.00000   0.00000
   D16        3.14159   0.00000   0.00000   0.00000   0.00000   3.14159
         Item               Value     Threshold  Converged?
 Maximum Force            0.000154     0.000450     YES
 RMS     Force            0.000040     0.000300     YES
 Maximum Displacement     0.000905     0.001800     YES
 RMS     Displacement     0.000266     0.001200     YES
 Predicted change in Energy=-1.262555D-07
 Optimization completed.
    -- Stationary point found.
                           ----------------------------
                           !   Optimized Parameters   !
                           ! (Angstroms and Degrees)  !
 --------------------------                            --------------------------
 ! Name  Definition              Value          Derivative Info.                !
 --------------------------------------------------------------------------------
 ! R1    R(1,2)                  1.0848         -DE/DX =    0.0                 !
 ! R2    R(2,4)                  1.3849         -DE/DX =    0.0001              !
 ! R3    R(2,9)                  1.3604         -DE/DX =   -0.0002              !
 ! R4    R(3,4)                  1.0839         -DE/DX =    0.0                 !
 ! R5    R(4,6)                  1.4127         -DE/DX =    0.0                 !
 ! R6    R(5,6)                  1.0861         -DE/DX =    0.0                 !
 ! R7    R(6,7)                  1.3393         -DE/DX =    0.0                 !
 ! R8    R(7,9)                  1.3496         -DE/DX =   -0.0001              !
 ! R9    R(8,9)                  1.0125         -DE/DX =    0.0                 !
 ! A1    A(1,2,4)              132.0129         -DE/DX =    0.0                 !
 ! A2    A(1,2,9)              121.9864         -DE/DX =    0.0                 !
 ! A3    A(4,2,9)              106.0007         -DE/DX =    0.0                 !
 ! A4    A(2,4,3)              127.0822         -DE/DX =    0.0                 !
 ! A5    A(2,4,6)              104.5812         -DE/DX =    0.0                 !
 ! A6    A(3,4,6)              128.3367         -DE/DX =    0.0001              !
 ! A7    A(4,6,5)              128.5613         -DE/DX =    0.0001              !
 ! A8    A(4,6,7)              112.0646         -DE/DX =    0.0                 !
 ! A9    A(5,6,7)              119.3741         -DE/DX =    0.0                 !
 ! A10   A(6,7,9)              103.8277         -DE/DX =    0.0                 !
 ! A11   A(2,9,7)              113.5258         -DE/DX =    0.0                 !
 ! A12   A(2,9,8)              127.6217         -DE/DX =    0.0                 !
 ! A13   A(7,9,8)              118.8525         -DE/DX =    0.0                 !
 ! D1    D(1,2,4,3)              0.0            -DE/DX =    0.0                 !
 ! D2    D(1,2,4,6)            180.0            -DE/DX =    0.0                 !
 ! D3    D(9,2,4,3)            180.0            -DE/DX =    0.0                 !
 ! D4    D(9,2,4,6)              0.0            -DE/DX =    0.0                 !
 ! D5    D(1,2,9,7)            180.0            -DE/DX =    0.0                 !
 ! D6    D(1,2,9,8)              0.0            -DE/DX =    0.0                 !
 ! D7    D(4,2,9,7)              0.0            -DE/DX =    0.0                 !
 ! D8    D(4,2,9,8)            180.0            -DE/DX =    0.0                 !
 ! D9    D(2,4,6,5)            180.0            -DE/DX =    0.0                 !
 ! D10   D(2,4,6,7)              0.0            -DE/DX =    0.0                 !
 ! D11   D(3,4,6,5)              0.0            -DE/DX =    0.0                 !
 ! D12   D(3,4,6,7)            180.0            -DE/DX =    0.0                 !
 ! D13   D(4,6,7,9)              0.0            -DE/DX =    0.0                 !
 ! D14   D(5,6,7,9)            180.0            -DE/DX =    0.0                 !
 ! D15   D(6,7,9,2)              0.0            -DE/DX =    0.0                 !
 ! D16   D(6,7,9,8)            180.0            -DE/DX =    0.0                 !
 --------------------------------------------------------------------------------
 GradGradGradGradGradGradGradGradGradGradGradGradGradGradGradGradGradGrad

 Leave Link  103 at Fri Jun 18 07:06:52 2004, MaxMem=   56000000 cpu:       0.1
 (Enter /usr/local/apps/g03b05/g03/l9999.exe)
 1\1\GINC-WIND\Freq\RPBEPBE\CC-pVTZ\C3H4N2\RDJ3\18-Jun-2004\0\\#P GEOM=
 ALLCHECK GUESS=READ SCRF=CHECK GENCHK RPBEPBE/CC-PVTZ FREQ\\1hpyraz ca
 sno=288131 method=61 basis=6\\0,1\H,2.1134524896,0.7302123722,0.\C,1.1
 148067498,0.3066122871,0.\H,1.2676963623,-1.9023991898,0.\C,0.66329580
 56,-1.0026280366,0.\H,-1.4860061609,-1.6873411608,0.\C,-0.7451729767,-
 0.8931062436,0.\N,-1.1505356593,0.3833462928,0.\H,-0.0449571862,2.0988
 420577,0.\N,0.0008552341,1.08742769,0.\\Version=SGI64-G03RevB.05\State
 =1-A'\HF=-226.0122393\RMSD=2.673e-09\RMSF=6.335e-05\Dipole=0.7872912,0
 .3690949,0.\DipoleDeriv=-0.0069784,-0.0408595,0.,-0.0518584,0.0609881,
 0.,0.,0.,0.1813759,-0.0343834,-0.1497364,0.,-0.0206102,0.3363713,0.,0.
 ,0.,-0.1124829,0.0440115,0.0734436,0.,0.0666882,0.0106532,0.,0.,0.,0.1
 647269,-0.1083312,-0.1199961,0.,-0.0584696,-0.12012,0.,0.,0.,-0.216861
 9,0.0157647,-0.076744,0.,-0.0536647,0.0185419,0.,0.,0.,0.1459963,0.311
 8334,0.0572747,0.,0.0178157,0.0422172,0.,0.,0.,-0.0855276,-0.4798451,0
 .2881005,0.,0.1841576,-0.0869351,0.,0.,0.,-0.2260599,0.161288,-0.00826
 98,0.,-0.0260052,0.2346802,0.,0.,0.,0.2853614,0.0966404,-0.023213,0.,-
 0.0580534,-0.4963968,0.,0.,0.,-0.1365281\Polar=53.1346465,1.8000075,53
 .522709,0.,0.,26.9374142\PG=CS [SG(C3H4N2)]\NImag=0\\0.31015724,0.1105
 0749,0.09329867,0.,0.,0.01848627,-0.29337761,-0.11046032,0.,0.77597580
 ,-0.10211398,-0.10168735,0.,0.11699523,0.63456152,0.,0.,-0.02215522,0.
 ,0.,0.10943616,-0.00015355,0.00079444,0.,0.01080861,-0.01091517,0.,0.1
 4031943,-0.00044367,0.00027694,0.,0.01676190,-0.00960177,0.,-0.1450713
 7,0.26140039,0.,0.,-0.00245905,0.,0.,-0.00213534,0.,0.,0.02014542,0.00
 176629,-0.02113257,0.,-0.12438432,-0.06499098,0.,-0.14182228,0.1330618
 2,0.,0.59606753,0.00197617,0.00331289,0.,-0.08950737,-0.32681340,0.,0.
 13568844,-0.25292436,0.,-0.12152926,0.77227930,0.,0.,0.00049597,0.,0.,
 -0.05873497,0.,0.,-0.02353110,0.,0.,0.10761900,0.00017509,-0.00129613,
 0.,-0.00544415,0.00106733,0.,0.00027203,0.00054269,0.,-0.00679367,-0.0
 1924138,0.,0.19054100,-0.00005469,0.00065047,0.,0.00274942,-0.00066939
 ,0.,-0.00070207,-0.00018146,0.,0.00498641,0.00763128,0.,0.15099643,0.2
 1329256,0.,0.,0.00085729,0.,0.,0.00422852,0.,0.,-0.00179948,0.,0.,0.00
 055495,0.,0.,0.02249584,-0.00059868,-0.00239281,0.,-0.03555072,-0.0793
 3773,0.,-0.00170488,-0.00297659,0.,-0.28585374,0.02214419,0.,-0.191371
 31,-0.13756107,0.,0.66876614,0.00144567,-0.00592483,0.,-0.01514729,0.0
 1056391,0.,0.02286998,0.00484869,0.,-0.00878049,-0.10256401,0.,-0.1441
 5293,-0.19580725,0.,0.13065636,0.72397764,0.,0.,0.00442646,0.,0.,0.010
 33927,0.,0.,-0.00291676,0.,0.,-0.06087241,0.,0.,-0.02747969,0.,0.,0.12
 853865,-0.00192878,0.00403524,0.,-0.09357587,0.01224880,0.,-0.00627617
 ,-0.00198853,0.,-0.03247554,0.01532208,0.,0.01038415,-0.02006094,0.,-0
 .12073086,0.06039000,0.,0.45494888,0.00215946,-0.00306821,0.,-0.018416
 72,-0.02234687,0.,0.00272118,0.00050379,0.,0.08087510,-0.01872852,0.,0
 .00689230,-0.01844929,0.,0.09614291,-0.31794717,0.,-0.03705706,0.52276
 670,0.,0.,0.00614783,0.,0.,0.01717962,0.,0.,0.00622465,0.,0.,0.0188065
 3,0.,0.,-0.00734676,0.,0.,-0.06825141,0.,0.,0.09973708,-0.00011185,-0.
 00072490,0.,0.00961441,0.02344334,0.,0.00091185,0.00098056,0.,-0.00588
 035,0.00412245,0.,0.00085168,-0.00146376,0.,-0.00767668,-0.00516495,0.
 ,0.00655704,-0.03253278,0.,0.06191446,0.00032049,0.00004133,0.,-0.0047
 7291,-0.00655588,0.,-0.00031073,-0.00008343,0.,0.00299927,0.00093967,0
 .,0.00040793,-0.00034773,0.,-0.00476831,0.00094918,0.,0.00006931,-0.01
 335103,0.,-0.01869190,0.45420764,0.,0.,-0.00146274,0.,0.,-0.00736302,0
 .,0.,0.00207126,0.,0.,0.00289099,0.,0.,0.00214092,0.,0.,0.00410412,0.,
 0.,-0.01175325,0.,0.,0.01171343,-0.01592815,0.02066957,0.,-0.24406614,
 0.10360315,0.,-0.00235504,-0.00086681,0.,-0.00062392,0.05102468,0.,0.0
 0138517,0.00111029,0.,-0.02527928,-0.04211634,0.,-0.21690284,-0.100784
 38,0.,-0.06618056,0.02474685,0.,0.56995076,-0.01379692,0.01310010,0.,0
 .10179806,-0.17745077,0.,-0.00507470,-0.00423879,0.,-0.00548929,-0.083
 13286,0.,0.00478376,-0.00611918,0.,-0.02190696,-0.11809616,0.,-0.03295
 888,-0.12937940,0.,0.03003194,-0.43579975,0.,-0.05738702,0.94111681,0.
 ,0.,-0.00433680,0.,0.,-0.05079502,0.,0.,0.00440040,0.,0.,0.01277105,0.
 ,0.,0.00634841,0.,0.,0.01211177,0.,0.,-0.06074428,0.,0.,-0.00234172,0.
 ,0.,0.08258619\\-0.00001661,0.00003352,0.,0.00012998,-0.00017961,0.,-0
 .00000910,-0.00002315,0.,0.00000303,0.00007939,0.,0.00004220,-0.000051
 17,0.,0.00001688,0.00003241,0.,-0.00013167,-0.00006080,0.,-0.00001190,
 0.00001727,0.,-0.00002281,0.00015213,0.\\\@


 MUD THROWN IS GROUND LOST -- FROM A TEA BAG
 Job cpu time:  0 days  1 hours 52 minutes 54.5 seconds.
 File lengths (MBytes):  RWF=     43 Int=      0 D2E=      0 Chk=      8 Scr=      1
 Normal termination of Gaussian 03 at Fri Jun 18 07:06:53 2004.
