 Entering Gaussian System, Link 0=/usr/local/gaussian03/g03/g03
 Initial command:
 /usr/local/gaussian03/g03/l1.exe /chkpnt/Gau-744133.inp -scrdir=/chkpnt/
 Entering Link 1 = /usr/local/gaussian03/g03/l1.exe PID=    739597.
  
 Copyright (c) 1988,1990,1992,1993,1995,1998,2003,2004, Gaussian, Inc.
                  All Rights Reserved.
  
 This is the Gaussian(R) 03 program.  It is based on the
 the Gaussian(R) 98 system (copyright 1998, Gaussian, Inc.),
 the Gaussian(R) 94 system (copyright 1995, Gaussian, Inc.),
 the Gaussian 92(TM) system (copyright 1992, Gaussian, Inc.),
 the Gaussian 90(TM) system (copyright 1990, Gaussian, Inc.),
 the Gaussian 88(TM) system (copyright 1988, Gaussian, Inc.),
 the Gaussian 86(TM) system (copyright 1986, Carnegie Mellon
 University), and the Gaussian 82(TM) system (copyright 1983,
 Carnegie Mellon University). Gaussian is a federally registered
 trademark of Gaussian, Inc.
  
 This software contains proprietary and confidential information,
 including trade secrets, belonging to Gaussian, Inc.
  
 This software is provided under written license and may be
 used, copied, transmitted, or stored only in accord with that
 written license.
  
 The following legend is applicable only to US Government
 contracts under FAR:
  
                    RESTRICTED RIGHTS LEGEND
  
 Use, reproduction and disclosure by the US Government is
 subject to restrictions as set forth in subparagraphs (a)
 and (c) of the Commercial Computer Software - Restricted
 Rights clause in FAR 52.227-19.
  
 Gaussian, Inc.
 340 Quinnipiac St., Bldg. 40, Wallingford CT 06492
  
  
 ---------------------------------------------------------------
 Warning -- This program may not be used in any manner that
 competes with the business of Gaussian, Inc. or will provide
 assistance to any competitor of Gaussian, Inc.  The licensee
 of this program is prohibited from giving any competitor of
 Gaussian, Inc. access to this program.  By using this program,
 the user acknowledges that Gaussian, Inc. is engaged in the
 business of creating and licensing software in the field of
 computational chemistry and represents and warrants to the
 licensee that it is not a competitor of Gaussian, Inc. and that
 it will not use this program in any manner prohibited above.
 ---------------------------------------------------------------
  

 Cite this work as:
 Gaussian 03, Revision C.02,
 M. J. Frisch, G. W. Trucks, H. B. Schlegel, G. E. Scuseria, 
 M. A. Robb, J. R. Cheeseman, J. A. Montgomery, Jr., T. Vreven, 
 K. N. Kudin, J. C. Burant, J. M. Millam, S. S. Iyengar, J. Tomasi, 
 V. Barone, B. Mennucci, M. Cossi, G. Scalmani, N. Rega, 
 G. A. Petersson, H. Nakatsuji, M. Hada, M. Ehara, K. Toyota, 
 R. Fukuda, J. Hasegawa, M. Ishida, T. Nakajima, Y. Honda, O. Kitao, 
 H. Nakai, M. Klene, X. Li, J. E. Knox, H. P. Hratchian, J. B. Cross, 
 C. Adamo, J. Jaramillo, R. Gomperts, R. E. Stratmann, O. Yazyev, 
 A. J. Austin, R. Cammi, C. Pomelli, J. W. Ochterski, P. Y. Ayala, 
 K. Morokuma, G. A. Voth, P. Salvador, J. J. Dannenberg, 
 V. G. Zakrzewski, S. Dapprich, A. D. Daniels, M. C. Strain, 
 O. Farkas, D. K. Malick, A. D. Rabuck, K. Raghavachari, 
 J. B. Foresman, J. V. Ortiz, Q. Cui, A. G. Baboul, S. Clifford, 
 J. Cioslowski, B. B. Stefanov, G. Liu, A. Liashenko, P. Piskorz, 
 I. Komaromi, R. L. Martin, D. J. Fox, T. Keith, M. A. Al-Laham, 
 C. Y. Peng, A. Nanayakkara, M. Challacombe, P. M. W. Gill, 
 B. Johnson, W. Chen, M. W. Wong, C. Gonzalez, and J. A. Pople, 
 Gaussian, Inc., Wallingford CT, 2004.
 
 ******************************************
 Gaussian 03:  SGI64-G03RevC.02 12-Jun-2004
                 8-Jan-2005 
 ******************************************
 %mem=24000000
 --------------------
 #MP3/6-31G* opt freq
 --------------------
 1/18=20,38=1/1,3;
 2/9=110,17=6,18=5,40=1/2;
 3/5=1,6=6,7=1,11=9,16=1,25=1,30=1/1,2,3;
 4//1;
 5/5=2,38=5/2;
 8/6=4,9=120000,10=2/1,4;
 9/5=2,15=1/13;
 11/28=-10,29=200,42=3/11;
 10/5=8/2;
 6/7=2,8=2,9=2,10=2/1;
 7/12=3/1,2,3,16;
 1/18=20/3(1);
 99//99;
 2/9=110/2;
 3/5=1,6=6,7=1,11=9,16=1,25=1,30=1/1,2,3;
 4/5=5,16=3/1;
 5/5=2,38=5/2;
 8/6=4,9=120000,10=2/1,4;
 9/5=2,15=1/13;
 11/28=-10,29=200,42=3/11;
 10/5=8/2;
 7/12=3/1,2,3,16;
 1/18=20/3(-9);
 2/9=110/2;
 6/7=2,8=2,9=2,10=2/1;
 99//99;
 -------------------------------------------------
 1H pyrazole C3H4N2 casno=288131 method=62 basis=1
 -------------------------------------------------
 Symbolic Z-matrix:
 Charge =  0 Multiplicity = 1
 H                    -1.9125    0.       -0.75938 
 C                    -1.08438   0.       -0.21875 
 H                     0.43438   0.       -1.63125 
 C                     0.15      0.       -0.68438 
 H                     1.9125    0.        0.37188 
 C                     0.92188   0.        0.375 
 N                     0.18125   0.        1.41875 
 H                    -1.74063   0.        1.63125 
 N                    -1.00313   0.        1.05313 
 

 GradGradGradGradGradGradGradGradGradGradGradGradGradGradGradGradGradGrad
 Berny optimization.
 Initialization pass.
                           ----------------------------
                           !    Initial Parameters    !
                           ! (Angstroms and Degrees)  !
 --------------------------                            --------------------------
 ! Name  Definition              Value          Derivative Info.                !
 --------------------------------------------------------------------------------
 ! R1    R(1,2)                  0.989          estimate D2E/DX2                !
 ! R2    R(2,4)                  1.3193         estimate D2E/DX2                !
 ! R3    R(2,9)                  1.2745         estimate D2E/DX2                !
 ! R4    R(3,4)                  0.9887         estimate D2E/DX2                !
 ! R5    R(4,6)                  1.3108         estimate D2E/DX2                !
 ! R6    R(5,6)                  0.9906         estimate D2E/DX2                !
 ! R7    R(6,7)                  1.2798         estimate D2E/DX2                !
 ! R8    R(7,9)                  1.2395         estimate D2E/DX2                !
 ! R9    R(8,9)                  0.9371         estimate D2E/DX2                !
 ! A1    A(1,2,4)              126.195          estimate D2E/DX2                !
 ! A2    A(1,2,9)              126.7929         estimate D2E/DX2                !
 ! A3    A(4,2,9)              107.012          estimate D2E/DX2                !
 ! A4    A(2,4,3)              127.3838         estimate D2E/DX2                !
 ! A5    A(2,4,6)              105.4104         estimate D2E/DX2                !
 ! A6    A(3,4,6)              127.2058         estimate D2E/DX2                !
 ! A7    A(4,6,5)              125.8968         estimate D2E/DX2                !
 ! A8    A(4,6,7)              108.5636         estimate D2E/DX2                !
 ! A9    A(5,6,7)              125.5395         estimate D2E/DX2                !
 ! A10   A(6,7,9)              108.203          estimate D2E/DX2                !
 ! A11   A(2,9,7)              110.811          estimate D2E/DX2                !
 ! A12   A(2,9,8)              124.4376         estimate D2E/DX2                !
 ! A13   A(7,9,8)              124.7513         estimate D2E/DX2                !
 ! D1    D(1,2,4,3)              0.0            estimate D2E/DX2                !
 ! D2    D(1,2,4,6)            180.0            estimate D2E/DX2                !
 ! D3    D(9,2,4,3)            180.0            estimate D2E/DX2                !
 ! D4    D(9,2,4,6)              0.0            estimate D2E/DX2                !
 ! D5    D(1,2,9,7)            180.0            estimate D2E/DX2                !
 ! D6    D(1,2,9,8)              0.0            estimate D2E/DX2                !
 ! D7    D(4,2,9,7)              0.0            estimate D2E/DX2                !
 ! D8    D(4,2,9,8)            180.0            estimate D2E/DX2                !
 ! D9    D(2,4,6,5)            180.0            estimate D2E/DX2                !
 ! D10   D(2,4,6,7)              0.0            estimate D2E/DX2                !
 ! D11   D(3,4,6,5)              0.0            estimate D2E/DX2                !
 ! D12   D(3,4,6,7)            180.0            estimate D2E/DX2                !
 ! D13   D(4,6,7,9)              0.0            estimate D2E/DX2                !
 ! D14   D(5,6,7,9)            180.0            estimate D2E/DX2                !
 ! D15   D(6,7,9,2)              0.0            estimate D2E/DX2                !
 ! D16   D(6,7,9,8)            180.0            estimate D2E/DX2                !
 --------------------------------------------------------------------------------
 Trust Radius=3.00D-01 FncErr=1.00D-07 GrdErr=1.00D-07
 Number of steps in this run=  48 maximum allowed number of steps= 100.
 GradGradGradGradGradGradGradGradGradGradGradGradGradGradGradGradGradGrad

                          Input orientation:                          
 ---------------------------------------------------------------------
 Center     Atomic     Atomic              Coordinates (Angstroms)
 Number     Number      Type              X           Y           Z
 ---------------------------------------------------------------------
    1          1             0       -1.912500    0.000000   -0.759375
    2          6             0       -1.084375    0.000000   -0.218750
    3          1             0        0.434375    0.000000   -1.631250
    4          6             0        0.150000    0.000000   -0.684375
    5          1             0        1.912500    0.000000    0.371875
    6          6             0        0.921875    0.000000    0.375000
    7          7             0        0.181250    0.000000    1.418750
    8          1             0       -1.740625    0.000000    1.631250
    9          7             0       -1.003125    0.000000    1.053125
 ---------------------------------------------------------------------
                    Distance matrix (angstroms):
                    1          2          3          4          5
     1  H    0.000000
     2  C    0.988972   0.000000
     3  H    2.503595   2.074068   0.000000
     4  C    2.063863   1.319276   0.988656   0.000000
     5  H    3.988778   3.054521   2.489450   2.054768   0.000000
     6  C    3.052947   2.092266   2.064630   1.310750   0.990630
     7  N    3.021261   2.069592   3.060486   2.103357   2.023159
     8  H    2.396796   1.962948   3.921037   2.989412   3.864110
     9  N    2.027836   1.274468   3.045041   2.085331   2.994156
                    6          7          8          9
     6  C    0.000000
     7  N    1.279820   0.000000
     8  H    2.943989   1.933587   0.000000
     9  N    2.040950   1.239526   0.937088   0.000000
 Stoichiometry    C3H4N2
 Framework group  CS[SG(C3H4N2)]
 Deg. of freedom    15
 Full point group                 CS      NOp   2
 Largest Abelian subgroup         CS      NOp   2
 Largest concise Abelian subgroup C1      NOp   1
                         Standard orientation:                         
 ---------------------------------------------------------------------
 Center     Atomic     Atomic              Coordinates (Angstroms)
 Number     Number      Type              X           Y           Z
 ---------------------------------------------------------------------
    1          1             0        1.974407    0.585689    0.000000
    2          6             0        1.028833    0.295936    0.000000
    3          1             0        1.140941   -1.775099    0.000000
    4          6             0        0.595873   -0.950271    0.000000
    5          1             0       -1.344123   -1.627388    0.000000
    6          6             0       -0.712074   -0.864589    0.000000
    7          7             0       -1.039336    0.372682    0.000000
    8          1             0        0.028336    1.984773    0.000000
    9          7             0        0.000000    1.048113    0.000000
 ---------------------------------------------------------------------
 Rotational constants (GHZ):     11.1878017     10.4520035      5.4036966
 Standard basis: 6-31G(d) (6D, 7F)
 There are    63 symmetry adapted basis functions of A'  symmetry.
 There are    20 symmetry adapted basis functions of A"  symmetry.
 Integral buffers will be    131072 words long.
 Raffenetti 1 integral format.
 Two-electron integral symmetry is turned on.
    83 basis functions,   156 primitive gaussians,    83 cartesian basis functions
    18 alpha electrons       18 beta electrons
       nuclear repulsion energy       173.7391745845 Hartrees.
 NAtoms=    9 NActive=    9 NUniq=    9 SFac= 1.00D+00 NAtFMM=   60 Big=F
 One-electron integrals computed using PRISM.
 NBasis=    83 RedAO= T  NBF=    63    20
 NBsUse=    83 1.00D-06 NBFU=    63    20
 Harris functional with IExCor=  205 diagonalized for initial guess.
 ExpMin= 1.61D-01 ExpMax= 4.17D+03 ExpMxC= 6.27D+02 IAcc=1 IRadAn=         1 AccDes= 1.00D-06
 HarFok:  IExCor= 205 AccDes= 1.00D-06 IRadAn=         1 IDoV=1
 ScaDFX=  1.000000  1.000000  1.000000  1.000000
 Initial guess orbital symmetries:
       Occupied  (A') (A') (A') (A') (A') (A') (A') (A') (A') (A')
                 (A') (A') (A') (A") (A') (A") (A') (A")
       Virtual   (A") (A") (A') (A') (A') (A') (A') (A') (A') (A')
                 (A') (A") (A') (A') (A') (A") (A") (A') (A') (A')
                 (A") (A') (A') (A") (A') (A') (A') (A') (A') (A')
                 (A') (A") (A') (A") (A") (A') (A') (A") (A') (A")
                 (A') (A') (A') (A') (A') (A') (A") (A") (A') (A")
                 (A') (A") (A') (A') (A") (A') (A') (A') (A') (A')
                 (A') (A') (A') (A') (A')
 The electronic state of the initial guess is 1-A'.
 Requested convergence on RMS density matrix=1.00D-08 within 128 cycles.
 Requested convergence on MAX density matrix=1.00D-06.
 Requested convergence on             energy=1.00D-06.
 No special actions if energy rises.
 Keep R1 integrals in memory in canonical form, NReq=     7236413.
 SCF Done:  E(RHF) =  -224.739171388     A.U. after   14 cycles
             Convg  =    0.5416D-08             -V/T =  1.9942
             S**2   =   0.0000
 ExpMin= 1.61D-01 ExpMax= 4.17D+03 ExpMxC= 6.27D+02 IAcc=1 IRadAn=         1 AccDes= 1.00D-06
 HarFok:  IExCor= 205 AccDes= 1.00D-06 IRadAn=         1 IDoV=1
 ScaDFX=  1.000000  1.000000  1.000000  1.000000
 Range of M.O.s used for correlation:     6    83
 NBasis=    83 NAE=    18 NBE=    18 NFC=     5 NFV=     0
 NROrb=     78 NOA=    13 NOB=    13 NVA=    65 NVB=    65
 Spin components of T(2) and E(2):
     alpha-alpha T2 =       0.3114403790D-01 E2=     -0.9508955479D-01
     alpha-beta  T2 =       0.1588388068D+00 E2=     -0.5010037747D+00
     beta-beta   T2 =       0.3114403790D-01 E2=     -0.9508955479D-01
 ANorm=    0.1105046100D+01
 E2=       -0.6911828843D+00 EUMP2=       -0.22543035427262D+03
 R2 and R3 integrals will be kept in memory, NReq=    12975682.
 DD1Dir will call FoFMem   1 times, MxPair=       182
 NAB=    91 NAA=     0 NBB=     0.
 E3=       -0.14929606D-01        EUMP3=      -0.22544528388D+03
 Largest amplitude= 6.99D-02
 Discarding MO integrals.
 DoAtom=TTTTTTTTT
          Differentiating once with respect to electric field.
                with respect to dipole field.
          Differentiating once with respect to nuclear coordinates.
          Store integrals in memory, NReq=     6898761.
          There are   1 degrees of freedom in the 1st order CPHF.
     1 vectors were produced by pass  0.
 AX will form   1 AO Fock derivatives at one time.
     1 vectors were produced by pass  1.
     1 vectors were produced by pass  2.
     1 vectors were produced by pass  3.
     1 vectors were produced by pass  4.
     1 vectors were produced by pass  5.
     1 vectors were produced by pass  6.
     1 vectors were produced by pass  7.
     1 vectors were produced by pass  8.
     1 vectors were produced by pass  9.
     1 vectors were produced by pass 10.
     1 vectors were produced by pass 11.
     1 vectors were produced by pass 12.
     1 vectors were produced by pass 13.
 Inv2:  IOpt= 1 Iter= 1 AM= 3.70D-16 Conv= 1.00D-12.
 Inverted reduced A of dimension   14 with in-core refinement.
 End of Minotr Frequency-dependent properties file   721 does not exist.

 **********************************************************************

            Population analysis using the SCF density.

 **********************************************************************

 Orbital symmetries:
       Occupied  (A') (A') (A') (A') (A') (A') (A') (A') (A') (A')
                 (A') (A') (A") (A') (A') (A') (A") (A")
       Virtual   (A") (A') (A") (A') (A') (A') (A') (A') (A') (A')
                 (A') (A') (A") (A") (A') (A') (A") (A') (A') (A')
                 (A") (A') (A") (A') (A') (A') (A') (A') (A') (A')
                 (A') (A') (A") (A') (A") (A") (A') (A') (A") (A")
                 (A') (A') (A') (A') (A') (A") (A") (A') (A') (A")
                 (A') (A") (A') (A') (A") (A') (A') (A') (A') (A')
                 (A') (A') (A') (A') (A')
 The electronic state is 1-A'.
 Alpha  occ. eigenvalues --  -15.63749 -15.55838 -11.23243 -11.20912 -11.17676
 Alpha  occ. eigenvalues --   -1.45250  -1.12684  -1.08058  -0.86532  -0.83132
 Alpha  occ. eigenvalues --   -0.77142  -0.65200  -0.64788  -0.60842  -0.56560
 Alpha  occ. eigenvalues --   -0.43623  -0.37180  -0.33984
 Alpha virt. eigenvalues --    0.21176   0.23636   0.27509   0.30241   0.32074
 Alpha virt. eigenvalues --    0.34396   0.43280   0.45740   0.48259   0.57056
 Alpha virt. eigenvalues --    0.72095   0.74044   0.76195   0.82057   0.83408
 Alpha virt. eigenvalues --    0.85705   0.89769   0.91841   0.96712   0.98382
 Alpha virt. eigenvalues --    0.99384   1.06124   1.09730   1.10332   1.13853
 Alpha virt. eigenvalues --    1.15871   1.20147   1.21944   1.27400   1.32174
 Alpha virt. eigenvalues --    1.52002   1.54113   1.55780   1.62849   1.65121
 Alpha virt. eigenvalues --    1.68160   1.79530   1.82146   1.88291   1.90892
 Alpha virt. eigenvalues --    2.10630   2.28057   2.43798   2.50015   2.55496
 Alpha virt. eigenvalues --    2.61560   2.62000   2.63074   2.72603   2.74690
 Alpha virt. eigenvalues --    2.77459   2.82472   2.98927   3.04818   3.08493
 Alpha virt. eigenvalues --    3.13453   3.20053   3.44722   3.60117   3.66757
 Alpha virt. eigenvalues --    4.28425   4.48976   4.58886   4.73038   4.89766
          Condensed to atoms (all electrons):
              1          2          3          4          5          6
     1  H    0.458817   0.393768   0.000043  -0.025056  -0.000162   0.003549
     2  C    0.393768   4.932526  -0.038698   0.611161   0.005678  -0.045164
     3  H    0.000043  -0.038698   0.482653   0.389108  -0.000753  -0.034061
     4  C   -0.025056   0.611161   0.389108   4.928589  -0.049106   0.572139
     5  H   -0.000162   0.005678  -0.000753  -0.049106   0.473119   0.411926
     6  C    0.003549  -0.045164  -0.034061   0.572139   0.411926   4.705976
     7  N    0.004129  -0.195437   0.008585  -0.058588  -0.035392   0.560095
     8  H   -0.000846  -0.040650  -0.000060   0.005027  -0.000064   0.004747
     9  N   -0.039697   0.342663   0.005218  -0.057188   0.004288  -0.204237
              7          8          9
     1  H    0.004129  -0.000846  -0.039697
     2  C   -0.195437  -0.040650   0.342663
     3  H    0.008585  -0.000060   0.005218
     4  C   -0.058588   0.005027  -0.057188
     5  H   -0.035392  -0.000064   0.004288
     6  C    0.560095   0.004747  -0.204237
     7  N    6.701888  -0.035077   0.359106
     8  H   -0.035077   0.312649   0.362253
     9  N    0.359106   0.362253   6.637291
 Mulliken atomic charges:
              1
     1  H    0.205456
     2  C    0.034153
     3  H    0.187966
     4  C   -0.316086
     5  H    0.190466
     6  C    0.025029
     7  N   -0.309310
     8  H    0.392022
     9  N   -0.409697
 Sum of Mulliken charges=   0.00000
 Atomic charges with hydrogens summed into heavy atoms:
              1
     1  H    0.000000
     2  C    0.239610
     3  H    0.000000
     4  C   -0.128121
     5  H    0.000000
     6  C    0.215495
     7  N   -0.309310
     8  H    0.000000
     9  N   -0.017674
 Sum of Mulliken charges=   0.00000
 Electronic spatial extent (au):  <R**2>=   258.4097
 Charge=     0.0000 electrons
 Dipole moment (field-independent basis, Debye):
    X=     2.2286    Y=     0.9272    Z=     0.0000  Tot=     2.4138
 Quadrupole moment (field-independent basis, Debye-Ang):
   XX=   -29.6379   YY=   -21.7098   ZZ=   -30.7726
   XY=     2.7046   XZ=     0.0000   YZ=     0.0000
 Traceless Quadrupole moment (field-independent basis, Debye-Ang):
   XX=    -2.2645   YY=     5.6637   ZZ=    -3.3991
   XY=     2.7046   XZ=     0.0000   YZ=     0.0000
 Octapole moment (field-independent basis, Debye-Ang**2):
  XXX=     8.9099  YYY=    11.1515  ZZZ=     0.0000  XYY=     0.4465
  XXY=    -2.2950  XXZ=     0.0000  XZZ=    -0.6477  YZZ=     1.9245
  YYZ=     0.0000  XYZ=     0.0000
 Hexadecapole moment (field-independent basis, Debye-Ang**3):
 XXXX=  -149.5963 YYYY=  -118.8354 ZZZZ=   -29.9869 XXXY=     7.2697
 XXXZ=     0.0000 YYYX=     0.4887 YYYZ=     0.0000 ZZZX=     0.0000
 ZZZY=     0.0000 XXYY=   -46.7102 XXZZ=   -32.3983 YYZZ=   -32.3906
 XXYZ=     0.0000 YYXZ=     0.0000 ZZXY=    -0.1025
 N-N= 1.737391745845D+02 E-N=-8.738888407240D+02  KE= 2.260600516463D+02
 Symmetry A'   KE= 2.181151550349D+02
 Symmetry A"   KE= 7.944896611466D+00
 ***** Axes restored to original set *****
 -------------------------------------------------------------------
 Center     Atomic                   Forces (Hartrees/Bohr)
 Number     Number              X              Y              Z
 -------------------------------------------------------------------
    1          1          -0.079394294    0.000000000   -0.039817082
    2          6          -0.016161867    0.000000000   -0.057785620
    3          1           0.022479385    0.000000000   -0.085262376
    4          6          -0.014546492    0.000000000   -0.043959089
    5          1           0.085895744    0.000000000    0.012142128
    6          6           0.006868263    0.000000000    0.019270330
    7          7           0.094926096    0.000000000    0.145572044
    8          1          -0.058356367    0.000000000    0.061521895
    9          7          -0.041710469    0.000000000   -0.011682230
 -------------------------------------------------------------------
 Cartesian Forces:  Max     0.145572044 RMS     0.050413510

 GradGradGradGradGradGradGradGradGradGradGradGradGradGradGradGradGradGrad
 Berny optimization.
 Internal  Forces:  Max     0.132222667 RMS     0.049516804
 Search for a local minimum.
 Step number   1 out of a maximum of  48
 All quantities printed in internal units (Hartrees-Bohrs-Radians)
 Second derivative matrix not updated -- first step.
     Eigenvalues ---    0.03204   0.03245   0.03263   0.03273   0.03342
     Eigenvalues ---    0.03375   0.16000   0.16000   0.16000   0.16000
     Eigenvalues ---    0.22000   0.22938   0.49374   0.49681   0.49740
     Eigenvalues ---    0.56490   0.56686   0.60708   0.68179   0.73042
     Eigenvalues ---    0.827791000.000001000.000001000.000001000.00000
     Eigenvalues --- 1000.000001000.000001000.000001000.000001000.00000
     Eigenvalues --- 1000.000001000.000001000.000001000.000001000.00000
     Eigenvalues --- 1000.000001000.000001000.00000
 RFO step:  Lambda=-1.25321083D-01.
 Linear search not attempted -- first point.
 Maximum step size (   0.300) exceeded in Quadratic search.
    -- Step size scaled by   0.706
 Iteration  1 RMS(Cart)=  0.06286944 RMS(Int)=  0.00074971
 Iteration  2 RMS(Cart)=  0.00094431 RMS(Int)=  0.00001431
 Iteration  3 RMS(Cart)=  0.00000063 RMS(Int)=  0.00001430
 Variable       Old X    -DE/DX   Delta X   Delta X   Delta X     New X
                                 (Linear)    (Quad)   (Total)
    R1        1.86889   0.08825   0.00000   0.10020   0.10020   1.96909
    R2        2.49307   0.08045   0.00000   0.07426   0.07425   2.56732
    R3        2.40839   0.11604   0.00000   0.09559   0.09556   2.50395
    R4        1.86829   0.08813   0.00000   0.09997   0.09997   1.96826
    R5        2.47696   0.13222   0.00000   0.11857   0.11859   2.59555
    R6        1.87202   0.08586   0.00000   0.09797   0.09797   1.96999
    R7        2.41851   0.07775   0.00000   0.06416   0.06418   2.48269
    R8        2.34237   0.13042   0.00000   0.09469   0.09468   2.43705
    R9        1.77084   0.08388   0.00000   0.08090   0.08090   1.85174
    A1        2.20252   0.01445   0.00000   0.03415   0.03416   2.23668
    A2        2.21295  -0.00435   0.00000  -0.01240  -0.01239   2.20057
    A3        1.86771  -0.01009   0.00000  -0.02174  -0.02178   1.84594
    A4        2.22327  -0.00323   0.00000  -0.00243  -0.00243   2.22083
    A5        1.83976   0.00087   0.00000  -0.00900  -0.00899   1.83077
    A6        2.22016   0.00236   0.00000   0.01143   0.01142   2.23158
    A7        2.19731   0.00163   0.00000   0.01179   0.01177   2.20908
    A8        1.89479   0.01997   0.00000   0.03396   0.03400   1.92879
    A9        2.19108  -0.02161   0.00000  -0.04575  -0.04576   2.14531
   A10        1.88850  -0.02847   0.00000  -0.04731  -0.04730   1.84120
   A11        1.93402   0.01771   0.00000   0.04409   0.04406   1.97808
   A12        2.17185   0.00214   0.00000   0.00517   0.00519   2.17703
   A13        2.17732  -0.01985   0.00000  -0.04926  -0.04925   2.12807
    D1        0.00000   0.00000   0.00000   0.00000   0.00000   0.00000
    D2        3.14159   0.00000   0.00000   0.00000   0.00000   3.14159
    D3        3.14159   0.00000   0.00000   0.00000   0.00000   3.14159
    D4        0.00000   0.00000   0.00000   0.00000   0.00000   0.00000
    D5        3.14159   0.00000   0.00000   0.00000   0.00000   3.14159
    D6        0.00000   0.00000   0.00000   0.00000   0.00000   0.00000
    D7        0.00000   0.00000   0.00000   0.00000   0.00000   0.00000
    D8        3.14159   0.00000   0.00000   0.00000   0.00000   3.14159
    D9        3.14159   0.00000   0.00000   0.00000   0.00000   3.14159
   D10        0.00000   0.00000   0.00000   0.00000   0.00000   0.00000
   D11        0.00000   0.00000   0.00000   0.00000   0.00000   0.00000
   D12        3.14159   0.00000   0.00000   0.00000   0.00000   3.14159
   D13        0.00000   0.00000   0.00000   0.00000   0.00000   0.00000
   D14        3.14159   0.00000   0.00000   0.00000   0.00000   3.14159
   D15        0.00000   0.00000   0.00000   0.00000   0.00000   0.00000
   D16        3.14159   0.00000   0.00000   0.00000   0.00000   3.14159
         Item               Value     Threshold  Converged?
 Maximum Force            0.132223     0.000450     NO 
 RMS     Force            0.049517     0.000300     NO 
 Maximum Displacement     0.178102     0.001800     NO 
 RMS     Displacement     0.062831     0.001200     NO 
 Predicted change in Energy=-6.289904D-02
 GradGradGradGradGradGradGradGradGradGradGradGradGradGradGradGradGradGrad

                          Input orientation:                          
 ---------------------------------------------------------------------
 Center     Atomic     Atomic              Coordinates (Angstroms)
 Number     Number      Type              X           Y           Z
 ---------------------------------------------------------------------
    1          1             0       -2.006747    0.000000   -0.796302
    2          6             0       -1.117891    0.000000   -0.252527
    3          1             0        0.457527    0.000000   -1.722697
    4          6             0        0.155547    0.000000   -0.725877
    5          1             0        1.991175    0.000000    0.418665
    6          6             0        0.948964    0.000000    0.395287
    7          7             0        0.210463    0.000000    1.481860
    8          1             0       -1.768644    0.000000    1.689650
    9          7             0       -1.011019    0.000000    1.068191
 ---------------------------------------------------------------------
                    Distance matrix (angstroms):
                    1          2          3          4          5
     1  H    0.000000
     2  C    1.041997   0.000000
     3  H    2.632651   2.154841   0.000000
     4  C    2.163441   1.358567   1.041557   0.000000
     5  H    4.178460   3.180691   2.633915   2.163217   0.000000
     6  C    3.186866   2.165999   2.174250   1.373506   1.042473
     7  N    3.179001   2.184633   3.214066   2.208420   2.073962
     8  H    2.497329   2.048299   4.074303   3.088249   3.968834
     9  N    2.113719   1.325035   3.153677   2.139990   3.071654
                    6          7          8          9
     6  C    0.000000
     7  N    1.313783   0.000000
     8  H    3.010111   1.989985   0.000000
     9  N    2.072278   1.289629   0.979901   0.000000
 Stoichiometry    C3H4N2
 Framework group  CS[SG(C3H4N2)]
 Deg. of freedom    15
 Full point group                 CS      NOp   2
 Largest Abelian subgroup         CS      NOp   2
 Largest concise Abelian subgroup C1      NOp   1
                         Standard orientation:                         
 ---------------------------------------------------------------------
 Center     Atomic     Atomic              Coordinates (Angstroms)
 Number     Number      Type              X           Y           Z
 ---------------------------------------------------------------------
    1          1             0        2.069571    0.633259    0.000000
    2          6             0        1.082627    0.299046    0.000000
    3          1             0        1.202375   -1.852464    0.000000
    4          6             0        0.630368   -0.982034    0.000000
    5          1             0       -1.424383   -1.658425    0.000000
    6          6             0       -0.738811   -0.873096    0.000000
    7          7             0       -1.100111    0.390030    0.000000
    8          1             0        0.008106    2.042874    0.000000
    9          7             0        0.000000    1.063007    0.000000
 ---------------------------------------------------------------------
 Rotational constants (GHZ):     10.1192132      9.9614101      5.0198458
 Standard basis: 6-31G(d) (6D, 7F)
 There are    63 symmetry adapted basis functions of A'  symmetry.
 There are    20 symmetry adapted basis functions of A"  symmetry.
 Integral buffers will be    131072 words long.
 Raffenetti 1 integral format.
 Two-electron integral symmetry is turned on.
    83 basis functions,   156 primitive gaussians,    83 cartesian basis functions
    18 alpha electrons       18 beta electrons
       nuclear repulsion energy       167.3527623430 Hartrees.
 NAtoms=    9 NActive=    9 NUniq=    9 SFac= 1.00D+00 NAtFMM=   60 Big=F
 One-electron integrals computed using PRISM.
 NBasis=    83 RedAO= T  NBF=    63    20
 NBsUse=    83 1.00D-06 NBFU=    63    20
 Initial guess read from the read-write file:
 Initial guess orbital symmetries:
       Occupied  (A') (A') (A') (A') (A') (A') (A') (A') (A') (A')
                 (A') (A') (A") (A') (A') (A') (A") (A")
       Virtual   (A") (A') (A") (A') (A') (A') (A') (A') (A') (A')
                 (A') (A') (A") (A") (A') (A') (A") (A') (A') (A')
                 (A") (A') (A") (A') (A') (A') (A') (A') (A') (A')
                 (A') (A') (A") (A') (A") (A") (A') (A') (A") (A")
                 (A') (A') (A') (A') (A') (A") (A") (A') (A') (A")
                 (A') (A") (A') (A') (A") (A') (A') (A') (A') (A')
                 (A') (A') (A') (A') (A')
 Harris functional with IExCor=  205 diagonalized for initial guess.
 ExpMin= 1.61D-01 ExpMax= 4.17D+03 ExpMxC= 6.27D+02 IAcc=1 IRadAn=         1 AccDes= 1.00D-06
 HarFok:  IExCor= 205 AccDes= 1.00D-06 IRadAn=         1 IDoV=1
 ScaDFX=  1.000000  1.000000  1.000000  1.000000
 Requested convergence on RMS density matrix=1.00D-08 within 128 cycles.
 Requested convergence on MAX density matrix=1.00D-06.
 Requested convergence on             energy=1.00D-06.
 No special actions if energy rises.
 Keep R1 integrals in memory in canonical form, NReq=     7236413.
 SCF Done:  E(RHF) =  -224.787126541     A.U. after   13 cycles
             Convg  =    0.7055D-08             -V/T =  1.9995
             S**2   =   0.0000
 ExpMin= 1.61D-01 ExpMax= 4.17D+03 ExpMxC= 6.27D+02 IAcc=1 IRadAn=         1 AccDes= 1.00D-06
 HarFok:  IExCor= 205 AccDes= 1.00D-06 IRadAn=         1 IDoV=1
 ScaDFX=  1.000000  1.000000  1.000000  1.000000
 Range of M.O.s used for correlation:     6    83
 NBasis=    83 NAE=    18 NBE=    18 NFC=     5 NFV=     0
 NROrb=     78 NOA=    13 NOB=    13 NVA=    65 NVB=    65
 Spin components of T(2) and E(2):
     alpha-alpha T2 =       0.3273647654D-01 E2=     -0.9588070543D-01
     alpha-beta  T2 =       0.1697727222D+00 E2=     -0.5113199283D+00
     beta-beta   T2 =       0.3273647654D-01 E2=     -0.9588070543D-01
 ANorm=    0.1111416068D+01
 E2=       -0.7030813392D+00 EUMP2=       -0.22549020788040D+03
 R2 and R3 integrals will be kept in memory, NReq=    12975682.
 DD1Dir will call FoFMem   1 times, MxPair=       182
 NAB=    91 NAA=     0 NBB=     0.
 E3=       -0.13702005D-01        EUMP3=      -0.22550390989D+03
 Largest amplitude= 7.32D-02
 Discarding MO integrals.
 DoAtom=TTTTTTTTT
          Differentiating once with respect to electric field.
                with respect to dipole field.
          Differentiating once with respect to nuclear coordinates.
          Store integrals in memory, NReq=     6898761.
          There are   1 degrees of freedom in the 1st order CPHF.
     1 vectors were produced by pass  0.
 AX will form   1 AO Fock derivatives at one time.
     1 vectors were produced by pass  1.
     1 vectors were produced by pass  2.
     1 vectors were produced by pass  3.
     1 vectors were produced by pass  4.
     1 vectors were produced by pass  5.
     1 vectors were produced by pass  6.
     1 vectors were produced by pass  7.
     1 vectors were produced by pass  8.
     1 vectors were produced by pass  9.
     1 vectors were produced by pass 10.
     1 vectors were produced by pass 11.
     1 vectors were produced by pass 12.
     1 vectors were produced by pass 13.
     1 vectors were produced by pass 14.
 Inv2:  IOpt= 1 Iter= 1 AM= 4.67D-16 Conv= 1.00D-12.
 Inverted reduced A of dimension   15 with in-core refinement.
 End of Minotr Frequency-dependent properties file   721 does not exist.
 ***** Axes restored to original set *****
 -------------------------------------------------------------------
 Center     Atomic                   Forces (Hartrees/Bohr)
 Number     Number              X              Y              Z
 -------------------------------------------------------------------
    1          1          -0.030844291    0.000000000   -0.009627994
    2          6           0.004932947    0.000000000   -0.023003694
    3          1           0.008551559    0.000000000   -0.030525232
    4          6          -0.004541664    0.000000000   -0.010441049
    5          1           0.031322146    0.000000000    0.007393201
    6          6          -0.000688349    0.000000000   -0.000344405
    7          7           0.043218459    0.000000000    0.052307260
    8          1          -0.017897274    0.000000000    0.024155369
    9          7          -0.034053534    0.000000000   -0.009913457
 -------------------------------------------------------------------
 Cartesian Forces:  Max     0.052307260 RMS     0.019752225

 GradGradGradGradGradGradGradGradGradGradGradGradGradGradGradGradGradGrad
 Berny optimization.
 Internal  Forces:  Max     0.055047156 RMS     0.017841796
 Search for a local minimum.
 Step number   2 out of a maximum of  48
 All quantities printed in internal units (Hartrees-Bohrs-Radians)
 Update second derivatives using D2CorX and points  1  2
 Trust test= 9.32D-01 RLast= 3.00D-01 DXMaxT set to 4.24D-01
     Eigenvalues ---    0.03204   0.03247   0.03260   0.03273   0.03342
     Eigenvalues ---    0.03374   0.15897   0.16000   0.16000   0.16030
     Eigenvalues ---    0.22015   0.23703   0.49451   0.49711   0.51207
     Eigenvalues ---    0.57135   0.58250   0.61661   0.68540   0.75346
     Eigenvalues ---    0.809031000.000001000.000001000.000001000.00000
     Eigenvalues --- 1000.000001000.000001000.000001000.000001000.00000
     Eigenvalues --- 1000.000001000.000001000.000001000.000001000.00000
     Eigenvalues --- 1000.000001000.000001000.00000
 RFO step:  Lambda=-2.72054717D-03.
 Quartic linear search produced a step of  0.71120.
 Iteration  1 RMS(Cart)=  0.05277339 RMS(Int)=  0.00133173
 Iteration  2 RMS(Cart)=  0.00153826 RMS(Int)=  0.00003584
 Iteration  3 RMS(Cart)=  0.00000250 RMS(Int)=  0.00003577
 Iteration  4 RMS(Cart)=  0.00000000 RMS(Int)=  0.00003577
 Variable       Old X    -DE/DX   Delta X   Delta X   Delta X     New X
                                 (Linear)    (Quad)   (Total)
    R1        1.96909   0.03134   0.07126   0.00404   0.07531   2.04440
    R2        2.56732   0.02818   0.05281  -0.00228   0.05048   2.61780
    R3        2.50395   0.03811   0.06796  -0.00747   0.06045   2.56440
    R4        1.96826   0.03169   0.07110   0.00539   0.07649   2.04474
    R5        2.59555   0.04255   0.08434  -0.01365   0.07071   2.66626
    R6        1.96999   0.03148   0.06968   0.00748   0.07716   2.04714
    R7        2.48269   0.02706   0.04564  -0.00189   0.04382   2.52651
    R8        2.43705   0.05505   0.06734   0.01585   0.08321   2.52026
    R9        1.85174   0.02916   0.05754  -0.00097   0.05657   1.90831
    A1        2.23668   0.00794   0.02430   0.04678   0.07113   2.30781
    A2        2.20057  -0.00758  -0.00881  -0.06441  -0.07317   2.12740
    A3        1.84594  -0.00036  -0.01549   0.01763   0.00204   1.84797
    A4        2.22083  -0.00137  -0.00173   0.00310   0.00139   2.22223
    A5        1.83077   0.00144  -0.00639  -0.00450  -0.01094   1.81983
    A6        2.23158  -0.00006   0.00812   0.00140   0.00954   2.24113
    A7        2.20908   0.00319   0.00837   0.03665   0.04498   2.25406
    A8        1.92879   0.00680   0.02418   0.00096   0.02520   1.95400
    A9        2.14531  -0.00999  -0.03255  -0.03761  -0.07019   2.07513
   A10        1.84120  -0.00870  -0.03364   0.00844  -0.02509   1.81612
   A11        1.97808   0.00082   0.03134  -0.02253   0.00878   1.98686
   A12        2.17703   0.00637   0.00369   0.05216   0.05586   2.23290
   A13        2.12807  -0.00719  -0.03503  -0.02963  -0.06464   2.06343
    D1        0.00000   0.00000   0.00000   0.00000   0.00000   0.00000
    D2        3.14159   0.00000   0.00000   0.00000   0.00000   3.14159
    D3        3.14159   0.00000   0.00000   0.00000   0.00000   3.14159
    D4        0.00000   0.00000   0.00000   0.00000   0.00000   0.00000
    D5        3.14159   0.00000   0.00000   0.00000   0.00000   3.14159
    D6        0.00000   0.00000   0.00000   0.00000   0.00000   0.00000
    D7        0.00000   0.00000   0.00000   0.00000   0.00000   0.00000
    D8        3.14159   0.00000   0.00000   0.00000   0.00000   3.14159
    D9        3.14159   0.00000   0.00000   0.00000   0.00000   3.14159
   D10        0.00000   0.00000   0.00000   0.00000   0.00000   0.00000
   D11        0.00000   0.00000   0.00000   0.00000   0.00000   0.00000
   D12        3.14159   0.00000   0.00000   0.00000   0.00000   3.14159
   D13        0.00000   0.00000   0.00000   0.00000   0.00000   0.00000
   D14        3.14159   0.00000   0.00000   0.00000   0.00000   3.14159
   D15        0.00000   0.00000   0.00000   0.00000   0.00000   0.00000
   D16        3.14159   0.00000   0.00000   0.00000   0.00000   3.14159
         Item               Value     Threshold  Converged?
 Maximum Force            0.055047     0.000450     NO 
 RMS     Force            0.017842     0.000300     NO 
 Maximum Displacement     0.160271     0.001800     NO 
 RMS     Displacement     0.052743     0.001200     NO 
 Predicted change in Energy=-8.748167D-03
 GradGradGradGradGradGradGradGradGradGradGradGradGradGradGradGradGradGrad

                          Input orientation:                          
 ---------------------------------------------------------------------
 Center     Atomic     Atomic              Coordinates (Angstroms)
 Number     Number      Type              X           Y           Z
 ---------------------------------------------------------------------
    1          1             0       -2.091559    0.000000   -0.789082
    2          6             0       -1.132590    0.000000   -0.288309
    3          1             0        0.486119    0.000000   -1.800666
    4          6             0        0.167495    0.000000   -0.766610
    5          1             0        2.045678    0.000000    0.485033
    6          6             0        0.965989    0.000000    0.396626
    7          7             0        0.226569    0.000000    1.510513
    8          1             0       -1.777894    0.000000    1.743882
    9          7             0       -1.030432    0.000000    1.064863
 ---------------------------------------------------------------------
                    Distance matrix (angstroms):
                    1          2          3          4          5
     1  H    0.000000
     2  C    1.081848   0.000000
     3  H    2.769066   2.215275   0.000000
     4  C    2.259166   1.385278   1.082031   0.000000
     5  H    4.328984   3.271001   2.767064   2.257029   0.000000
     6  C    3.279406   2.207526   2.249081   1.410925   1.083302
     7  N    3.265250   2.254568   3.321336   2.277889   2.088245
     8  H    2.552311   2.132186   4.205897   3.176021   4.025469
     9  N    2.136142   1.357023   3.242095   2.188452   3.130280
                    6          7          8          9
     6  C    0.000000
     7  N    1.336969   0.000000
     8  H    3.056794   2.018002   0.000000
     9  N    2.105287   1.333662   1.009835   0.000000
 Stoichiometry    C3H4N2
 Framework group  CS[SG(C3H4N2)]
 Deg. of freedom    15
 Full point group                 CS      NOp   2
 Largest Abelian subgroup         CS      NOp   2
 Largest concise Abelian subgroup C1      NOp   1
                         Standard orientation:                         
 ---------------------------------------------------------------------
 Center     Atomic     Atomic              Coordinates (Angstroms)
 Number     Number      Type              X           Y           Z
 ---------------------------------------------------------------------
    1          1             0        2.107092    0.729831    0.000000
    2          6             0        1.112589    0.303969    0.000000
    3          1             0        1.259769   -1.906411    0.000000
    4          6             0        0.660523   -1.005470    0.000000
    5          1             0       -1.497020   -1.668183    0.000000
    6          6             0       -0.745500   -0.887951    0.000000
    7          7             0       -1.140360    0.389379    0.000000
    8          1             0       -0.052990    2.089366    0.000000
    9          7             0        0.000000    1.080923    0.000000
 ---------------------------------------------------------------------
 Rotational constants (GHZ):      9.6809157      9.4226729      4.7750244
 Standard basis: 6-31G(d) (6D, 7F)
 There are    63 symmetry adapted basis functions of A'  symmetry.
 There are    20 symmetry adapted basis functions of A"  symmetry.
 Integral buffers will be    131072 words long.
 Raffenetti 1 integral format.
 Two-electron integral symmetry is turned on.
    83 basis functions,   156 primitive gaussians,    83 cartesian basis functions
    18 alpha electrons       18 beta electrons
       nuclear repulsion energy       163.1359927336 Hartrees.
 NAtoms=    9 NActive=    9 NUniq=    9 SFac= 1.00D+00 NAtFMM=   60 Big=F
 One-electron integrals computed using PRISM.
 NBasis=    83 RedAO= T  NBF=    63    20
 NBsUse=    83 1.00D-06 NBFU=    63    20
 Initial guess read from the read-write file:
 Initial guess orbital symmetries:
       Occupied  (A') (A') (A') (A') (A') (A') (A') (A') (A') (A')
                 (A') (A') (A") (A') (A') (A') (A") (A")
       Virtual   (A") (A') (A") (A') (A') (A') (A') (A') (A') (A')
                 (A') (A') (A") (A') (A") (A') (A') (A") (A') (A')
                 (A") (A') (A') (A") (A') (A') (A') (A') (A') (A')
                 (A') (A') (A") (A') (A") (A") (A') (A') (A") (A")
                 (A') (A') (A') (A') (A') (A') (A") (A") (A') (A")
                 (A') (A") (A') (A') (A") (A') (A') (A') (A') (A')
                 (A') (A') (A') (A') (A')
 Harris functional with IExCor=  205 diagonalized for initial guess.
 ExpMin= 1.61D-01 ExpMax= 4.17D+03 ExpMxC= 6.27D+02 IAcc=1 IRadAn=         1 AccDes= 1.00D-06
 HarFok:  IExCor= 205 AccDes= 1.00D-06 IRadAn=         1 IDoV=1
 ScaDFX=  1.000000  1.000000  1.000000  1.000000
 Requested convergence on RMS density matrix=1.00D-08 within 128 cycles.
 Requested convergence on MAX density matrix=1.00D-06.
 Requested convergence on             energy=1.00D-06.
 No special actions if energy rises.
 Keep R1 integrals in memory in canonical form, NReq=     7236413.
 SCF Done:  E(RHF) =  -224.790770632     A.U. after   13 cycles
             Convg  =    0.8107D-08             -V/T =  2.0027
             S**2   =   0.0000
 ExpMin= 1.61D-01 ExpMax= 4.17D+03 ExpMxC= 6.27D+02 IAcc=1 IRadAn=         1 AccDes= 1.00D-06
 HarFok:  IExCor= 205 AccDes= 1.00D-06 IRadAn=         1 IDoV=1
 ScaDFX=  1.000000  1.000000  1.000000  1.000000
 Range of M.O.s used for correlation:     6    83
 NBasis=    83 NAE=    18 NBE=    18 NFC=     5 NFV=     0
 NROrb=     78 NOA=    13 NOB=    13 NVA=    65 NVB=    65
 Spin components of T(2) and E(2):
     alpha-alpha T2 =       0.3395390991D-01 E2=     -0.9656539043D-01
     alpha-beta  T2 =       0.1782328946D+00 E2=     -0.5192935201D+00
     beta-beta   T2 =       0.3395390991D-01 E2=     -0.9656539043D-01
 ANorm=    0.1116306730D+01
 E2=       -0.7124243010D+00 EUMP2=       -0.22550319493303D+03
 R2 and R3 integrals will be kept in memory, NReq=    12975682.
 DD1Dir will call FoFMem   1 times, MxPair=       182
 NAB=    91 NAA=     0 NBB=     0.
 E3=       -0.12435315D-01        EUMP3=      -0.22551563025D+03
 Largest amplitude= 7.45D-02
 Discarding MO integrals.
 DoAtom=TTTTTTTTT
          Differentiating once with respect to electric field.
                with respect to dipole field.
          Differentiating once with respect to nuclear coordinates.
          Store integrals in memory, NReq=     6898761.
          There are   1 degrees of freedom in the 1st order CPHF.
     1 vectors were produced by pass  0.
 AX will form   1 AO Fock derivatives at one time.
     1 vectors were produced by pass  1.
     1 vectors were produced by pass  2.
     1 vectors were produced by pass  3.
     1 vectors were produced by pass  4.
     1 vectors were produced by pass  5.
     1 vectors were produced by pass  6.
     1 vectors were produced by pass  7.
     1 vectors were produced by pass  8.
     1 vectors were produced by pass  9.
     1 vectors were produced by pass 10.
     1 vectors were produced by pass 11.
     1 vectors were produced by pass 12.
     1 vectors were produced by pass 13.
     1 vectors were produced by pass 14.
 Inv2:  IOpt= 1 Iter= 1 AM= 5.49D-16 Conv= 1.00D-12.
 Inverted reduced A of dimension   15 with in-core refinement.
 End of Minotr Frequency-dependent properties file   721 does not exist.
 ***** Axes restored to original set *****
 -------------------------------------------------------------------
 Center     Atomic                   Forces (Hartrees/Bohr)
 Number     Number              X              Y              Z
 -------------------------------------------------------------------
    1          1           0.001218476    0.000000000    0.000608720
    2          6           0.003535152    0.000000000   -0.003129227
    3          1          -0.000456035    0.000000000    0.001845945
    4          6          -0.005112586    0.000000000    0.000854478
    5          1          -0.001388337    0.000000000   -0.001252260
    6          6           0.001869501    0.000000000    0.004105765
    7          7           0.011307120    0.000000000   -0.000617127
    8          1           0.000568651    0.000000000   -0.002063948
    9          7          -0.011541942    0.000000000   -0.000352346
 -------------------------------------------------------------------
 Cartesian Forces:  Max     0.011541942 RMS     0.003572697

 GradGradGradGradGradGradGradGradGradGradGradGradGradGradGradGradGradGrad
 Berny optimization.
 Internal  Forces:  Max     0.010062287 RMS     0.002103542
 Search for a local minimum.
 Step number   3 out of a maximum of  48
 All quantities printed in internal units (Hartrees-Bohrs-Radians)
 Update second derivatives using D2CorX and points  1  2  3
 Trust test= 1.34D+00 RLast= 2.59D-01 DXMaxT set to 6.00D-01
     Eigenvalues ---    0.03203   0.03248   0.03250   0.03273   0.03342
     Eigenvalues ---    0.03372   0.15424   0.16000   0.16004   0.16028
     Eigenvalues ---    0.22070   0.23523   0.47253   0.49522   0.49717
     Eigenvalues ---    0.57296   0.58727   0.60486   0.67021   0.69429
     Eigenvalues ---    0.808381000.000001000.000001000.000001000.00000
     Eigenvalues --- 1000.000001000.000001000.000001000.000001000.00000
     Eigenvalues --- 1000.000001000.000001000.000001000.000001000.00000
     Eigenvalues --- 1000.000001000.000001000.00000
 RFO step:  Lambda=-2.65466120D-04.
 Quartic linear search produced a step of -0.01179.
 Iteration  1 RMS(Cart)=  0.00508148 RMS(Int)=  0.00001757
 Iteration  2 RMS(Cart)=  0.00001804 RMS(Int)=  0.00000139
 Iteration  3 RMS(Cart)=  0.00000000 RMS(Int)=  0.00000139
 Variable       Old X    -DE/DX   Delta X   Delta X   Delta X     New X
                                 (Linear)    (Quad)   (Total)
    R1        2.04440  -0.00136  -0.00089  -0.00109  -0.00198   2.04242
    R2        2.61780  -0.00446  -0.00060  -0.00697  -0.00757   2.61023
    R3        2.56440  -0.00039  -0.00071   0.00145   0.00074   2.56514
    R4        2.04474  -0.00190  -0.00090  -0.00214  -0.00304   2.04170
    R5        2.66626   0.00116  -0.00083   0.00237   0.00153   2.66780
    R6        2.04714  -0.00149  -0.00091  -0.00135  -0.00226   2.04488
    R7        2.52651  -0.00303  -0.00052  -0.00288  -0.00340   2.52311
    R8        2.52026   0.01006  -0.00098   0.01405   0.01307   2.53333
    R9        1.90831  -0.00181  -0.00067  -0.00168  -0.00234   1.90597
    A1        2.30781  -0.00023  -0.00084   0.00063  -0.00021   2.30761
    A2        2.12740  -0.00018   0.00086  -0.00072   0.00014   2.12754
    A3        1.84797   0.00041  -0.00002   0.00009   0.00007   1.84804
    A4        2.22223  -0.00134  -0.00002  -0.00269  -0.00270   2.21952
    A5        1.81983   0.00290   0.00013   0.00653   0.00666   1.82650
    A6        2.24113  -0.00156  -0.00011  -0.00384  -0.00396   2.23717
    A7        2.25406  -0.00097  -0.00053  -0.00455  -0.00508   2.24898
    A8        1.95400  -0.00039  -0.00030  -0.00370  -0.00399   1.95000
    A9        2.07513   0.00136   0.00083   0.00825   0.00907   2.08420
   A10        1.81612  -0.00084   0.00030   0.00142   0.00171   1.81782
   A11        1.98686  -0.00207  -0.00010  -0.00434  -0.00445   1.98241
   A12        2.23290  -0.00006  -0.00066  -0.00380  -0.00445   2.22844
   A13        2.06343   0.00213   0.00076   0.00814   0.00890   2.07233
    D1        0.00000   0.00000   0.00000   0.00000   0.00000   0.00000
    D2        3.14159   0.00000   0.00000   0.00000   0.00000   3.14159
    D3        3.14159   0.00000   0.00000   0.00000   0.00000   3.14159
    D4        0.00000   0.00000   0.00000   0.00000   0.00000   0.00000
    D5        3.14159   0.00000   0.00000   0.00000   0.00000   3.14159
    D6        0.00000   0.00000   0.00000   0.00000   0.00000   0.00000
    D7        0.00000   0.00000   0.00000   0.00000   0.00000   0.00000
    D8        3.14159   0.00000   0.00000   0.00000   0.00000   3.14159
    D9        3.14159   0.00000   0.00000   0.00000   0.00000   3.14159
   D10        0.00000   0.00000   0.00000   0.00000   0.00000   0.00000
   D11        0.00000   0.00000   0.00000   0.00000   0.00000   0.00000
   D12        3.14159   0.00000   0.00000   0.00000   0.00000   3.14159
   D13        0.00000   0.00000   0.00000   0.00000   0.00000   0.00000
   D14        3.14159   0.00000   0.00000   0.00000   0.00000   3.14159
   D15        0.00000   0.00000   0.00000   0.00000   0.00000   0.00000
   D16        3.14159   0.00000   0.00000   0.00000   0.00000   3.14159
         Item               Value     Threshold  Converged?
 Maximum Force            0.010062     0.000450     NO 
 RMS     Force            0.002104     0.000300     NO 
 Maximum Displacement     0.015541     0.001800     NO 
 RMS     Displacement     0.005078     0.001200     NO 
 Predicted change in Energy=-1.337132D-04
 GradGradGradGradGradGradGradGradGradGradGradGradGradGradGradGradGradGrad

                          Input orientation:                          
 ---------------------------------------------------------------------
 Center     Atomic     Atomic              Coordinates (Angstroms)
 Number     Number      Type              X           Y           Z
 ---------------------------------------------------------------------
    1          1             0       -2.088813    0.000000   -0.790746
    2          6             0       -1.132061    0.000000   -0.287994
    3          1             0        0.483192    0.000000   -1.794470
    4          6             0        0.165392    0.000000   -0.761845
    5          1             0        2.048614    0.000000    0.476809
    6          6             0        0.969338    0.000000    0.398617
    7          7             0        0.231250    0.000000    1.511231
    8          1             0       -1.784368    0.000000    1.738837
    9          7             0       -1.033169    0.000000    1.065812
 ---------------------------------------------------------------------
                    Distance matrix (angstroms):
                    1          2          3          4          5
     1  H    0.000000
     2  C    1.080802   0.000000
     3  H    2.760919   2.208735   0.000000
     4  C    2.254391   1.381274   1.080422   0.000000
     5  H    4.327240   3.271333   2.758488   2.254061   0.000000
     6  C    3.281291   2.210727   2.246323   1.411737   1.082105
     7  N    3.268301   2.257394   3.315288   2.274030   2.091134
     8  H    2.547838   2.129214   4.198344   3.170958   4.035402
     9  N    2.135694   1.357413   3.237370   2.185607   3.137565
                    6          7          8          9
     6  C    0.000000
     7  N    1.335172   0.000000
     8  H    3.062529   2.028427   0.000000
     9  N    2.110730   1.340579   1.008595   0.000000
 Stoichiometry    C3H4N2
 Framework group  CS[SG(C3H4N2)]
 Deg. of freedom    15
 Full point group                 CS      NOp   2
 Largest Abelian subgroup         CS      NOp   2
 Largest concise Abelian subgroup C1      NOp   1
                         Standard orientation:                         
 ---------------------------------------------------------------------
 Center     Atomic     Atomic              Coordinates (Angstroms)
 Number     Number      Type              X           Y           Z
 ---------------------------------------------------------------------
    1          1             0        2.106411    0.730836    0.000000
    2          6             0        1.112691    0.305801    0.000000
    3          1             0        1.262251   -1.897865    0.000000
    4          6             0        0.661654   -0.999758    0.000000
    5          1             0       -1.487559   -1.679224    0.000000
    6          6             0       -0.745906   -0.891250    0.000000
    7          7             0       -1.143369    0.383390    0.000000
    8          1             0       -0.048155    2.090734    0.000000
    9          7             0        0.000000    1.083290    0.000000
 ---------------------------------------------------------------------
 Rotational constants (GHZ):      9.6535626      9.4376443      4.7721912
 Standard basis: 6-31G(d) (6D, 7F)
 There are    63 symmetry adapted basis functions of A'  symmetry.
 There are    20 symmetry adapted basis functions of A"  symmetry.
 Integral buffers will be    131072 words long.
 Raffenetti 1 integral format.
 Two-electron integral symmetry is turned on.
    83 basis functions,   156 primitive gaussians,    83 cartesian basis functions
    18 alpha electrons       18 beta electrons
       nuclear repulsion energy       163.0798529014 Hartrees.
 NAtoms=    9 NActive=    9 NUniq=    9 SFac= 1.00D+00 NAtFMM=   60 Big=F
 One-electron integrals computed using PRISM.
 NBasis=    83 RedAO= T  NBF=    63    20
 NBsUse=    83 1.00D-06 NBFU=    63    20
 Initial guess read from the read-write file:
 Initial guess orbital symmetries:
       Occupied  (A') (A') (A') (A') (A') (A') (A') (A') (A') (A')
                 (A') (A') (A") (A') (A') (A') (A") (A")
       Virtual   (A") (A') (A") (A') (A') (A') (A') (A') (A') (A')
                 (A') (A') (A") (A') (A") (A') (A') (A") (A') (A')
                 (A") (A') (A') (A") (A') (A') (A') (A') (A') (A')
                 (A') (A') (A') (A") (A") (A") (A') (A') (A") (A")
                 (A') (A') (A') (A') (A') (A') (A") (A") (A') (A')
                 (A") (A") (A') (A") (A') (A') (A') (A') (A') (A')
                 (A') (A') (A') (A') (A')
 Requested convergence on RMS density matrix=1.00D-08 within 128 cycles.
 Requested convergence on MAX density matrix=1.00D-06.
 Requested convergence on             energy=1.00D-06.
 No special actions if energy rises.
 Keep R1 integrals in memory in canonical form, NReq=     7236413.
 SCF Done:  E(RHF) =  -224.791015021     A.U. after   11 cycles
             Convg  =    0.8725D-08             -V/T =  2.0027
             S**2   =   0.0000
 ExpMin= 1.61D-01 ExpMax= 4.17D+03 ExpMxC= 6.27D+02 IAcc=1 IRadAn=         1 AccDes= 1.00D-06
 HarFok:  IExCor= 205 AccDes= 1.00D-06 IRadAn=         1 IDoV=1
 ScaDFX=  1.000000  1.000000  1.000000  1.000000
 Range of M.O.s used for correlation:     6    83
 NBasis=    83 NAE=    18 NBE=    18 NFC=     5 NFV=     0
 NROrb=     78 NOA=    13 NOB=    13 NVA=    65 NVB=    65
 Spin components of T(2) and E(2):
     alpha-alpha T2 =       0.3393195413D-01 E2=     -0.9651617974D-01
     alpha-beta  T2 =       0.1781813046D+00 E2=     -0.5192351537D+00
     beta-beta   T2 =       0.3393195413D-01 E2=     -0.9651617974D-01
 ANorm=    0.1116263953D+01
 E2=       -0.7122675132D+00 EUMP2=       -0.22550328253460D+03
 R2 and R3 integrals will be kept in memory, NReq=    12975682.
 DD1Dir will call FoFMem   1 times, MxPair=       182
 NAB=    91 NAA=     0 NBB=     0.
 E3=       -0.12521125D-01        EUMP3=      -0.22551580366D+03
 Largest amplitude= 7.34D-02
 Discarding MO integrals.
 DoAtom=TTTTTTTTT
          Differentiating once with respect to electric field.
                with respect to dipole field.
          Differentiating once with respect to nuclear coordinates.
          Store integrals in memory, NReq=     6898761.
          There are   1 degrees of freedom in the 1st order CPHF.
     1 vectors were produced by pass  0.
 AX will form   1 AO Fock derivatives at one time.
     1 vectors were produced by pass  1.
     1 vectors were produced by pass  2.
     1 vectors were produced by pass  3.
     1 vectors were produced by pass  4.
     1 vectors were produced by pass  5.
     1 vectors were produced by pass  6.
     1 vectors were produced by pass  7.
     1 vectors were produced by pass  8.
     1 vectors were produced by pass  9.
     1 vectors were produced by pass 10.
     1 vectors were produced by pass 11.
     1 vectors were produced by pass 12.
     1 vectors were produced by pass 13.
     1 vectors were produced by pass 14.
 Inv2:  IOpt= 1 Iter= 1 AM= 5.18D-16 Conv= 1.00D-12.
 Inverted reduced A of dimension   15 with in-core refinement.
 End of Minotr Frequency-dependent properties file   721 does not exist.
 ***** Axes restored to original set *****
 -------------------------------------------------------------------
 Center     Atomic                   Forces (Hartrees/Bohr)
 Number     Number              X              Y              Z
 -------------------------------------------------------------------
    1          1           0.000528573    0.000000000    0.000237053
    2          6           0.002491179    0.000000000   -0.000894933
    3          1          -0.000055317    0.000000000    0.000566302
    4          6          -0.002026615    0.000000000   -0.001252714
    5          1          -0.000688164    0.000000000   -0.000315859
    6          6          -0.001439976    0.000000000    0.002278830
    7          7           0.005634018    0.000000000    0.000612603
    8          1           0.000753312    0.000000000   -0.000440321
    9          7          -0.005197009    0.000000000   -0.000790959
 -------------------------------------------------------------------
 Cartesian Forces:  Max     0.005634018 RMS     0.001739476

 GradGradGradGradGradGradGradGradGradGradGradGradGradGradGradGradGradGrad
 Berny optimization.
 Internal  Forces:  Max     0.003958422 RMS     0.000918120
 Search for a local minimum.
 Step number   4 out of a maximum of  48
 All quantities printed in internal units (Hartrees-Bohrs-Radians)
 Update second derivatives using D2CorX and points  1  2  3  4
 Trust test= 1.30D+00 RLast= 2.41D-02 DXMaxT set to 6.00D-01
     Eigenvalues ---    0.03203   0.03248   0.03250   0.03273   0.03342
     Eigenvalues ---    0.03372   0.15013   0.15692   0.16005   0.16290
     Eigenvalues ---    0.22626   0.27513   0.40534   0.47351   0.49555
     Eigenvalues ---    0.49767   0.57448   0.60250   0.61677   0.70176
     Eigenvalues ---    0.752371000.000001000.000001000.000001000.00000
     Eigenvalues --- 1000.000001000.000001000.000001000.000001000.00000
     Eigenvalues --- 1000.000001000.000001000.000001000.000001000.00000
     Eigenvalues --- 1000.000001000.000001000.00000
 RFO step:  Lambda=-6.35207116D-05.
 Quartic linear search produced a step of  0.42718.
 Iteration  1 RMS(Cart)=  0.00288125 RMS(Int)=  0.00000686
 Iteration  2 RMS(Cart)=  0.00000692 RMS(Int)=  0.00000110
 Iteration  3 RMS(Cart)=  0.00000000 RMS(Int)=  0.00000110
 Variable       Old X    -DE/DX   Delta X   Delta X   Delta X     New X
                                 (Linear)    (Quad)   (Total)
    R1        2.04242  -0.00058  -0.00084  -0.00070  -0.00155   2.04087
    R2        2.61023  -0.00224  -0.00323  -0.00386  -0.00709   2.60314
    R3        2.56514   0.00021   0.00031   0.00117   0.00148   2.56662
    R4        2.04170  -0.00056  -0.00130  -0.00044  -0.00174   2.03996
    R5        2.66780   0.00079   0.00065   0.00138   0.00204   2.66984
    R6        2.04488  -0.00071  -0.00097  -0.00104  -0.00201   2.04288
    R7        2.52311  -0.00183  -0.00145  -0.00257  -0.00402   2.51909
    R8        2.53333   0.00396   0.00558   0.00524   0.01082   2.54415
    R9        1.90597  -0.00085  -0.00100  -0.00112  -0.00213   1.90384
    A1        2.30761  -0.00035  -0.00009  -0.00171  -0.00180   2.30580
    A2        2.12754  -0.00028   0.00006  -0.00183  -0.00177   2.12576
    A3        1.84804   0.00063   0.00003   0.00355   0.00357   1.85162
    A4        2.21952   0.00010  -0.00116   0.00324   0.00208   2.22160
    A5        1.82650   0.00003   0.00285  -0.00470  -0.00186   1.82464
    A6        2.23717  -0.00013  -0.00169   0.00146  -0.00023   2.23694
    A7        2.24898  -0.00090  -0.00217  -0.00442  -0.00659   2.24239
    A8        1.95000   0.00125  -0.00171   0.00714   0.00543   1.95544
    A9        2.08420  -0.00036   0.00388  -0.00272   0.00116   2.08536
   A10        1.81782  -0.00128   0.00073  -0.00548  -0.00475   1.81307
   A11        1.98241  -0.00064  -0.00190  -0.00050  -0.00240   1.98001
   A12        2.22844   0.00048  -0.00190   0.00325   0.00135   2.22980
   A13        2.07233   0.00015   0.00380  -0.00276   0.00105   2.07338
    D1        0.00000   0.00000   0.00000   0.00000   0.00000   0.00000
    D2        3.14159   0.00000   0.00000   0.00000   0.00000   3.14159
    D3        3.14159   0.00000   0.00000   0.00000   0.00000   3.14159
    D4        0.00000   0.00000   0.00000   0.00000   0.00000   0.00000
    D5        3.14159   0.00000   0.00000   0.00000   0.00000   3.14159
    D6        0.00000   0.00000   0.00000   0.00000   0.00000   0.00000
    D7        0.00000   0.00000   0.00000   0.00000   0.00000   0.00000
    D8        3.14159   0.00000   0.00000   0.00000   0.00000   3.14159
    D9        3.14159   0.00000   0.00000   0.00000   0.00000   3.14159
   D10        0.00000   0.00000   0.00000   0.00000   0.00000   0.00000
   D11        0.00000   0.00000   0.00000   0.00000   0.00000   0.00000
   D12        3.14159   0.00000   0.00000   0.00000   0.00000   3.14159
   D13        0.00000   0.00000   0.00000   0.00000   0.00000   0.00000
   D14        3.14159   0.00000   0.00000   0.00000   0.00000   3.14159
   D15        0.00000   0.00000   0.00000   0.00000   0.00000   0.00000
   D16        3.14159   0.00000   0.00000   0.00000   0.00000   3.14159
         Item               Value     Threshold  Converged?
 Maximum Force            0.003958     0.000450     NO 
 RMS     Force            0.000918     0.000300     NO 
 Maximum Displacement     0.008123     0.001800     NO 
 RMS     Displacement     0.002881     0.001200     NO 
 Predicted change in Energy=-4.848689D-05
 GradGradGradGradGradGradGradGradGradGradGradGradGradGradGradGradGradGrad

                          Input orientation:                          
 ---------------------------------------------------------------------
 Center     Atomic     Atomic              Coordinates (Angstroms)
 Number     Number      Type              X           Y           Z
 ---------------------------------------------------------------------
    1          1             0       -2.085198    0.000000   -0.791704
    2          6             0       -1.129692    0.000000   -0.288343
    3          1             0        0.482763    0.000000   -1.793224
    4          6             0        0.163875    0.000000   -0.761897
    5          1             0        2.045802    0.000000    0.472510
    6          6             0        0.967170    0.000000    0.400329
    7          7             0        0.235089    0.000000    1.514361
    8          1             0       -1.785887    0.000000    1.737700
    9          7             0       -1.034548    0.000000    1.066518
 ---------------------------------------------------------------------
                    Distance matrix (angstroms):
                    1          2          3          4          5
     1  H    0.000000
     2  C    1.079984   0.000000
     3  H    2.756350   2.205601   0.000000
     4  C    2.249271   1.377523   1.079502   0.000000
     5  H    4.320116   3.265373   2.752570   2.250646   0.000000
     6  C    3.276873   2.207057   2.246402   1.412817   1.081044
     7  N    3.271341   2.261055   3.316845   2.277372   2.089051
     8  H    2.547052   2.129657   4.196927   3.170104   4.035164
     9  N    2.134680   1.358198   3.237338   2.186165   3.137100
                    6          7          8          9
     6  C    0.000000
     7  N    1.333046   0.000000
     8  H    3.060700   2.033279   0.000000
     9  N    2.109664   1.346306   1.007470   0.000000
 Stoichiometry    C3H4N2
 Framework group  CS[SG(C3H4N2)]
 Deg. of freedom    15
 Full point group                 CS      NOp   2
 Largest Abelian subgroup         CS      NOp   2
 Largest concise Abelian subgroup C1      NOp   1
                         Standard orientation:                         
 ---------------------------------------------------------------------
 Center     Atomic     Atomic              Coordinates (Angstroms)
 Number     Number      Type              X           Y           Z
 ---------------------------------------------------------------------
    1          1             0        2.104914    0.729225    0.000000
    2          6             0        1.111938    0.304532    0.000000
    3          1             0        1.264264   -1.895803    0.000000
    4          6             0        0.664448   -0.998281    0.000000
    5          1             0       -1.479959   -1.681602    0.000000
    6          6             0       -0.744181   -0.889587    0.000000
    7          7             0       -1.147827    0.380878    0.000000
    8          1             0       -0.047659    2.090806    0.000000
    9          7             0        0.000000    1.084464    0.000000
 ---------------------------------------------------------------------
 Rotational constants (GHZ):      9.6714398      9.4138361      4.7704497
 Standard basis: 6-31G(d) (6D, 7F)
 There are    63 symmetry adapted basis functions of A'  symmetry.
 There are    20 symmetry adapted basis functions of A"  symmetry.
 Integral buffers will be    131072 words long.
 Raffenetti 1 integral format.
 Two-electron integral symmetry is turned on.
    83 basis functions,   156 primitive gaussians,    83 cartesian basis functions
    18 alpha electrons       18 beta electrons
       nuclear repulsion energy       163.0492682288 Hartrees.
 NAtoms=    9 NActive=    9 NUniq=    9 SFac= 1.00D+00 NAtFMM=   60 Big=F
 One-electron integrals computed using PRISM.
 NBasis=    83 RedAO= T  NBF=    63    20
 NBsUse=    83 1.00D-06 NBFU=    63    20
 Initial guess read from the read-write file:
 Initial guess orbital symmetries:
       Occupied  (A') (A') (A') (A') (A') (A') (A') (A') (A') (A')
                 (A') (A') (A") (A') (A') (A') (A") (A")
       Virtual   (A") (A') (A") (A') (A') (A') (A') (A') (A') (A')
                 (A') (A') (A") (A') (A") (A') (A') (A") (A') (A')
                 (A") (A') (A') (A") (A') (A') (A') (A') (A') (A')
                 (A') (A') (A') (A") (A") (A") (A') (A') (A") (A")
                 (A') (A') (A') (A') (A') (A') (A") (A") (A') (A')
                 (A") (A") (A") (A') (A') (A') (A') (A') (A') (A')
                 (A') (A') (A') (A') (A')
 Requested convergence on RMS density matrix=1.00D-08 within 128 cycles.
 Requested convergence on MAX density matrix=1.00D-06.
 Requested convergence on             energy=1.00D-06.
 No special actions if energy rises.
 Keep R1 integrals in memory in canonical form, NReq=     7236413.
 SCF Done:  E(RHF) =  -224.791137894     A.U. after   12 cycles
             Convg  =    0.3401D-08             -V/T =  2.0027
             S**2   =   0.0000
 ExpMin= 1.61D-01 ExpMax= 4.17D+03 ExpMxC= 6.27D+02 IAcc=1 IRadAn=         1 AccDes= 1.00D-06
 HarFok:  IExCor= 205 AccDes= 1.00D-06 IRadAn=         1 IDoV=1
 ScaDFX=  1.000000  1.000000  1.000000  1.000000
 Range of M.O.s used for correlation:     6    83
 NBasis=    83 NAE=    18 NBE=    18 NFC=     5 NFV=     0
 NROrb=     78 NOA=    13 NOB=    13 NVA=    65 NVB=    65
 Spin components of T(2) and E(2):
     alpha-alpha T2 =       0.3390519969D-01 E2=     -0.9646865011D-01
     alpha-beta  T2 =       0.1781106524D+00 E2=     -0.5191722270D+00
     beta-beta   T2 =       0.3390519969D-01 E2=     -0.9646865011D-01
 ANorm=    0.1116208337D+01
 E2=       -0.7121095273D+00 EUMP2=       -0.22550324742110D+03
 R2 and R3 integrals will be kept in memory, NReq=    12975682.
 DD1Dir will call FoFMem   1 times, MxPair=       182
 NAB=    91 NAA=     0 NBB=     0.
 E3=       -0.12602061D-01        EUMP3=      -0.22551584948D+03
 Largest amplitude= 7.25D-02
 Discarding MO integrals.
 DoAtom=TTTTTTTTT
          Differentiating once with respect to electric field.
                with respect to dipole field.
          Differentiating once with respect to nuclear coordinates.
          Store integrals in memory, NReq=     6898761.
          There are   1 degrees of freedom in the 1st order CPHF.
     1 vectors were produced by pass  0.
 AX will form   1 AO Fock derivatives at one time.
     1 vectors were produced by pass  1.
     1 vectors were produced by pass  2.
     1 vectors were produced by pass  3.
     1 vectors were produced by pass  4.
     1 vectors were produced by pass  5.
     1 vectors were produced by pass  6.
     1 vectors were produced by pass  7.
     1 vectors were produced by pass  8.
     1 vectors were produced by pass  9.
     1 vectors were produced by pass 10.
     1 vectors were produced by pass 11.
     1 vectors were produced by pass 12.
     1 vectors were produced by pass 13.
     1 vectors were produced by pass 14.
 Inv2:  IOpt= 1 Iter= 1 AM= 3.45D-16 Conv= 1.00D-12.
 Inverted reduced A of dimension   15 with in-core refinement.
 End of Minotr Frequency-dependent properties file   721 does not exist.
 ***** Axes restored to original set *****
 -------------------------------------------------------------------
 Center     Atomic                   Forces (Hartrees/Bohr)
 Number     Number              X              Y              Z
 -------------------------------------------------------------------
    1          1          -0.000136609    0.000000000   -0.000010032
    2          6          -0.000239626    0.000000000    0.000950704
    3          1           0.000146524    0.000000000   -0.000010256
    4          6           0.000330036    0.000000000   -0.000404640
    5          1           0.000217547    0.000000000    0.000082949
    6          6           0.000213127    0.000000000    0.000634544
    7          7           0.000426516    0.000000000   -0.000955548
    8          1           0.000116446    0.000000000    0.000237018
    9          7          -0.001073962    0.000000000   -0.000524738
 -------------------------------------------------------------------
 Cartesian Forces:  Max     0.001073962 RMS     0.000402308

 GradGradGradGradGradGradGradGradGradGradGradGradGradGradGradGradGradGrad
 Berny optimization.
 Internal  Forces:  Max     0.000902714 RMS     0.000271643
 Search for a local minimum.
 Step number   5 out of a maximum of  48
 All quantities printed in internal units (Hartrees-Bohrs-Radians)
 Update second derivatives using D2CorX and points  1  2  3  4  5

 Trust test= 9.45D-01 RLast= 1.83D-02 DXMaxT set to 6.00D-01
     Eigenvalues ---    0.03203   0.03248   0.03250   0.03273   0.03342
     Eigenvalues ---    0.03372   0.14910   0.15492   0.16017   0.16601
     Eigenvalues ---    0.21278   0.29465   0.40881   0.47565   0.49549
     Eigenvalues ---    0.49798   0.57455   0.60239   0.61722   0.70586
     Eigenvalues ---    0.744311000.000001000.000001000.000001000.00000
     Eigenvalues --- 1000.000001000.000001000.000001000.000001000.00000
     Eigenvalues --- 1000.000001000.000001000.000001000.000001000.00000
     Eigenvalues --- 1000.000001000.000001000.00000
 RFO step:  Lambda=-6.49869521D-06.
 Quartic linear search produced a step of -0.05465.
 Iteration  1 RMS(Cart)=  0.00083717 RMS(Int)=  0.00000062
 Iteration  2 RMS(Cart)=  0.00000069 RMS(Int)=  0.00000016
 Variable       Old X    -DE/DX   Delta X   Delta X   Delta X     New X
                                 (Linear)    (Quad)   (Total)
    R1        2.04087   0.00013   0.00008   0.00018   0.00026   2.04113
    R2        2.60314   0.00090   0.00039   0.00076   0.00114   2.60428
    R3        2.56662  -0.00056  -0.00008  -0.00047  -0.00055   2.56607
    R4        2.03996   0.00005   0.00010   0.00002   0.00011   2.04008
    R5        2.66984   0.00020  -0.00011   0.00066   0.00055   2.67038
    R6        2.04288   0.00022   0.00011   0.00031   0.00042   2.04330
    R7        2.51909  -0.00054   0.00022  -0.00113  -0.00091   2.51818
    R8        2.54415   0.00041  -0.00059   0.00164   0.00105   2.54520
    R9        1.90384   0.00007   0.00012  -0.00004   0.00007   1.90391
    A1        2.30580   0.00001   0.00010  -0.00015  -0.00006   2.30575
    A2        2.12576  -0.00010   0.00010  -0.00087  -0.00077   2.12499
    A3        1.85162   0.00009  -0.00020   0.00103   0.00083   1.85245
    A4        2.22160   0.00015  -0.00011   0.00098   0.00087   2.22247
    A5        1.82464  -0.00003   0.00010  -0.00006   0.00004   1.82468
    A6        2.23694  -0.00013   0.00001  -0.00092  -0.00091   2.23603
    A7        2.24239   0.00026   0.00036   0.00050   0.00086   2.24325
    A8        1.95544  -0.00037  -0.00030  -0.00087  -0.00116   1.95427
    A9        2.08536   0.00012  -0.00006   0.00037   0.00030   2.08566
   A10        1.81307   0.00069   0.00026   0.00180   0.00206   1.81513
   A11        1.98001  -0.00039   0.00013  -0.00190  -0.00177   1.97824
   A12        2.22980   0.00044  -0.00007   0.00250   0.00243   2.23222
   A13        2.07338  -0.00005  -0.00006  -0.00060  -0.00066   2.07272
    D1        0.00000   0.00000   0.00000   0.00000   0.00000   0.00000
    D2        3.14159   0.00000   0.00000   0.00000   0.00000   3.14159
    D3        3.14159   0.00000   0.00000   0.00000   0.00000   3.14159
    D4        0.00000   0.00000   0.00000   0.00000   0.00000   0.00000
    D5        3.14159   0.00000   0.00000   0.00000   0.00000   3.14159
    D6        0.00000   0.00000   0.00000   0.00000   0.00000   0.00000
    D7        0.00000   0.00000   0.00000   0.00000   0.00000   0.00000
    D8        3.14159   0.00000   0.00000   0.00000   0.00000   3.14159
    D9        3.14159   0.00000   0.00000   0.00000   0.00000   3.14159
   D10        0.00000   0.00000   0.00000   0.00000   0.00000   0.00000
   D11        0.00000   0.00000   0.00000   0.00000   0.00000   0.00000
   D12        3.14159   0.00000   0.00000   0.00000   0.00000   3.14159
   D13        0.00000   0.00000   0.00000   0.00000   0.00000   0.00000
   D14        3.14159   0.00000   0.00000   0.00000   0.00000   3.14159
   D15        0.00000   0.00000   0.00000   0.00000   0.00000   0.00000
   D16        3.14159   0.00000   0.00000   0.00000   0.00000   3.14159
         Item               Value     Threshold  Converged?
 Maximum Force            0.000903     0.000450     NO 
 RMS     Force            0.000272     0.000300     YES
 Maximum Displacement     0.002503     0.001800     NO 
 RMS     Displacement     0.000837     0.001200     YES
 Predicted change in Energy=-3.403041D-06
 GradGradGradGradGradGradGradGradGradGradGradGradGradGradGradGradGradGrad

                          Input orientation:                          
 ---------------------------------------------------------------------
 Center     Atomic     Atomic              Coordinates (Angstroms)
 Number     Number      Type              X           Y           Z
 ---------------------------------------------------------------------
    1          1             0       -2.085709    0.000000   -0.791514
    2          6             0       -1.130021    0.000000   -0.288202
    3          1             0        0.483650    0.000000   -1.793355
    4          6             0        0.164032    0.000000   -0.762191
    5          1             0        2.046552    0.000000    0.472985
    6          6             0        0.967744    0.000000    0.400098
    7          7             0        0.234875    0.000000    1.513037
    8          1             0       -1.785962    0.000000    1.738966
    9          7             0       -1.035785    0.000000    1.066428
 ---------------------------------------------------------------------
                    Distance matrix (angstroms):
                    1          2          3          4          5
     1  H    0.000000
     2  C    1.080121   0.000000
     3  H    2.757769   2.206675   0.000000
     4  C    2.249931   1.378128   1.079562   0.000000
     5  H    4.321404   3.266499   2.752991   2.251564   0.000000
[...]
   9   7    -0.06   0.01   0.00     0.11   0.08   0.00    -0.05   0.02   0.00
                    16                     17                     18
                    A'                     A'                     A'
 Frequencies --  1552.0514              1629.3664              3309.9406
 Red. masses --     2.7459                 3.1479                 1.0929
 Frc consts  --     3.8972                 4.9238                 7.0545
 IR Inten    --     9.0136                 6.5251                 3.7936
 Atom AN      X      Y      Z        X      Y      Z        X      Y      Z
   1   1     0.01  -0.30   0.00     0.31  -0.29   0.00    -0.18  -0.08   0.00
   2   6    -0.17   0.17   0.00     0.04   0.24   0.00     0.02   0.01   0.00
   3   1    -0.12  -0.21   0.00     0.30  -0.03   0.00     0.23  -0.35   0.00
   4   6     0.09  -0.06   0.00    -0.05  -0.21   0.00    -0.02   0.03   0.00
   5   1     0.04  -0.07   0.00     0.38  -0.26   0.00     0.60   0.65   0.00
   6   6    -0.05   0.03   0.00    -0.12   0.20   0.00    -0.05  -0.06   0.00
   7   7    -0.06   0.01   0.00     0.08  -0.12   0.00     0.00   0.00   0.00
   8   1    -0.82  -0.16   0.00     0.57  -0.01   0.00     0.00   0.01   0.00
   9   7     0.24  -0.08   0.00    -0.08  -0.03   0.00     0.00   0.00   0.00
                    19                     20                     21
                    A'                     A'                     A'
 Frequencies --  3321.8971              3340.0179              3736.0228
 Red. masses --     1.0951                 1.1082                 1.0821
 Frc consts  --     7.1197                 7.2840                 8.8992
 IR Inten    --     2.1558                 0.3317                89.1637
 Atom AN      X      Y      Z        X      Y      Z        X      Y      Z
   1   1     0.72   0.31   0.00    -0.54  -0.23   0.00     0.01   0.00   0.00
   2   6    -0.06  -0.03   0.00     0.05   0.03   0.00     0.00   0.00   0.00
   3   1    -0.27   0.39   0.00    -0.43   0.64   0.00     0.00   0.00   0.00
   4   6     0.03  -0.03   0.00     0.04  -0.06   0.00     0.00   0.00   0.00
   5   1     0.27   0.29   0.00     0.16   0.17   0.00     0.00   0.00   0.00
   6   6    -0.03  -0.03   0.00    -0.02  -0.01   0.00     0.00   0.00   0.00
   7   7     0.00   0.00   0.00     0.00   0.00   0.00     0.00   0.00   0.00
   8   1    -0.01  -0.01   0.00     0.00   0.01   0.00    -0.05   1.00   0.00
   9   7     0.00   0.00   0.00     0.00   0.00   0.00     0.01  -0.08   0.00

 -------------------
 - Thermochemistry -
 -------------------
 Temperature   298.150 Kelvin.  Pressure   1.00000 Atm.
 Atom  1 has atomic number  1 and mass   1.00783
 Atom  2 has atomic number  6 and mass  12.00000
 Atom  3 has atomic number  1 and mass   1.00783
 Atom  4 has atomic number  6 and mass  12.00000
 Atom  5 has atomic number  1 and mass   1.00783
 Atom  6 has atomic number  6 and mass  12.00000
 Atom  7 has atomic number  7 and mass  14.00307
 Atom  8 has atomic number  1 and mass   1.00783
 Atom  9 has atomic number  7 and mass  14.00307
 Molecular mass:    68.03745 amu.
 Principal axes and moments of inertia in atomic units:
                           1         2         3
     EIGENVALUES --   186.84507 191.56217 378.40724
           X            0.92036   0.39106   0.00000
           Y           -0.39106   0.92036   0.00000
           Z            0.00000   0.00000   1.00000
 This molecule is an asymmetric top.
 Rotational symmetry number  1.
 Rotational temperatures (Kelvin)      0.46356     0.45214     0.22889
 Rotational constants (GHZ):           9.65903     9.42118     4.76931
 Zero-point vibrational energy     190817.6 (Joules/Mol)
                                   45.60650 (Kcal/Mol)
 Warning -- explicit consideration of   1 degrees of freedom as
           vibrations may cause significant error
 Vibrational temperatures:    733.19   905.45  1007.12  1081.48  1169.83
          (Kelvin)           1240.34  1351.59  1380.16  1568.81  1576.23
                             1703.12  1765.78  1908.46  2067.94  2140.73
                             2233.05  2344.29  4762.26  4779.46  4805.53
                             5375.30
 
 Zero-point correction=                           0.072679 (Hartree/Particle)
 Thermal correction to Energy=                    0.076418
 Thermal correction to Enthalpy=                  0.077362
 Thermal correction to Gibbs Free Energy=         0.046408
 Sum of electronic and zero-point Energies=           -225.443174
 Sum of electronic and thermal Energies=              -225.439434
 Sum of electronic and thermal Enthalpies=            -225.438490
 Sum of electronic and thermal Free Energies=         -225.469445
 
                     E (Thermal)             CV                S
                      KCal/Mol        Cal/Mol-Kelvin    Cal/Mol-Kelvin
 Total                   47.953             13.172             65.149
 Electronic               0.000              0.000              0.000
 Translational            0.889              2.981             38.570
 Rotational               0.889              2.981             24.119
 Vibrational             46.176              7.210              2.460
 Vibration  1             0.865              1.229              0.635
                       Q            Log10(Q)             Ln(Q)
 Total Bot       0.450712D-21        -21.346101        -49.151213
 Total V=0       0.121244D+13         12.083659         27.823653
 Vib (Bot)       0.490457D-33        -33.309399        -76.697727
 Vib (Bot)  1    0.319764D+00         -0.495171         -1.140173
 Vib (V=0)       0.131935D+01          0.120360          0.277139
 Vib (V=0)  1    0.109351D+01          0.038821          0.089389
 Electronic      0.100000D+01          0.000000          0.000000
 Translational   0.220586D+08          7.343577         16.909211
 Rotational      0.416602D+05          4.619722         10.637303
 ***** Axes restored to original set *****
 -------------------------------------------------------------------
 Center     Atomic                   Forces (Hartrees/Bohr)
 Number     Number              X              Y              Z
 -------------------------------------------------------------------
    1          1          -0.000017232    0.000000000   -0.000060764
    2          6          -0.000166210    0.000000000    0.000314242
    3          1          -0.000001478    0.000000000   -0.000011374
    4          6           0.000034702    0.000000000   -0.000164336
    5          1           0.000030928    0.000000000    0.000058172
    6          6          -0.000353380    0.000000000    0.000242798
    7          7           0.000128814    0.000000000    0.000083104
    8          1           0.000089791    0.000000000    0.000077477
    9          7           0.000254066    0.000000000   -0.000539320
 -------------------------------------------------------------------
 Cartesian Forces:  Max     0.000539320 RMS     0.000165535

 GradGradGradGradGradGradGradGradGradGradGradGradGradGradGradGradGradGrad
 Berny optimization.
 Internal  Forces:  Max     0.000278269 RMS     0.000100432
 Search for a local minimum.
 Step number   1 out of a maximum of   2
 All quantities printed in internal units (Hartrees-Bohrs-Radians)
 Second derivative matrix not updated -- analytic derivatives used.
     Eigenvalues ---    0.00674   0.01033   0.01582   0.02776   0.05749
     Eigenvalues ---    0.06129   0.10020   0.11037   0.11752   0.12560
     Eigenvalues ---    0.23602   0.28202   0.36876   0.38464   0.38873
     Eigenvalues ---    0.39116   0.42730   0.45131   0.49636   0.52844
     Eigenvalues ---    0.595771000.000001000.000001000.000001000.00000
     Eigenvalues --- 1000.000001000.000001000.000001000.000001000.00000
     Eigenvalues --- 1000.000001000.000001000.000001000.000001000.00000
     Eigenvalues --- 1000.000001000.000001000.00000
 Angle between quadratic step and forces=  29.34 degrees.
 Linear search not attempted -- first point.
 Iteration  1 RMS(Cart)=  0.00034780 RMS(Int)=  0.00000010
 Iteration  2 RMS(Cart)=  0.00000011 RMS(Int)=  0.00000001
 Variable       Old X    -DE/DX   Delta X   Delta X   Delta X     New X
                                 (Linear)    (Quad)   (Total)
    R1        2.04113   0.00004   0.00000   0.00010   0.00010   2.04123
    R2        2.60428   0.00001   0.00000   0.00028   0.00028   2.60457
    R3        2.56607  -0.00023   0.00000  -0.00062  -0.00062   2.56545
    R4        2.04008   0.00001   0.00000   0.00001   0.00001   2.04008
    R5        2.67038   0.00012   0.00000   0.00024   0.00024   2.67063
    R6        2.04330   0.00003   0.00000   0.00013   0.00013   2.04343
    R7        2.51818  -0.00028   0.00000  -0.00044  -0.00044   2.51775
    R8        2.54520  -0.00009   0.00000  -0.00007  -0.00007   2.54513
    R9        1.90391  -0.00002   0.00000  -0.00001  -0.00001   1.90391
    A1        2.30575   0.00001   0.00000  -0.00030  -0.00030   2.30545
    A2        2.12499   0.00010   0.00000   0.00051   0.00051   2.12550
    A3        1.85245  -0.00011   0.00000  -0.00021  -0.00021   1.85224
    A4        2.22247   0.00005   0.00000   0.00018   0.00018   2.22265
    A5        1.82468  -0.00010   0.00000  -0.00032  -0.00032   1.82436
    A6        2.23603   0.00006   0.00000   0.00015   0.00015   2.23618
    A7        2.24325  -0.00001   0.00000   0.00008   0.00008   2.24333
    A8        1.95427   0.00014   0.00000   0.00039   0.00039   1.95466
    A9        2.08566  -0.00012   0.00000  -0.00048  -0.00048   2.08519
   A10        1.81513  -0.00017   0.00000  -0.00048  -0.00048   1.81465
   A11        1.97824   0.00026   0.00000   0.00062   0.00062   1.97887
   A12        2.23222  -0.00002   0.00000   0.00049   0.00049   2.23271
   A13        2.07272  -0.00024   0.00000  -0.00111  -0.00111   2.07161
    D1        0.00000   0.00000   0.00000   0.00000   0.00000   0.00000
    D2        3.14159   0.00000   0.00000   0.00000   0.00000   3.14159
    D3        3.14159   0.00000   0.00000   0.00000   0.00000   3.14159
    D4        0.00000   0.00000   0.00000   0.00000   0.00000   0.00000
    D5        3.14159   0.00000   0.00000   0.00000   0.00000   3.14159
    D6        0.00000   0.00000   0.00000   0.00000   0.00000   0.00000
    D7        0.00000   0.00000   0.00000   0.00000   0.00000   0.00000
    D8        3.14159   0.00000   0.00000   0.00000   0.00000   3.14159
    D9        3.14159   0.00000   0.00000   0.00000   0.00000   3.14159
   D10        0.00000   0.00000   0.00000   0.00000   0.00000   0.00000
   D11        0.00000   0.00000   0.00000   0.00000   0.00000   0.00000
   D12        3.14159   0.00000   0.00000   0.00000   0.00000   3.14159
   D13        0.00000   0.00000   0.00000   0.00000   0.00000   0.00000
   D14        3.14159   0.00000   0.00000   0.00000   0.00000   3.14159
   D15        0.00000   0.00000   0.00000   0.00000   0.00000   0.00000
   D16        3.14159   0.00000   0.00000   0.00000   0.00000   3.14159
         Item               Value     Threshold  Converged?
 Maximum Force            0.000278     0.000450     YES
 RMS     Force            0.000100     0.000300     YES
 Maximum Displacement     0.001366     0.001800     YES
 RMS     Displacement     0.000348     0.001200     YES
 Predicted change in Energy=-5.243096D-07
 Optimization completed.
    -- Stationary point found.
                           ----------------------------
                           !   Optimized Parameters   !
                           ! (Angstroms and Degrees)  !
 --------------------------                            --------------------------
 ! Name  Definition              Value          Derivative Info.                !
 --------------------------------------------------------------------------------
 ! R1    R(1,2)                  1.0801         -DE/DX =    0.0                 !
 ! R2    R(2,4)                  1.3781         -DE/DX =    0.0                 !
 ! R3    R(2,9)                  1.3579         -DE/DX =   -0.0002              !
 ! R4    R(3,4)                  1.0796         -DE/DX =    0.0                 !
 ! R5    R(4,6)                  1.4131         -DE/DX =    0.0001              !
 ! R6    R(5,6)                  1.0813         -DE/DX =    0.0                 !
 ! R7    R(6,7)                  1.3326         -DE/DX =   -0.0003              !
 ! R8    R(7,9)                  1.3469         -DE/DX =   -0.0001              !
 ! R9    R(8,9)                  1.0075         -DE/DX =    0.0                 !
 ! A1    A(1,2,4)              132.1096         -DE/DX =    0.0                 !
 ! A2    A(1,2,9)              121.7529         -DE/DX =    0.0001              !
 ! A3    A(4,2,9)              106.1375         -DE/DX =   -0.0001              !
 ! A4    A(2,4,3)              127.3382         -DE/DX =    0.0                 !
 ! A5    A(2,4,6)              104.5466         -DE/DX =   -0.0001              !
 ! A6    A(3,4,6)              128.1152         -DE/DX =    0.0001              !
 ! A7    A(4,6,5)              128.5287         -DE/DX =    0.0                 !
 ! A8    A(4,6,7)              111.9716         -DE/DX =    0.0001              !
 ! A9    A(5,6,7)              119.4997         -DE/DX =   -0.0001              !
 ! A10   A(6,7,9)              103.9994         -DE/DX =   -0.0002              !
 ! A11   A(2,9,7)              113.3449         -DE/DX =    0.0003              !
 ! A12   A(2,9,8)              127.897          -DE/DX =    0.0                 !
 ! A13   A(7,9,8)              118.7582         -DE/DX =   -0.0002              !
 ! D1    D(1,2,4,3)              0.0            -DE/DX =    0.0                 !
 ! D2    D(1,2,4,6)            180.0            -DE/DX =    0.0                 !
 ! D3    D(9,2,4,3)            180.0            -DE/DX =    0.0                 !
 ! D4    D(9,2,4,6)              0.0            -DE/DX =    0.0                 !
 ! D5    D(1,2,9,7)            180.0            -DE/DX =    0.0                 !
 ! D6    D(1,2,9,8)              0.0            -DE/DX =    0.0                 !
 ! D7    D(4,2,9,7)              0.0            -DE/DX =    0.0                 !
 ! D8    D(4,2,9,8)            180.0            -DE/DX =    0.0                 !
 ! D9    D(2,4,6,5)            180.0            -DE/DX =    0.0                 !
 ! D10   D(2,4,6,7)              0.0            -DE/DX =    0.0                 !
 ! D11   D(3,4,6,5)              0.0            -DE/DX =    0.0                 !
 ! D12   D(3,4,6,7)            180.0            -DE/DX =    0.0                 !
 ! D13   D(4,6,7,9)              0.0            -DE/DX =    0.0                 !
 ! D14   D(5,6,7,9)            180.0            -DE/DX =    0.0                 !
 ! D15   D(6,7,9,2)              0.0            -DE/DX =    0.0                 !
 ! D16   D(6,7,9,8)            180.0            -DE/DX =    0.0                 !
 --------------------------------------------------------------------------------
 GradGradGradGradGradGradGradGradGradGradGradGradGradGradGradGradGradGrad

 1\1\GINC-QUASAR\Freq\RMP3-FC\6-31G(d)\C3H4N2\RDJ3\08-Jan-2005\0\\#N GE
 OM=ALLCHECK GUESS=READ SCRF=CHECK GENCHK RMP3(FC)/6-31G(D) FREQ\\1H py
 razole C3H4N2 casno=288131 method=62 basis=1\\0,1\H,-1.8930055616,0.,-
 1.1743352991\C,-0.937317534,0.,-0.6710234998\H,0.6763528478,0.,-2.1761
 760449\C,0.3567346579,0.,-1.145012043\H,2.2392548262,0.,0.0901635858\C
 ,1.1604470713,0.,0.0172767611\N,0.4275776703,0.,1.1302155377\H,-1.5932
 591218,0.,1.3561444664\N,-0.8430816935,0.,0.6836067455\\Version=SGI64-
 G03RevC.02\State=1-A'\HF=-224.7911469\MP2=-225.5032347\MP3=-225.515852
 5\RMSD=1.239e-09\RMSF=1.655e-04\Dipole=-0.8087782,0.,-0.4497322\Dipole
 Deriv=-0.0033726,0.,-0.0445999,0.,0.182711,0.,-0.0322172,0.,0.0769286,
 0.1555584,0.,-0.1135477,0.,-0.0747069,0.,-0.3047083,0.,0.2551648,0.094
 8632,0.,0.0287521,0.,0.1693285,0.,0.0337034,0.,-0.0226075,-0.2982243,0
 .,0.0112946,0.,-0.2223769,0.,-0.077705,0.,-0.0142585,-0.0486388,0.,-0.
 0118602,0.,0.1430538,0.,-0.0262565,0.,0.0786199,0.2351821,0.,0.1158029
 ,0.,-0.0592636,0.,0.2564359,0.,0.1335892,0.0603253,0.,-0.1789213,0.,-0
 .236346,0.,-0.0994849,0.,-0.516506,0.2235099,0.,-0.0473844,0.,0.340651
 9,0.,-0.0393037,0.,0.2312032,-0.4199871,0.,0.2403753,0.,-0.2431233,0.,
 0.2897214,0.,-0.2220197\PG=CS [SG(C3H4N2)]\NImag=0\\0.31481924,0.,0.01
 978218,0.13839583,0.,0.12781604,-0.30984370,0.,-0.11861507,0.90165370,
 0.,-0.02212417,0.,0.,0.10650182,-0.12909771,0.,-0.12608584,0.09288719,
 0.,0.69150971,0.00023099,0.,-0.00070524,0.00252012,0.,0.02710164,0.080
 38844,0.,-0.00218117,0.,0.,-0.00469137,0.,0.,0.02077839,0.00043964,0.,
 -0.00015818,-0.00327255,0.,0.00014321,-0.09638593,0.,0.35885893,-0.007
 37583,0.,0.00925970,-0.37066599,0.,0.08454600,-0.08818132,0.,0.0895351
 5,0.66133113,0.,-0.00146948,0.,0.,-0.05226509,0.,0.,-0.02170318,0.,0.,
 0.10057906,-0.01581697,0.,0.01366712,0.11019489,0.,-0.15392525,0.08735
 760,0.,-0.34615348,-0.12683022,0.,0.86731716,-0.00023124,0.,0.00033159
 ,-0.00083995,0.,-0.00149533,-0.00016323,0.,-0.00040627,-0.00475827,0.,
 0.00404317,0.38414269,0.,0.00081620,0.,0.,0.00524768,0.,0.,-0.00120453
 ,0.,0.,-0.00170813,0.,0.,0.02403449,-0.00114473,0.,0.00115579,-0.00313
 095,0.,-0.00638674,0.00077146,0.,0.00011167,-0.02290800,0.,0.00753997,
 0.02161843,0.,0.05940995,-0.00485268,0.,0.00478607,-0.05510890,0.,0.00
 041687,0.01404561,0.,0.01266496,-0.19083326,0.,-0.11151783,-0.36414732
 ,0.,-0.03334525,0.91885036,0.,0.00581996,0.,0.,0.00590009,0.,0.,-0.005
 79140,0.,0.,-0.05498207,0.,0.,-0.02797776,0.,0.,0.13016386,0.00157264,
 0.,-0.00196852,-0.07447905,0.,0.03906735,-0.01610944,0.,-0.00910879,-0
 .07416410,0.,-0.24594163,-0.02431851,0.,-0.06523474,-0.01182796,0.,0.6
 4475839,0.00095223,0.,0.00057727,-0.06363567,0.,-0.04213368,-0.0023551
 2,0.,-0.00151018,0.03515965,0.,0.03996796,-0.01327670,0.,0.02988657,-0
 .19481673,0.,0.14967207,0.54502632,0.,0.00684166,0.,0.,0.01690559,0.,0
 .,0.00698690,0.,0.,0.01877980,0.,0.,-0.00872696,0.,0.,-0.07040401,0.,0
 .,0.10498543,0.00198184,0.,-0.00608463,-0.01832522,0.,-0.06668180,-0.0
 0625319,0.,-0.00428749,-0.03408962,0.,-0.07951641,-0.00248090,0.,0.007
 53724,0.11468407,0.,-0.32633960,-0.04398916,0.,0.59589132,-0.00027636,
 0.,0.00036611,0.01085385,0.,-0.00405583,0.00076078,0.,-0.00007014,0.00
 234837,0.,-0.00315102,-0.00047435,0.,0.00154015,-0.00796886,0.,-0.0063
 4704,-0.02102146,0.,0.02642100,0.30508701,0.,-0.00120983,0.,0.,-0.0096
 7828,0.,0.,0.00242459,0.,0.,0.00350371,0.,0.,0.00230879,0.,0.,0.004632
 94,0.,0.,-0.01346579,0.,0.,0.01253846,-0.00068879,0.,-0.00003364,0.026
 25125,0.,-0.00590437,0.00132641,0.,0.00016541,-0.00287416,0.,-0.007437
 75,-0.00053578,0.,0.00104833,-0.00594629,0.,0.00105713,-0.01166221,0.,
 0.01714285,-0.21201602,0.,0.26051591,0.00656395,0.,-0.03440002,-0.1149
 3615,0.,-0.02818505,-0.00724995,0.,-0.00099178,-0.03700132,0.,0.015756
 13,-0.00026420,0.,0.00671078,-0.11517189,0.,0.05600910,-0.28601499,0.,
 -0.03795799,-0.28931647,0.,0.20615007,0.84339384,0.,-0.00627163,0.,0.,
 -0.04579389,0.,0.,0.00538534,0.,0.,0.00926768,0.,0.,0.00721020,0.,0.,0
 .01264429,0.,0.,-0.06192050,0.,0.,-0.00106179,0.,0.,0.08054750,0.00436
 745,0.,-0.00830240,-0.01147819,0.,-0.37177070,0.00289870,0.,0.00042616
 ,0.07747503,0.,-0.05553657,0.00324463,0.,-0.00517701,0.03010905,0.,-0.
 03629174,-0.12083002,0.,-0.13767915,0.19731632,0.,-0.26654909,-0.18309
 136,0.,0.88090916\\0.00001723,0.,0.00006076,0.00016621,0.,-0.00031424,
 0.00000148,0.,0.00001137,-0.00003470,0.,0.00016434,-0.00003093,0.,-0.0
 0005817,0.00035338,0.,-0.00024280,-0.00012881,0.,-0.00008310,-0.000089
 79,0.,-0.00007748,-0.00025407,0.,0.00053932\\\@


 "TIGER, TIGER BURNING BRIGHT
 IN THE FOREST OF THE NIGHT.
 WHAT IMMORTAL HAND OR EYE
 CAN FRAME THY FEARFUL SYMMETRYE?"
                     - WILLIAM BLAKE
 Job cpu time:  0 days  4 hours 43 minutes 58.8 seconds.
 File lengths (MBytes):  RWF=    448 Int=      0 D2E=      0 Chk=     14 Scr=      1
 Normal termination of Gaussian 03 at Sat Jan  8 21:46:20 2005.
