 Entering Gaussian System, Link 0=g98
 Initial command:
 /usr/local/apps/g98/g98/l1.exe /wrk/rdj3/Gau-11770.inp -scrdir=/wrk/rdj3/
 Entering Link 1 = /usr/local/apps/g98/g98/l1.exe PID=     11004.
  
 Copyright (c) 1988,1990,1992,1993,1995,1998 Gaussian, Inc.
                  All Rights Reserved.
  
 This is part of the Gaussian(R) 98 program.  It is based on
 the Gaussian 94(TM) system (copyright 1995 Gaussian, Inc.),
 the Gaussian 92(TM) system (copyright 1992 Gaussian, Inc.),
 the Gaussian 90(TM) system (copyright 1990 Gaussian, Inc.),
 the Gaussian 88(TM) system (copyright 1988 Gaussian, Inc.),
 the Gaussian 86(TM) system (copyright 1986 Carnegie Mellon
 University), and the Gaussian 82(TM) system (copyright 1983
 Carnegie Mellon University). Gaussian is a federally registered
 trademark of Gaussian, Inc.
  
 This software contains proprietary and confidential information,
 including trade secrets, belonging to Gaussian, Inc.
  
 This software is provided under written license and may be
 used, copied, transmitted, or stored only in accord with that
 written license.
  
 The following legend is applicable only to US Government
 contracts under DFARS:
  
                    RESTRICTED RIGHTS LEGEND
  
 Use, duplication or disclosure by the US Government is subject
 to restrictions as set forth in subparagraph (c)(1)(ii) of the
 Rights in Technical Data and Computer Software clause at DFARS
 252.227-7013.
  
 Gaussian, Inc.
 Carnegie Office Park, Building 6, Pittsburgh, PA 15106 USA
  
 The following legend is applicable only to US Government
 contracts under FAR:
  
                    RESTRICTED RIGHTS LEGEND
  
 Use, reproduction and disclosure by the US Government is subject
 to restrictions as set forth in subparagraph (c) of the
 Commercial Computer Software - Restricted Rights clause at FAR
 52.227-19.
  
 Gaussian, Inc.
 Carnegie Office Park, Building 6, Pittsburgh, PA 15106 USA
  
  
 ---------------------------------------------------------------
 Warning -- This program may not be used in any manner that
 competes with the business of Gaussian, Inc. or will provide
 assistance to any competitor of Gaussian, Inc.  The licensee
 of this program is prohibited from giving any competitor of
 Gaussian, Inc. access to this program.  By using this program,
 the user acknowledges that Gaussian, Inc. is engaged in the
 business of creating and licensing software in the field of
 computational chemistry and represents and warrants to the
 licensee that it is not a competitor of Gaussian, Inc. and that
 it will not use this program in any manner prohibited above.
 ---------------------------------------------------------------
  

 Cite this work as:
 Gaussian 98, Revision A.4,
 M. J. Frisch, G. W. Trucks, H. B. Schlegel, G. E. Scuseria, 
 M. A. Robb, J. R. Cheeseman, V. G. Zakrzewski, J. A. Montgomery, Jr., 
 R. E. Stratmann, J. C. Burant, S. Dapprich, J. M. Millam, 
 A. D. Daniels, K. N. Kudin, M. C. Strain, O. Farkas, J. Tomasi, 
 V. Barone, M. Cossi, R. Cammi, B. Mennucci, C. Pomelli, C. Adamo, 
 S. Clifford, J. Ochterski, G. A. Petersson, P. Y. Ayala, Q. Cui, 
 K. Morokuma, D. K. Malick, A. D. Rabuck, K. Raghavachari, 
 J. B. Foresman, J. Cioslowski, J. V. Ortiz, B. B. Stefanov, G. Liu, 
 A. Liashenko, P. Piskorz, I. Komaromi, R. Gomperts, R. L. Martin, 
 D. J. Fox, T. Keith, M. A. Al-Laham, C. Y. Peng, A. Nanayakkara, 
 C. Gonzalez, M. Challacombe, P. M. W. Gill, B. Johnson, W. Chen, 
 M. W. Wong, J. L. Andres, C. Gonzalez, M. Head-Gordon, 
 E. S. Replogle, and J. A. Pople, 
 Gaussian, Inc., Pittsburgh PA, 1998.

 **********************************************
 Gaussian 98:  IBM-RS6000-G98RevA.4 11-Sep-1998
                   2-Feb-1999 
 **********************************************
 %mem=24000000
 --------------------
 #CCD/6-31G* OPT FREQ
 --------------------
 1/18=20,38=1/1,3;
 2/9=110,17=6,18=5/2;
 3/5=1,6=6,7=1,11=9,25=1,30=1/1,2,3;
 4//1;
 5/5=2,38=4/2;
 8/6=7,9=120000,10=1,23=2/1,4;
 9/5=6,15=1/13;
 11/28=-6,29=200,42=1/11;
 10/5=5/2;
 6/7=2,8=2,9=2,10=2/1;
 7/12=7/1,2,3,16;
 1/18=20/3(1);
 99//99;
 2/9=110/2;
 3/5=1,6=6,7=1,11=9,25=1,30=1/1,2,3;
 4/5=5,16=2/1;
 5/5=2,38=4/2;
 8/6=7,9=120000,10=1,23=2/1,4;
 9/5=6,15=1/13;
 11/28=-6,29=200,42=1/11;
 10/5=5/2;
 7/12=7/1,2,3,16;
 1/18=20/3(-9);
 2/9=110/2;
 6/7=2,8=2,9=2,10=2/1;
 99//99;
 -------------------------------
 1H pyrazole C3H4N2 casno=288131
 -------------------------------
 Symbolic Z-matrix:
 Charge =  0 Multiplicity = 1
 H                    -1.8728    0.       -1.15878 
 C                    -0.92619   0.       -0.66007 
 H                     0.66681   0.       -2.15994 
 C                     0.34995   0.       -1.13858 
 H                     2.21745   0.        0.09827 
 C                     1.14883   0.        0.02698 
 N                     0.42381   0.        1.10895 
 H                    -1.57341   0.        1.34082 
 N                    -0.83433   0.        0.67814 

 GradGradGradGradGradGradGradGradGradGradGradGradGradGradGradGradGradGrad
 Berny optimization.
 Initialization pass.
                         ----------------------------
                         !    Initial Parameters    !
                         ! (Angstroms and Degrees)  !
 ------------------------                            -------------------------
 ! Name  Definition              Value          Derivative Info.             !
 -----------------------------------------------------------------------------
 ! R1    R(1,2)                  1.0699         estimate D2E/DX2             !
 ! R2    R(2,4)                  1.3629         estimate D2E/DX2             !
 ! R3    R(2,9)                  1.3414         estimate D2E/DX2             !
 ! R4    R(3,4)                  1.0694         estimate D2E/DX2             !
 ! R5    R(4,6)                  1.4131         estimate D2E/DX2             !
 ! R6    R(5,6)                  1.071          estimate D2E/DX2             !
 ! R7    R(6,7)                  1.3024         estimate D2E/DX2             !
 ! R8    R(7,9)                  1.3299         estimate D2E/DX2             !
 ! R9    R(8,9)                  0.9927         estimate D2E/DX2             !
 ! A1    A(1,2,4)              131.6638         estimate D2E/DX2             !
 ! A2    A(1,2,9)              121.709          estimate D2E/DX2             !
 ! A3    A(4,2,9)              106.6272         estimate D2E/DX2             !
 ! A4    A(2,4,3)              127.7895         estimate D2E/DX2             !
 ! A5    A(2,4,6)              103.8727         estimate D2E/DX2             !
 ! A6    A(3,4,6)              128.3378         estimate D2E/DX2             !
 ! A7    A(4,6,5)              128.2433         estimate D2E/DX2             !
 ! A8    A(4,6,7)              111.7472         estimate D2E/DX2             !
 ! A9    A(5,6,7)              120.0095         estimate D2E/DX2             !
 ! A10   A(6,7,9)              104.9237         estimate D2E/DX2             !
 ! A11   A(2,9,7)              112.8292         estimate D2E/DX2             !
 ! A12   A(2,9,8)              127.9532         estimate D2E/DX2             !
 ! A13   A(7,9,8)              119.2176         estimate D2E/DX2             !
 ! D1    D(1,2,4,3)              0.             estimate D2E/DX2             !
 ! D2    D(1,2,4,6)            180.             estimate D2E/DX2             !
 ! D3    D(9,2,4,3)            180.             estimate D2E/DX2             !
 ! D4    D(9,2,4,6)              0.             estimate D2E/DX2             !
 ! D5    D(1,2,9,7)            180.             estimate D2E/DX2             !
 ! D6    D(1,2,9,8)              0.             estimate D2E/DX2             !
 ! D7    D(4,2,9,7)              0.             estimate D2E/DX2             !
 ! D8    D(4,2,9,8)            180.             estimate D2E/DX2             !
 ! D9    D(2,4,6,5)            180.             estimate D2E/DX2             !
 ! D10   D(2,4,6,7)              0.             estimate D2E/DX2             !
 ! D11   D(3,4,6,5)              0.             estimate D2E/DX2             !
 ! D12   D(3,4,6,7)            180.             estimate D2E/DX2             !
 ! D13   D(4,6,7,9)              0.             estimate D2E/DX2             !
 ! D14   D(5,6,7,9)            180.             estimate D2E/DX2             !
 ! D15   D(6,7,9,2)              0.             estimate D2E/DX2             !
 ! D16   D(6,7,9,8)            180.             estimate D2E/DX2             !
 -----------------------------------------------------------------------------
 Trust Radius=3.00D-01 FncErr=1.00D-07 GrdErr=1.00D-07
 Number of steps in this run=  48 maximum allowed number of steps= 100.
 GradGradGradGradGradGradGradGradGradGradGradGradGradGradGradGradGradGrad

                          Input orientation:                          
 ---------------------------------------------------------------------
 Center     Atomic     Atomic              Coordinates (Angstroms)
 Number     Number      Type              X           Y           Z
 ---------------------------------------------------------------------
    1          1             0       -1.872799    0.000000   -1.158779
    2          6             0       -0.926193    0.000000   -0.660070
    3          1             0        0.666806    0.000000   -2.159940
    4          6             0        0.349953    0.000000   -1.138578
    5          1             0        2.217455    0.000000    0.098267
    6          6             0        1.148834    0.000000    0.026983
    7          7             0        0.423812    0.000000    1.108951
    8          1             0       -1.573407    0.000000    1.340816
    9          7             0       -0.834329    0.000000    0.678139
 ---------------------------------------------------------------------
                    Distance matrix (angstroms):
                    1          2          3          4          5
     1  H    0.000000
     2  C    1.069941   0.000000
     3  H    2.729821   2.187980   0.000000
     4  C    2.222844   1.362908   1.069381   0.000000
     5  H    4.279058   3.233821   2.739345   2.239944   0.000000
     6  C    3.245967   2.185814   2.239416   1.413062   1.070995
     7  N    3.227541   2.225298   3.277910   2.248742   2.058794
     8  H    2.517461   2.102957   4.156182   3.137946   3.989305
     9  N    2.110140   1.341359   3.210624   2.168637   3.106386
                    6          7          8          9
     6  C    0.000000
     7  N    1.302425   0.000000
     8  H    3.022706   2.010633   0.000000
     9  N    2.087329   1.329856   0.992661   0.000000
 Stoichiometry    C3H4N2
 Framework group  CS[SG(C3H4N2)]
 Deg. of freedom   15
 Full point group                 CS      NOp   2
 Largest Abelian subgroup         CS      NOp   2
 Largest concise Abelian subgroup C1      NOp   1
                         Standard orientation:                         
 ---------------------------------------------------------------------
 Center     Atomic     Atomic              Coordinates (Angstroms)
 Number     Number      Type              X           Y           Z
 ---------------------------------------------------------------------
    1          1             0        2.080447    0.722417    0.000000
    2          6             0        1.096394    0.302400    0.000000
    3          1             0        1.255542   -1.879784    0.000000
    4          6             0        0.662812   -0.989701    0.000000
    5          1             0       -1.474873   -1.658768    0.000000
    6          6             0       -0.745544   -0.874478    0.000000
    7          7             0       -1.127859    0.370571    0.000000
    8          1             0       -0.048078    2.066660    0.000000
    9          7             0        0.000000    1.075164    0.000000
 ---------------------------------------------------------------------
 Rotational constants (GHZ):      9.8799671      9.6409246      4.8794911
 Isotopes: H-1,C-12,H-1,C-12,H-1,C-12,N-14,H-1,N-14
 Standard basis: 6-31G(d) (6D, 7F)
 There are    63 symmetry adapted basis functions of A'  symmetry.
 There are    20 symmetry adapted basis functions of A"  symmetry.
 Crude estimate of integral set expansion from redundant integrals=1.000.
 Integral buffers will be    262144 words long.
 Raffenetti 1 integral format.
 Two-electron integral symmetry is turned on.
    83 basis functions      156 primitive gaussians
    18 alpha electrons       18 beta electrons
       nuclear repulsion energy       164.9559165242 Hartrees.
 One-electron integrals computed using PRISM.
 NBasis=    83 RedAO= T  NBF=    63    20
 NBsUse=    83 1.00D-04 NBFU=    63    20
 Projected INDO Guess.
 Initial guess orbital symmetries:
       Occupied  (A') (A') (A') (A') (A') (A') (A') (A') (A') (A')
                 (A') (A") (A') (A') (A') (A') (A") (A")
       Virtual   (A") (A') (A') (A") (A') (A') (A') (A') (A') (A')
                 (A') (A') (A') (A') (A') (A') (A') (A') (A') (A')
                 (A') (A') (A') (A') (A') (A') (A') (A') (A') (A')
                 (A') (A') (A') (A') (A') (A') (A') (A') (A') (A')
                 (A') (A') (A') (A') (A') (A') (A') (A') (A') (A')
                 (A") (A") (A") (A") (A") (A") (A") (A") (A") (A")
                 (A") (A") (A") (A") (A")
 Requested convergence on RMS density matrix=1.00D-08 within  64 cycles.
 Requested convergence on MAX density matrix=1.00D-06.
 Keep R1 integrals in memory in canonical form, NReq=     6535303.
 SCF Done:  E(RHF) =  -224.793493484     A.U. after   15 cycles
             Convg  =    0.4194D-08             -V/T =  2.0013
             S**2   =   0.0000
 Range of M.O.s used for correlation:     6    83
 NBasis=    83 NAE=    18 NBE=    18 NFC=     5 NFV=     0
 NROrb=     78 NOA=    13 NOB=    13 NVA=    65 NVB=    65
 Estimate disk for full transformation    52918570 words.
 Spin components of T(2) and E(2):
     alpha-alpha T2 =       0.3313219994D-01 E2=     -0.9583441533D-01
     alpha-beta  T2 =       0.1735450301D+00 E2=     -0.5146837188D+00
     beta-beta   T2 =       0.3313219994D-01 E2=     -0.9583441533D-01
 ANorm=    0.1113467301D+01
 E2=       -0.7063525494D+00 EUMP2=       -0.22549984603344D+03
 Iterations=  50 Convergence= 0.100D-07
 Iteration Nr.   1
 **********************
 MP4(R+Q)=  0.17183067D-01
 E3=       -0.13819163D-01        EUMP3=      -0.22551366520D+03
 E4(DQ)=   -0.40275283D-03        UMP4(DQ)=   -0.22551406795D+03
 DE(CORR)= -0.70298865D+00        E(CORR)=    -0.22549648213D+03
 NORM(A)=   0.11113372D+01
 Iteration Nr.   2
 **********************
 DE(CORR)= -0.71845691D+00        E(CORR)=    -0.22551195040D+03
 NORM(A)=   0.11191171D+01
 Iteration Nr.   3
 **********************
 DE(CORR)= -0.72047881D+00        E(CORR)=    -0.22551397230D+03
 NORM(A)=   0.11200006D+01
 Iteration Nr.   4
 **********************
 DE(CORR)= -0.72147560D+00        E(CORR)=    -0.22551496909D+03
 NORM(A)=   0.11203316D+01
 Iteration Nr.   5
 **********************
 DE(CORR)= -0.72155570D+00        E(CORR)=    -0.22551504918D+03
 NORM(A)=   0.11203830D+01
 Iteration Nr.   6
 **********************
 DE(CORR)= -0.72156286D+00        E(CORR)=    -0.22551505634D+03
 NORM(A)=   0.11203820D+01
 Iteration Nr.   7
 **********************
 DE(CORR)= -0.72156308D+00        E(CORR)=    -0.22551505656D+03
 NORM(A)=   0.11203857D+01
 Iteration Nr.   8
 **********************
 DE(CORR)= -0.72156221D+00        E(CORR)=    -0.22551505570D+03
 NORM(A)=   0.11203860D+01
 Iteration Nr.   9
 **********************
 DE(CORR)= -0.72156255D+00        E(CORR)=    -0.22551505603D+03
 NORM(A)=   0.11203863D+01
 Iteration Nr.  10
 **********************
 DE(CORR)= -0.72156264D+00        E(CORR)=    -0.22551505613D+03
 NORM(A)=   0.11203865D+01
 Iteration Nr.  11
 **********************
 DE(CORR)= -0.72156271D+00        E(CORR)=    -0.22551505620D+03
 NORM(A)=   0.11203866D+01
 Iteration Nr.  12
 **********************
 DE(CORR)= -0.72156274D+00        E(CORR)=    -0.22551505623D+03
 NORM(A)=   0.11203866D+01
 Iteration Nr.  13
 **********************
 DE(CORR)= -0.72156275D+00        E(CORR)=    -0.22551505624D+03
 NORM(A)=   0.11203866D+01
 Largest amplitude= 7.22D-02

 Z-AMPLITUDE ITERATIONS

 Iteration Nr.   1
 **********************
 DE(Z)  -0.70078039D+00          E(Z)=    -0.22549427388D+03
 NORM(A)=   0.11203908D+01
 Iteration Nr.   2
 **********************
 DE(Z)  -0.70078035D+00          E(Z)=    -0.22549427384D+03
 NORM(A)=   0.11203848D+01
 Iteration Nr.   3
 **********************
 DE(Z)  -0.70078041D+00          E(Z)=    -0.22549427389D+03
 NORM(A)=   0.11203862D+01
 Iteration Nr.   4
 **********************
 DE(Z)  -0.70078040D+00          E(Z)=    -0.22549427388D+03
 NORM(A)=   0.11203864D+01
 Iteration Nr.   5
 **********************
 DE(Z)  -0.70078039D+00          E(Z)=    -0.22549427388D+03
 NORM(A)=   0.11130961D+01
 Iteration Nr.   6
 **********************
 DE(Z)  -0.70085269D+00          E(Z)=    -0.22549434617D+03
 NORM(A)=   0.11131303D+01
 Iteration Nr.   7
 **********************
 DE(Z)  -0.70084741D+00          E(Z)=    -0.22549434090D+03
 NORM(A)=   0.11131290D+01
 Iteration Nr.   8
 **********************
 DE(Z)  -0.70084757D+00          E(Z)=    -0.22549434106D+03
 NORM(A)=   0.11131290D+01
 Iteration Nr.   9
 **********************
 DE(Z)  -0.70084751D+00          E(Z)=    -0.22549434099D+03
 NORM(A)=   0.11131288D+01
 Iteration Nr.  10
 **********************
 DE(Z)  -0.70084746D+00          E(Z)=    -0.22549434095D+03
 NORM(A)=   0.11131288D+01
 Iteration Nr.  11
 **********************
 DE(Z)  -0.70084746D+00          E(Z)=    -0.22549434095D+03
 NORM(A)=   0.11131288D+01
 Iteration Nr.  12
 **********************
 DE(Z)  -0.70084746D+00          E(Z)=    -0.22549434094D+03
 NORM(A)=   0.11131288D+01
 Discarding MO integrals.
          Differentiating once with respect to electric field.
                with respect to dipole field.
          Differentiating once with respect to nuclear coordinates.
          Store integrals in memory, NReq=     6518293.
          There are   1 degrees of freedom in the 1st order CPHF.
   1 vectors were produced by pass  0.
 AX will form   1 AO Fock derivatives at one time.
   1 vectors were produced by pass  1.
   1 vectors were produced by pass  2.
   1 vectors were produced by pass  3.
   1 vectors were produced by pass  4.
   1 vectors were produced by pass  5.
   1 vectors were produced by pass  6.
   1 vectors were produced by pass  7.
   1 vectors were produced by pass  8.
   1 vectors were produced by pass  9.
   1 vectors were produced by pass 10.
   1 vectors were produced by pass 11.
   1 vectors were produced by pass 12.
   1 vectors were produced by pass 13.
   1 vectors were produced by pass 14.
 Inv2:  IOpt= 1 Iter= 1 AM= 2.79D-16 Conv= 1.00D-12.
 Inverted reduced A of dimension  15 with in-core refinement.

 **********************************************************************

            Population analysis using the SCF density.

 **********************************************************************

 Orbital Symmetries:
       Occupied  (A') (A') (A') (A') (A') (A') (A') (A') (A') (A')
                 (A') (A') (A") (A') (A') (A') (A") (A")
       Virtual   (A") (A') (A") (A') (A') (A') (A') (A') (A') (A')
                 (A') (A') (A") (A') (A") (A') (A') (A") (A') (A')
                 (A") (A') (A') (A") (A') (A') (A') (A') (A') (A')
                 (A') (A') (A') (A") (A") (A") (A') (A') (A") (A")
                 (A') (A') (A') (A') (A') (A') (A") (A") (A') (A')
                 (A") (A") (A') (A") (A') (A') (A') (A') (A') (A')
                 (A') (A') (A') (A') (A')
  The electronic state is 1-A'.
 Alpha  occ. eigenvalues --  -15.63738 -15.58018 -11.27041 -11.24315 -11.21435
 Alpha  occ. eigenvalues --   -1.38498  -1.10179  -1.05102  -0.82290  -0.80285
 Alpha  occ. eigenvalues --   -0.74291  -0.61179  -0.60882  -0.59087  -0.55967
 Alpha  occ. eigenvalues --   -0.45019  -0.36060  -0.34245
 Alpha virt. eigenvalues --    0.18557   0.22826   0.25009   0.28497   0.30649
 Alpha virt. eigenvalues --    0.31821   0.41165   0.41871   0.46035   0.58150
 Alpha virt. eigenvalues --    0.66698   0.73946   0.77229   0.78635   0.82554
 Alpha virt. eigenvalues --    0.83836   0.88237   0.89331   0.91545   0.96245
 Alpha virt. eigenvalues --    0.99578   1.05351   1.07843   1.09166   1.10140
 Alpha virt. eigenvalues --    1.12428   1.16866   1.18890   1.22471   1.27418
 Alpha virt. eigenvalues --    1.41232   1.47183   1.57952   1.58548   1.63145
 Alpha virt. eigenvalues --    1.66118   1.72512   1.77232   1.84247   1.86625
 Alpha virt. eigenvalues --    2.08144   2.17952   2.27944   2.40711   2.43770
 Alpha virt. eigenvalues --    2.48127   2.53381   2.57967   2.61659   2.66454
 Alpha virt. eigenvalues --    2.67232   2.76564   2.94218   2.96154   2.97236
 Alpha virt. eigenvalues --    3.06308   3.10468   3.36049   3.37369   3.44578
 Alpha virt. eigenvalues --    4.20434   4.40536   4.52222   4.67336   4.84913
          Condensed to atoms (all electrons):
              1          2          3          4          5          6
  1  H    0.439340   0.383088   0.000522  -0.017725  -0.000057   0.002865
  2  C    0.383088   4.855071  -0.026663   0.608261   0.003325  -0.070116
  3  H    0.000522  -0.026663   0.452656   0.377587   0.000254  -0.020857
  4  C   -0.017725   0.608261   0.377587   5.009338  -0.035235   0.532143
  5  H   -0.000057   0.003325   0.000254  -0.035235   0.462309   0.398335
  6  C    0.002865  -0.070116  -0.020857   0.532143   0.398335   4.759765
  7  N    0.002262  -0.129526   0.003846  -0.053320  -0.036881   0.541505
  8  H   -0.000076  -0.026892  -0.000070   0.003191  -0.000092   0.005411
  9  N   -0.034207   0.327660   0.003541  -0.069096   0.004747  -0.184057
              7          8          9
  1  H    0.002262  -0.000076  -0.034207
  2  C   -0.129526  -0.026892   0.327660
  3  H    0.003846  -0.000070   0.003541
  4  C   -0.053320   0.003191  -0.069096
  5  H   -0.036881  -0.000092   0.004747
  6  C    0.541505   0.005411  -0.184057
  7  N    6.686915  -0.029424   0.310847
  8  H   -0.029424   0.302114   0.340419
  9  N    0.310847   0.340419   6.801469
 Total atomic charges:
              1
  1  H    0.223990
  2  C    0.075792
  3  H    0.209185
  4  C   -0.355143
  5  H    0.203296
  6  C    0.035007
  7  N   -0.296223
  8  H    0.405417
  9  N   -0.501321
 Sum of Mulliken charges=   0.00000
 Atomic charges with hydrogens summed into heavy atoms:
              1
  1  H    0.000000
  2  C    0.299782
  3  H    0.000000
  4  C   -0.145958
  5  H    0.000000
  6  C    0.238303
  7  N   -0.296223
  8  H    0.000000
  9  N   -0.095904
 Sum of Mulliken charges=   0.00000
 Electronic spatial extent (au):  <R**2>=   280.7526
 Charge=     0.0000 electrons
 Dipole moment (Debye):
    X=     2.2906    Y=     0.7961    Z=     0.0000  Tot=     2.4250
 Quadrupole moment (Debye-Ang):
   XX=   -29.3667   YY=   -21.8777   ZZ=   -31.8684
   XY=     2.7880   XZ=     0.0000   YZ=     0.0000
 Octapole moment (Debye-Ang**2):
  XXX=     9.8513  YYY=    11.9152  ZZZ=     0.0000  XYY=     0.3054
  XXY=    -2.2346  XXZ=     0.0000  XZZ=    -0.9010  YZZ=     2.0580
  YYZ=     0.0000  XYZ=     0.0000
 Hexadecapole moment (Debye-Ang**3):
 XXXX=  -168.4207 YYYY=  -126.7811 ZZZZ=   -31.7436 XXXY=    10.6862
 XXXZ=     0.0000 YYYX=    -1.1802 YYYZ=     0.0000 ZZZX=     0.0000
 ZZZY=     0.0000 XXYY=   -49.6464 XXZZ=   -36.8946 YYZZ=   -35.6439
 XXYZ=     0.0000 YYXZ=     0.0000 ZZXY=     0.1839
 N-N= 1.649559165242D+02 E-N=-8.552430867356D+02  KE= 2.244968743977D+02
 Symmetry A'   KE= 2.166719675376D+02
 Symmetry A"   KE= 7.824906860066D+00
 ***** Axes restored to original set *****
 -------------------------------------------------------------------
 Center     Atomic                   Forces (Hartrees/Bohr)
 Number     Number              X              Y              Z
 -------------------------------------------------------------------
    1          1          -0.008436473    0.000000000   -0.004487812
    2          6          -0.009758139    0.000000000   -0.011025007
    3          1           0.002547154    0.000000000   -0.008655345
    4          6           0.009134072    0.000000000    0.000342646
    5          1           0.009466362    0.000000000    0.000749149
    6          6           0.011622905    0.000000000   -0.024733164
    7          7          -0.001164354    0.000000000    0.036017226
    8          1          -0.011882314    0.000000000    0.011281857
    9          7          -0.001529213    0.000000000    0.000510449
 -------------------------------------------------------------------
 Cartesian Forces:  Max     0.036017226 RMS     0.010327414

 GradGradGradGradGradGradGradGradGradGradGradGradGradGradGradGradGradGrad
 Berny optimization.
 Internal  Forces:  Max     0.032522615 RMS     0.008302294
 Search for a local minimum.
 Step number   1 out of a maximum of  48
 All quantities printed in internal units (Hartrees-Bohrs-Radians)
 Second derivative matrix not updated -- first step.
     Eigenvalues ---    0.02140   0.02277   0.02344   0.02397   0.02534
     Eigenvalues ---    0.02554   0.16000   0.16000   0.16000   0.16000
     Eigenvalues ---    0.22000   0.22929   0.37105   0.37238   0.37308
     Eigenvalues ---    0.40394   0.48796   0.49002   0.53148   0.57511
     Eigenvalues ---    0.639231000.000001000.000001000.000001000.00000
     Eigenvalues --- 1000.000001000.000001000.000001000.000001000.00000
     Eigenvalues --- 1000.000001000.000001000.000001000.000001000.00000
     Eigenvalues --- 1000.000001000.000001000.00000
 RFO step:  Lambda=-4.70211530D-03.
 Linear search not attempted -- first point.
 Iteration  1 RMS(Cart)=  0.01945252 RMS(Int)=  0.00004054
 Iteration  2 RMS(Cart)=  0.00004202 RMS(Int)=  0.00001607
 Iteration  3 RMS(Cart)=  0.00000000 RMS(Int)=  0.00001607
 Variable       Old X    -DE/DX   Delta X   Delta X   Delta X     New X
                                 (Linear)    (Quad)   (Total)
    R1        2.02190   0.00956   0.00000   0.02534   0.02534   2.04724
    R2        2.57552   0.01690   0.00000   0.03002   0.03000   2.60552
    R3        2.53480   0.01960   0.00000   0.03414   0.03415   2.56895
    R4        2.02084   0.00902   0.00000   0.02388   0.02388   2.04472
    R5        2.67030   0.00629   0.00000   0.01308   0.01305   2.68336
    R6        2.02389   0.00950   0.00000   0.02527   0.02527   2.04916
    R7        2.46123   0.03252   0.00000   0.04955   0.04956   2.51079
    R8        2.51306   0.01676   0.00000   0.02958   0.02961   2.54267
    R9        1.87586   0.01638   0.00000   0.03311   0.03311   1.90896
    A1        2.29797  -0.00001   0.00000   0.00259   0.00259   2.30056
    A2        2.12422   0.00007   0.00000   0.00306   0.00306   2.12728
    A3        1.86100  -0.00006   0.00000  -0.00564  -0.00565   1.85534
    A4        2.23035  -0.00183   0.00000  -0.00453  -0.00451   2.22584
    A5        1.81292   0.00339   0.00000   0.00745   0.00740   1.82032
    A6        2.23992  -0.00156   0.00000  -0.00292  -0.00289   2.23703
    A7        2.23827  -0.00016   0.00000  -0.00044  -0.00043   2.23784
    A8        1.95036   0.00056   0.00000   0.00231   0.00230   1.95265
    A9        2.09456  -0.00040   0.00000  -0.00188  -0.00187   2.09269
   A10        1.83126  -0.00461   0.00000  -0.01014  -0.01009   1.82117
   A11        1.96924   0.00073   0.00000   0.00602   0.00605   1.97529
   A12        2.23320   0.00007   0.00000  -0.00035  -0.00036   2.23284
   A13        2.08074  -0.00080   0.00000  -0.00567  -0.00569   2.07505
    D1        0.00000   0.00000   0.00000   0.00000   0.00000   0.00000
    D2        3.14159   0.00000   0.00000   0.00000   0.00000   3.14159
    D3        3.14159   0.00000   0.00000   0.00000   0.00000   3.14159
    D4        0.00000   0.00000   0.00000   0.00000   0.00000   0.00000
    D5        3.14159   0.00000   0.00000   0.00000   0.00000   3.14159
    D6        0.00000   0.00000   0.00000   0.00000   0.00000   0.00000
    D7        0.00000   0.00000   0.00000   0.00000   0.00000   0.00000
    D8        3.14159   0.00000   0.00000   0.00000   0.00000   3.14159
    D9        3.14159   0.00000   0.00000   0.00000   0.00000   3.14159
   D10        0.00000   0.00000   0.00000   0.00000   0.00000   0.00000
   D11        0.00000   0.00000   0.00000   0.00000   0.00000   0.00000
   D12        3.14159   0.00000   0.00000   0.00000   0.00000   3.14159
   D13        0.00000   0.00000   0.00000   0.00000   0.00000   0.00000
   D14        3.14159   0.00000   0.00000   0.00000   0.00000   3.14159
   D15        0.00000   0.00000   0.00000   0.00000   0.00000   0.00000
   D16        3.14159   0.00000   0.00000   0.00000   0.00000   3.14159
         Item               Value     Threshold  Converged?
 Maximum Force            0.032523     0.000450     NO 
 RMS     Force            0.008302     0.000300     NO 
 Maximum Displacement     0.050832     0.001800     NO 
 RMS     Displacement     0.019437     0.001200     NO 
 Predicted change in Energy=-2.330625D-03
 GradGradGradGradGradGradGradGradGradGradGradGradGradGradGradGradGradGrad

                          Input orientation:                          
 ---------------------------------------------------------------------
 Center     Atomic     Atomic              Coordinates (Angstroms)
 Number     Number      Type              X           Y           Z
 ---------------------------------------------------------------------
    1          1             0       -1.894066    0.000000   -1.174700
    2          6             0       -0.936816    0.000000   -0.667430
    3          1             0        0.677709    0.000000   -2.178316
    4          6             0        0.356599    0.000000   -1.145044
    5          1             0        2.244354    0.000000    0.093407
    6          6             0        1.162191    0.000000    0.024288
    7          7             0        0.427758    0.000000    1.131501
    8          1             0       -1.594762    0.000000    1.363334
    9          7             0       -0.842834    0.000000    0.688747
 ---------------------------------------------------------------------
                    Distance matrix (angstroms):
                    1          2          3          4          5
     1  H    0.000000
     2  C    1.083351   0.000000
     3  H    2.760665   2.211214   0.000000
     4  C    2.250860   1.378782   1.082018   0.000000
     5  H    4.328350   3.270889   2.759548   2.257737   0.000000
     6  C    3.283029   2.210047   2.255258   1.419971   1.084368
     7  N    3.272526   2.257923   3.319242   2.277657   2.092286
     8  H    2.555621   2.134689   4.208018   3.178014   4.043702
     9  N    2.139515   1.359430   3.245321   2.191217   3.144068
                    6          7          8          9
     6  C    0.000000
     7  N    1.328651   0.000000
     8  H    3.064937   2.035763   0.000000
     9  N    2.112258   1.345524   1.010180   0.000000
 Stoichiometry    C3H4N2
 Framework group  CS[SG(C3H4N2)]
 Deg. of freedom   15
 Full point group                 CS      NOp   2
 Largest Abelian subgroup         CS      NOp   2
 Largest concise Abelian subgroup C1      NOp   1
                         Standard orientation:                         
 ---------------------------------------------------------------------
 Center     Atomic     Atomic              Coordinates (Angstroms)
 Number     Number      Type              X           Y           Z
 ---------------------------------------------------------------------
    1          1             0        2.109076    0.727228    0.000000
    2          6             0        1.111661    0.304367    0.000000
    3          1             0        1.265746   -1.901472    0.000000
    4          6             0        0.666473   -1.000564    0.000000
    5          1             0       -1.485243   -1.684302    0.000000
    6          6             0       -0.749041   -0.888148    0.000000
    7          7             0       -1.144990    0.380133    0.000000
    8          1             0       -0.049201    2.095819    0.000000
    9          7             0        0.000000    1.086838    0.000000
 ---------------------------------------------------------------------
 Rotational constants (GHZ):      9.6460645      9.4038573      4.7617106
 Isotopes: H-1,C-12,H-1,C-12,H-1,C-12,N-14,H-1,N-14
 Standard basis: 6-31G(d) (6D, 7F)
 There are    63 symmetry adapted basis functions of A'  symmetry.
 There are    20 symmetry adapted basis functions of A"  symmetry.
 Crude estimate of integral set expansion from redundant integrals=1.000.
 Integral buffers will be    262144 words long.
 Raffenetti 1 integral format.
 Two-electron integral symmetry is turned on.
    83 basis functions      156 primitive gaussians
    18 alpha electrons       18 beta electrons
       nuclear repulsion energy       162.9063711348 Hartrees.
 One-electron integrals computed using PRISM.
 NBasis=    83 RedAO= T  NBF=    63    20
 NBsUse=    83 1.00D-04 NBFU=    63    20
 Initial guess read from the read-write file:
 Initial guess orbital symmetries:
       Occupied  (A') (A') (A') (A') (A') (A') (A') (A') (A') (A')
                 (A') (A') (A") (A') (A') (A') (A") (A")
       Virtual   (A") (A') (A") (A') (A') (A') (A') (A') (A') (A')
                 (A') (A') (A") (A') (A") (A') (A') (A") (A') (A')
                 (A") (A') (A') (A") (A') (A') (A') (A') (A') (A')
                 (A') (A') (A') (A") (A") (A") (A') (A') (A") (A")
                 (A') (A') (A') (A') (A') (A') (A") (A") (A') (A')
                 (A") (A") (A') (A") (A') (A') (A') (A') (A') (A')
                 (A') (A') (A') (A') (A')
 Requested convergence on RMS density matrix=1.00D-08 within  64 cycles.
 Requested convergence on MAX density matrix=1.00D-06.
 Keep R1 integrals in memory in canonical form, NReq=     6535303.
 SCF Done:  E(RHF) =  -224.791035734     A.U. after   13 cycles
             Convg  =    0.3193D-08             -V/T =  2.0028
             S**2   =   0.0000
 Range of M.O.s used for correlation:     6    83
 NBasis=    83 NAE=    18 NBE=    18 NFC=     5 NFV=     0
 NROrb=     78 NOA=    13 NOB=    13 NVA=    65 NVB=    65
 Estimate disk for full transformation    52918570 words.
 Spin components of T(2) and E(2):
     alpha-alpha T2 =       0.3388562612D-01 E2=     -0.9640138141D-01
     alpha-beta  T2 =       0.1782052687D+00 E2=     -0.5191833937D+00
     beta-beta   T2 =       0.3388562612D-01 E2=     -0.9640138141D-01
 ANorm=    0.1116233184D+01
 E2=       -0.7119861565D+00 EUMP2=       -0.22550302189011D+03
 Iterations=  50 Convergence= 0.100D-07
 Iteration Nr.   1
 **********************
 MP4(R+Q)=  0.17828157D-01
 E3=       -0.12747863D-01        EUMP3=      -0.22551576975D+03
 E4(DQ)=   -0.47292152D-03        UMP4(DQ)=   -0.22551624267D+03
 DE(CORR)= -0.70690586D+00        E(CORR)=    -0.22549794160D+03
 NORM(A)=   0.11134810D+01
 Iteration Nr.   2
 **********************
 DE(CORR)= -0.72309634D+00        E(CORR)=    -0.22551413207D+03
 NORM(A)=   0.11217432D+01
 Iteration Nr.   3
 **********************
 DE(CORR)= -0.72514923D+00        E(CORR)=    -0.22551618497D+03
 NORM(A)=   0.11227112D+01
 Iteration Nr.   4
 **********************
 DE(CORR)= -0.72622920D+00        E(CORR)=    -0.22551726493D+03
 NORM(A)=   0.11230827D+01
 Iteration Nr.   5
 **********************
 DE(CORR)= -0.72631861D+00        E(CORR)=    -0.22551735435D+03
 NORM(A)=   0.11231427D+01
 Iteration Nr.   6
 **********************
 DE(CORR)= -0.72632688D+00        E(CORR)=    -0.22551736262D+03
 NORM(A)=   0.11231418D+01
 Iteration Nr.   7
 **********************
 DE(CORR)= -0.72632720D+00        E(CORR)=    -0.22551736294D+03
 NORM(A)=   0.11231461D+01
 Iteration Nr.   8
 **********************
 DE(CORR)= -0.72632619D+00        E(CORR)=    -0.22551736193D+03
 NORM(A)=   0.11231465D+01
 Iteration Nr.   9
 **********************
 DE(CORR)= -0.72632657D+00        E(CORR)=    -0.22551736231D+03
 NORM(A)=   0.11231468D+01
 Iteration Nr.  10
 **********************
 DE(CORR)= -0.72632668D+00        E(CORR)=    -0.22551736241D+03
 NORM(A)=   0.11231470D+01
 Iteration Nr.  11
 **********************
 DE(CORR)= -0.72632676D+00        E(CORR)=    -0.22551736249D+03
 NORM(A)=   0.11231471D+01
 Iteration Nr.  12
 **********************
 DE(CORR)= -0.72632680D+00        E(CORR)=    -0.22551736253D+03
 NORM(A)=   0.11231471D+01
 Iteration Nr.  13
 **********************
 DE(CORR)= -0.72632681D+00        E(CORR)=    -0.22551736254D+03
 NORM(A)=   0.11231471D+01
 Iteration Nr.  14
 **********************
 DE(CORR)= -0.72632681D+00        E(CORR)=    -0.22551736255D+03
 NORM(A)=   0.11231471D+01
 Largest amplitude= 7.82D-02

 Z-AMPLITUDE ITERATIONS

 Iteration Nr.   1
 **********************
 DE(Z)  -0.70473727D+00          E(Z)=    -0.22549577301D+03
 NORM(A)=   0.11231476D+01
 Iteration Nr.   2
 **********************
 DE(Z)  -0.70473726D+00          E(Z)=    -0.22549577300D+03
 NORM(A)=   0.11231471D+01
 Iteration Nr.   3
 **********************
 DE(Z)  -0.70473727D+00          E(Z)=    -0.22549577301D+03
 NORM(A)=   0.11231471D+01
 Iteration Nr.   4
 **********************
 DE(Z)  -0.70473727D+00          E(Z)=    -0.22549577301D+03
 NORM(A)=   0.11231471D+01
 Iteration Nr.   5
 **********************
 DE(Z)  -0.70473727D+00          E(Z)=    -0.22549577301D+03
 NORM(A)=   0.11155531D+01
 Iteration Nr.   6
 **********************
 DE(Z)  -0.70488270D+00          E(Z)=    -0.22549591844D+03
 NORM(A)=   0.11155278D+01
 Iteration Nr.   7
 **********************
 DE(Z)  -0.70488690D+00          E(Z)=    -0.22549592263D+03
 NORM(A)=   0.11155231D+01
 Iteration Nr.   8
 **********************
 DE(Z)  -0.70488820D+00          E(Z)=    -0.22549592394D+03
 NORM(A)=   0.11155222D+01
 Iteration Nr.   9
 **********************
 DE(Z)  -0.70488855D+00          E(Z)=    -0.22549592428D+03
 NORM(A)=   0.11155221D+01
 Iteration Nr.  10
 **********************
 DE(Z)  -0.70488857D+00          E(Z)=    -0.22549592431D+03
 NORM(A)=   0.11155221D+01
 Iteration Nr.  11
 **********************
 DE(Z)  -0.70488854D+00          E(Z)=    -0.22549592427D+03
 NORM(A)=   0.11155220D+01
 Iteration Nr.  12
 **********************
 DE(Z)  -0.70488854D+00          E(Z)=    -0.22549592427D+03
 NORM(A)=   0.11155220D+01
 Iteration Nr.  13
 **********************
 DE(Z)  -0.70488853D+00          E(Z)=    -0.22549592427D+03
 NORM(A)=   0.11155220D+01
 Discarding MO integrals.
          Differentiating once with respect to electric field.
                with respect to dipole field.
          Differentiating once with respect to nuclear coordinates.
          Store integrals in memory, NReq=     6518293.
          There are   1 degrees of freedom in the 1st order CPHF.
   1 vectors were produced by pass  0.
 AX will form   1 AO Fock derivatives at one time.
   1 vectors were produced by pass  1.
   1 vectors were produced by pass  2.
   1 vectors were produced by pass  3.
   1 vectors were produced by pass  4.
   1 vectors were produced by pass  5.
   1 vectors were produced by pass  6.
   1 vectors were produced by pass  7.
   1 vectors were produced by pass  8.
   1 vectors were produced by pass  9.
   1 vectors were produced by pass 10.
   1 vectors were produced by pass 11.
   1 vectors were produced by pass 12.
   1 vectors were produced by pass 13.
   1 vectors were produced by pass 14.
 Inv2:  IOpt= 1 Iter= 1 AM= 2.46D-16 Conv= 1.00D-12.
 Inverted reduced A of dimension  15 with in-core refinement.
 ***** Axes restored to original set *****
 -------------------------------------------------------------------
 Center     Atomic                   Forces (Hartrees/Bohr)
 Number     Number              X              Y              Z
 -------------------------------------------------------------------
    1          1           0.000479026    0.000000000    0.000648989
    2          6          -0.000014453    0.000000000   -0.001059789
    3          1          -0.000242530    0.000000000    0.000351119
    4          6           0.001069762    0.000000000    0.004665434
    5          1          -0.000754343    0.000000000    0.000617765
    6          6          -0.000899067    0.000000000   -0.007093601
    7          7          -0.000085001    0.000000000    0.004631866
    8          1           0.000585511    0.000000000   -0.000196515
    9          7          -0.000138904    0.000000000   -0.002565269
 -------------------------------------------------------------------
 Cartesian Forces:  Max     0.007093601 RMS     0.001975664

 GradGradGradGradGradGradGradGradGradGradGradGradGradGradGradGradGradGrad
 Berny optimization.
 Internal  Forces:  Max     0.003881977 RMS     0.000991814
 Search for a local minimum.
 Step number   2 out of a maximum of  48
 All quantities printed in internal units (Hartrees-Bohrs-Radians)
 Update second derivatives using information from points  1  2
 Trust test= 9.90D-01 RLast= 9.40D-02 DXMaxT set to 3.00D-01
     Eigenvalues ---    0.02140   0.02277   0.02343   0.02397   0.02534
     Eigenvalues ---    0.02554   0.15965   0.16000   0.16000   0.16006
     Eigenvalues ---    0.21794   0.22706   0.37151   0.37274   0.37470
     Eigenvalues ---    0.40663   0.48544   0.50186   0.54731   0.57883
     Eigenvalues ---    0.618531000.000001000.000001000.000001000.00000
     Eigenvalues --- 1000.000001000.000001000.000001000.000001000.00000
     Eigenvalues --- 1000.000001000.000001000.000001000.000001000.00000
     Eigenvalues --- 1000.000001000.000001000.00000
 RFO step:  Lambda=-9.93915358D-05.
 Quartic linear search produced a step of  0.00027.
 Iteration  1 RMS(Cart)=  0.00223398 RMS(Int)=  0.00000529
 Iteration  2 RMS(Cart)=  0.00000669 RMS(Int)=  0.00000132
 Iteration  3 RMS(Cart)=  0.00000000 RMS(Int)=  0.00000132
 Variable       Old X    -DE/DX   Delta X   Delta X   Delta X     New X
                                 (Linear)    (Quad)   (Total)
    R1        2.04724  -0.00073   0.00001  -0.00142  -0.00142   2.04582
    R2        2.60552  -0.00144   0.00001  -0.00260  -0.00259   2.60292
    R3        2.56895  -0.00109   0.00001  -0.00124  -0.00123   2.56772
    R4        2.04472  -0.00041   0.00001  -0.00059  -0.00059   2.04413
    R5        2.68336  -0.00388   0.00000  -0.00890  -0.00890   2.67446
    R6        2.04916  -0.00071   0.00001  -0.00139  -0.00139   2.04777
    R7        2.51079   0.00258   0.00001   0.00517   0.00519   2.51597
    R8        2.54267   0.00059   0.00001   0.00199   0.00200   2.54467
    R9        1.90896  -0.00057   0.00001  -0.00046  -0.00046   1.90851
    A1        2.30056   0.00059   0.00000   0.00409   0.00409   2.30465
    A2        2.12728  -0.00013   0.00000  -0.00037  -0.00037   2.12692
    A3        1.85534  -0.00046   0.00000  -0.00372  -0.00372   1.85162
    A4        2.22584  -0.00070   0.00000  -0.00255  -0.00255   2.22329
    A5        1.82032   0.00114   0.00000   0.00344   0.00344   1.82376
    A6        2.23703  -0.00044   0.00000  -0.00089  -0.00089   2.23614
    A7        2.23784   0.00037   0.00000   0.00285   0.00285   2.24069
    A8        1.95265   0.00063   0.00000   0.00285   0.00285   1.95550
    A9        2.09269  -0.00099   0.00000  -0.00569  -0.00569   2.08700
   A10        1.82117  -0.00225   0.00000  -0.00737  -0.00737   1.81380
   A11        1.97529   0.00093   0.00000   0.00480   0.00481   1.98010
   A12        2.23284  -0.00023   0.00000  -0.00089  -0.00089   2.23195
   A13        2.07505  -0.00070   0.00000  -0.00392  -0.00392   2.07113
    D1        0.00000   0.00000   0.00000   0.00000   0.00000   0.00000
    D2        3.14159   0.00000   0.00000   0.00000   0.00000   3.14159
    D3        3.14159   0.00000   0.00000   0.00000   0.00000   3.14159
    D4        0.00000   0.00000   0.00000   0.00000   0.00000   0.00000
    D5        3.14159   0.00000   0.00000   0.00000   0.00000   3.14159
    D6        0.00000   0.00000   0.00000   0.00000   0.00000   0.00000
    D7        0.00000   0.00000   0.00000   0.00000   0.00000   0.00000
    D8        3.14159   0.00000   0.00000   0.00000   0.00000   3.14159
    D9        3.14159   0.00000   0.00000   0.00000   0.00000   3.14159
   D10        0.00000   0.00000   0.00000   0.00000   0.00000   0.00000
   D11        0.00000   0.00000   0.00000   0.00000   0.00000   0.00000
   D12        3.14159   0.00000   0.00000   0.00000   0.00000   3.14159
   D13        0.00000   0.00000   0.00000   0.00000   0.00000   0.00000
   D14        3.14159   0.00000   0.00000   0.00000   0.00000   3.14159
   D15        0.00000   0.00000   0.00000   0.00000   0.00000   0.00000
   D16        3.14159   0.00000   0.00000   0.00000   0.00000   3.14159
         Item               Value     Threshold  Converged?
 Maximum Force            0.003882     0.000450     NO 
 RMS     Force            0.000992     0.000300     NO 
 Maximum Displacement     0.005201     0.001800     NO 
 RMS     Displacement     0.002237     0.001200     NO 
 Predicted change in Energy=-4.968751D-05
 GradGradGradGradGradGradGradGradGradGradGradGradGradGradGradGradGradGrad

                          Input orientation:                          
 ---------------------------------------------------------------------
 Center     Atomic     Atomic              Coordinates (Angstroms)
 Number     Number      Type              X           Y           Z
 ---------------------------------------------------------------------
    1          1             0       -1.894758    0.000000   -1.177414
    2          6             0       -0.937358    0.000000   -0.672029
    3          1             0        0.676901    0.000000   -2.178954
    4          6             0        0.355951    0.000000   -1.145956
    5          1             0        2.241281    0.000000    0.089852
    6          6             0        1.159983    0.000000    0.018733
    7          7             0        0.428254    0.000000    1.131021
    8          1             0       -1.593260    0.000000    1.358068
    9          7             0       -0.841746    0.000000    0.683380
 ---------------------------------------------------------------------
                    Distance matrix (angstroms):
                    1          2          3          4          5
     1  H    0.000000
     2  C    1.082602   0.000000
     3  H    2.759803   2.208314   0.000000
     4  C    2.250928   1.377409   1.081708   0.000000
     5  H    4.325827   3.268671   2.755860   2.254261   0.000000
     6  C    3.280581   2.208165   2.250155   1.415263   1.083634
     7  N    3.274944   2.261833   3.319301   2.278125   2.090718
     8  H    2.553344   2.133425   4.202874   3.173257   4.038821
     9  N    2.138080   1.358778   3.240253   2.186538   3.139638
                    6          7          8          9
     6  C    0.000000
     7  N    1.331395   0.000000
     8  H    3.061726   2.034224   0.000000
     9  N    2.109188   1.346582   1.009939   0.000000
 Stoichiometry    C3H4N2
 Framework group  CS[SG(C3H4N2)]
 Deg. of freedom   15
 Full point group                 CS      NOp   2
 Largest Abelian subgroup         CS      NOp   2
 Largest concise Abelian subgroup C1      NOp   1
                         Standard orientation:                         
 ---------------------------------------------------------------------
 Center     Atomic     Atomic              Coordinates (Angstroms)
 Number     Number      Type              X           Y           Z
 ---------------------------------------------------------------------
    1          1             0        2.108366    0.729214    0.000000
    2          6             0        1.112587    0.304418    0.000000
    3          1             0        1.265158   -1.898620    0.000000
    4          6             0        0.665428   -0.998388    0.000000
    5          1             0       -1.482275   -1.683270    0.000000
    6          6             0       -0.745569   -0.888583    0.000000
    7          7             0       -1.147965    0.380546    0.000000
    8          1             0       -0.050178    2.093127    0.000000
    9          7             0        0.000000    1.084435    0.000000
 ---------------------------------------------------------------------
 Rotational constants (GHZ):      9.6691858      9.4004999      4.7664750
 Isotopes: H-1,C-12,H-1,C-12,H-1,C-12,N-14,H-1,N-14
 Standard basis: 6-31G(d) (6D, 7F)
 There are    63 symmetry adapted basis functions of A'  symmetry.
 There are    20 symmetry adapted basis functions of A"  symmetry.
 Crude estimate of integral set expansion from redundant integrals=1.000.
 Integral buffers will be    262144 words long.
 Raffenetti 1 integral format.
 Two-electron integral symmetry is turned on.
    83 basis functions      156 primitive gaussians
    18 alpha electrons       18 beta electrons
       nuclear repulsion energy       162.9734589876 Hartrees.
 One-electron integrals computed using PRISM.
 NBasis=    83 RedAO= T  NBF=    63    20
 NBsUse=    83 1.00D-04 NBFU=    63    20
 Initial guess read from the read-write file:
 Initial guess orbital symmetries:
       Occupied  (A') (A') (A') (A') (A') (A') (A') (A') (A') (A')
                 (A') (A') (A") (A') (A') (A') (A") (A")
       Virtual   (A") (A') (A") (A') (A') (A') (A') (A') (A') (A')
                 (A') (A') (A") (A') (A") (A') (A') (A") (A') (A')
                 (A") (A') (A') (A") (A') (A') (A') (A') (A') (A')
                 (A') (A') (A') (A") (A") (A") (A') (A') (A") (A")
                 (A') (A') (A') (A') (A') (A') (A") (A") (A') (A')
                 (A") (A") (A") (A') (A') (A') (A') (A') (A') (A')
                 (A') (A') (A') (A') (A')
 Requested convergence on RMS density matrix=1.00D-08 within  64 cycles.
 Requested convergence on MAX density matrix=1.00D-06.
 Keep R1 integrals in memory in canonical form, NReq=     6535303.
 SCF Done:  E(RHF) =  -224.790986253     A.U. after   11 cycles
             Convg  =    0.9935D-08             -V/T =  2.0028
             S**2   =   0.0000
 Range of M.O.s used for correlation:     6    83
 NBasis=    83 NAE=    18 NBE=    18 NFC=     5 NFV=     0
 NROrb=     78 NOA=    13 NOB=    13 NVA=    65 NVB=    65
 Estimate disk for full transformation    52918570 words.
 Spin components of T(2) and E(2):
     alpha-alpha T2 =       0.3391085810D-01 E2=     -0.9645966048D-01
     alpha-beta  T2 =       0.1782411521D+00 E2=     -0.5192939479D+00
     beta-beta   T2 =       0.3391085810D-01 E2=     -0.9645966048D-01
 ANorm=    0.1116271861D+01
 E2=       -0.7122132688D+00 EUMP2=       -0.22550319952162D+03
 Iterations=  50 Convergence= 0.100D-07
 Iteration Nr.   1
 **********************
 MP4(R+Q)=  0.17852109D-01
 E3=       -0.12630146D-01        EUMP3=      -0.22551582967D+03
 E4(DQ)=   -0.46822606D-03        UMP4(DQ)=   -0.22551629789D+03
 DE(CORR)= -0.70699131D+00        E(CORR)=    -0.22549797756D+03
 NORM(A)=   0.11134529D+01
 Iteration Nr.   2
 **********************
 DE(CORR)= -0.72321226D+00        E(CORR)=    -0.22551419851D+03
 NORM(A)=   0.11217156D+01
 Iteration Nr.   3
 **********************
 DE(CORR)= -0.72525239D+00        E(CORR)=    -0.22551623864D+03
 NORM(A)=   0.11226806D+01
 Iteration Nr.   4
 **********************
 DE(CORR)= -0.72633300D+00        E(CORR)=    -0.22551731925D+03
 NORM(A)=   0.11230517D+01
 Iteration Nr.   5
 **********************
 DE(CORR)= -0.72642226D+00        E(CORR)=    -0.22551740852D+03
 NORM(A)=   0.11231116D+01
 Iteration Nr.   6
 **********************
 DE(CORR)= -0.72643049D+00        E(CORR)=    -0.22551741674D+03
 NORM(A)=   0.11231107D+01
 Iteration Nr.   7
 **********************
 DE(CORR)= -0.72643081D+00        E(CORR)=    -0.22551741707D+03
 NORM(A)=   0.11231150D+01
 Iteration Nr.   8
 **********************
 DE(CORR)= -0.72642980D+00        E(CORR)=    -0.22551741606D+03
 NORM(A)=   0.11231153D+01
 Iteration Nr.   9
 **********************
 DE(CORR)= -0.72643019D+00        E(CORR)=    -0.22551741644D+03
 NORM(A)=   0.11231157D+01
 Iteration Nr.  10
 **********************
 DE(CORR)= -0.72643029D+00        E(CORR)=    -0.22551741654D+03
 NORM(A)=   0.11231158D+01
 Iteration Nr.  11
 **********************
 DE(CORR)= -0.72643037D+00        E(CORR)=    -0.22551741662D+03
 NORM(A)=   0.11231159D+01
 Iteration Nr.  12
 **********************
 DE(CORR)= -0.72643041D+00        E(CORR)=    -0.22551741666D+03
 NORM(A)=   0.11231159D+01
 Iteration Nr.  13
 **********************
 DE(CORR)= -0.72643042D+00        E(CORR)=    -0.22551741667D+03
 NORM(A)=   0.11231160D+01
 Iteration Nr.  14
 **********************
 DE(CORR)= -0.72643042D+00        E(CORR)=    -0.22551741667D+03
 NORM(A)=   0.11231160D+01
 Largest amplitude= 7.92D-02

 Z-AMPLITUDE ITERATIONS

 Iteration Nr.   1
 **********************
 DE(Z)  -0.70482840D+00          E(Z)=    -0.22549581465D+03
 NORM(A)=   0.11231374D+01
 Iteration Nr.   2
 **********************
 DE(Z)  -0.70482797D+00          E(Z)=    -0.22549581422D+03
 NORM(A)=   0.11227900D+01
 Iteration Nr.   3
 **********************
 DE(Z)  -0.70483476D+00          E(Z)=    -0.22549582101D+03
 NORM(A)=   0.11232095D+01
 Iteration Nr.   4
 **********************
 DE(Z)  -0.70482652D+00          E(Z)=    -0.22549581277D+03
 NORM(A)=   0.11233448D+01
 Iteration Nr.   5
 **********************
 DE(Z)  -0.70482379D+00          E(Z)=    -0.22549581004D+03
 NORM(A)=   0.11154904D+01
 Iteration Nr.   6
 **********************
 DE(Z)  -0.70498558D+00          E(Z)=    -0.22549597184D+03
 NORM(A)=   0.11154902D+01
 Iteration Nr.   7
 **********************
 DE(Z)  -0.70498561D+00          E(Z)=    -0.22549597186D+03
 NORM(A)=   0.11154901D+01
 Iteration Nr.   8
 **********************
 DE(Z)  -0.70498557D+00          E(Z)=    -0.22549597182D+03
 NORM(A)=   0.11154900D+01
 Iteration Nr.   9
 **********************
 DE(Z)  -0.70498557D+00          E(Z)=    -0.22549597183D+03
 NORM(A)=   0.11154900D+01
 Iteration Nr.  10
 **********************
 DE(Z)  -0.70498557D+00          E(Z)=    -0.22549597182D+03
 NORM(A)=   0.11154900D+01
 Discarding MO integrals.
          Differentiating once with respect to electric field.
                with respect to dipole field.
          Differentiating once with respect to nuclear coordinates.
          Store integrals in memory, NReq=     6518293.
          There are   1 degrees of freedom in the 1st order CPHF.
   1 vectors were produced by pass  0.
 AX will form   1 AO Fock derivatives at one time.
   1 vectors were produced by pass  1.
   1 vectors were produced by pass  2.
   1 vectors were produced by pass  3.
   1 vectors were produced by pass  4.
   1 vectors were produced by pass  5.
   1 vectors were produced by pass  6.
   1 vectors were produced by pass  7.
   1 vectors were produced by pass  8.
   1 vectors were produced by pass  9.
   1 vectors were produced by pass 10.
   1 vectors were produced by pass 11.
   1 vectors were produced by pass 12.
   1 vectors were produced by pass 13.
   1 vectors were produced by pass 14.
 Inv2:  IOpt= 1 Iter= 1 AM= 3.35D-16 Conv= 1.00D-12.
 Inverted reduced A of dimension  15 with in-core refinement.
 ***** Axes restored to original set *****
 -------------------------------------------------------------------
 Center     Atomic                   Forces (Hartrees/Bohr)
 Number     Number              X              Y              Z
 -------------------------------------------------------------------
    1          1           0.000144402    0.000000000    0.000294310
    2          6          -0.000212072    0.000000000    0.000684400
    3          1          -0.000015431    0.000000000    0.000114432
    4          6           0.001079390    0.000000000    0.000881978
    5          1          -0.000134669    0.000000000    0.000176381
    6          6           0.000754147    0.000000000   -0.002208534
    7          7          -0.000731322    0.000000000    0.000268862
    8          1           0.000136458    0.000000000   -0.000149820
    9          7          -0.001020901    0.000000000   -0.000062008
 -------------------------------------------------------------------
 Cartesian Forces:  Max     0.002208534 RMS     0.000601450

 GradGradGradGradGradGradGradGradGradGradGradGradGradGradGradGradGradGrad
 Berny optimization.
 Internal  Forces:  Max     0.001262517 RMS     0.000383999
 Search for a local minimum.
 Step number   3 out of a maximum of  48
 All quantities printed in internal units (Hartrees-Bohrs-Radians)
 Update second derivatives using information from points  1  2  3
 Trust test= 1.09D+00 RLast= 1.77D-02 DXMaxT set to 3.00D-01
     Eigenvalues ---    0.02139   0.02276   0.02343   0.02397   0.02534
     Eigenvalues ---    0.02553   0.14703   0.16000   0.16000   0.16039
     Eigenvalues ---    0.21669   0.28857   0.31816   0.37180   0.37306
     Eigenvalues ---    0.37658   0.48758   0.49460   0.54747   0.58380
     Eigenvalues ---    0.614801000.000001000.000001000.000001000.00000
     Eigenvalues --- 1000.000001000.000001000.000001000.000001000.00000
     Eigenvalues --- 1000.000001000.000001000.000001000.000001000.00000
     Eigenvalues --- 1000.000001000.000001000.00000
 RFO step:  Lambda=-1.66212777D-05.
 Quartic linear search produced a step of  0.09513.
 Iteration  1 RMS(Cart)=  0.00122789 RMS(Int)=  0.00000088
 Iteration  2 RMS(Cart)=  0.00000098 RMS(Int)=  0.00000024
 Variable       Old X    -DE/DX   Delta X   Delta X   Delta X     New X
                                 (Linear)    (Quad)   (Total)
    R1        2.04582  -0.00027  -0.00013  -0.00075  -0.00089   2.04493
    R2        2.60292   0.00078  -0.00025   0.00149   0.00124   2.60417
    R3        2.56772  -0.00072  -0.00012  -0.00139  -0.00150   2.56621
    R4        2.04413  -0.00011  -0.00006  -0.00025  -0.00031   2.04382
    R5        2.67446  -0.00126  -0.00085  -0.00374  -0.00458   2.66988
    R6        2.04777  -0.00012  -0.00013  -0.00033  -0.00047   2.04730
    R7        2.51597   0.00114   0.00049   0.00262   0.00311   2.51909
    R8        2.54467   0.00006   0.00019   0.00046   0.00065   2.54532
    R9        1.90851  -0.00020  -0.00004  -0.00031  -0.00036   1.90815
    A1        2.30465   0.00001   0.00039   0.00095   0.00134   2.30599
    A2        2.12692  -0.00038  -0.00003  -0.00207  -0.00211   2.12481
    A3        1.85162   0.00037  -0.00035   0.00112   0.00077   1.85239
    A4        2.22329  -0.00008  -0.00024  -0.00046  -0.00070   2.22258
    A5        1.82376   0.00019   0.00033   0.00106   0.00139   1.82515
    A6        2.23614  -0.00012  -0.00008  -0.00060  -0.00069   2.23545
    A7        2.24069   0.00043   0.00027   0.00253   0.00280   2.24349
    A8        1.95550  -0.00048   0.00027  -0.00184  -0.00157   1.95393
    A9        2.08700   0.00005  -0.00054  -0.00069  -0.00124   2.08576
   A10        1.81380   0.00047  -0.00070   0.00205   0.00134   1.81514
   A11        1.98010  -0.00055   0.00046  -0.00239  -0.00193   1.97816
   A12        2.23195   0.00025  -0.00008   0.00119   0.00110   2.23306
   A13        2.07113   0.00029  -0.00037   0.00120   0.00083   2.07196
    D1        0.00000   0.00000   0.00000   0.00000   0.00000   0.00000
    D2        3.14159   0.00000   0.00000   0.00000   0.00000   3.14159
    D3        3.14159   0.00000   0.00000   0.00000   0.00000   3.14159
    D4        0.00000   0.00000   0.00000   0.00000   0.00000   0.00000
    D5        3.14159   0.00000   0.00000   0.00000   0.00000   3.14159
    D6        0.00000   0.00000   0.00000   0.00000   0.00000   0.00000
    D7        0.00000   0.00000   0.00000   0.00000   0.00000   0.00000
    D8        3.14159   0.00000   0.00000   0.00000   0.00000   3.14159
    D9        3.14159   0.00000   0.00000   0.00000   0.00000   3.14159
   D10        0.00000   0.00000   0.00000   0.00000   0.00000   0.00000
   D11        0.00000   0.00000   0.00000   0.00000   0.00000   0.00000
   D12        3.14159   0.00000   0.00000   0.00000   0.00000   3.14159
   D13        0.00000   0.00000   0.00000   0.00000   0.00000   0.00000
   D14        3.14159   0.00000   0.00000   0.00000   0.00000   3.14159
   D15        0.00000   0.00000   0.00000   0.00000   0.00000   0.00000
   D16        3.14159   0.00000   0.00000   0.00000   0.00000   3.14159
         Item               Value     Threshold  Converged?
 Maximum Force            0.001263     0.000450     NO 
 RMS     Force            0.000384     0.000300     NO 
 Maximum Displacement     0.003953     0.001800     NO 
 RMS     Displacement     0.001228     0.001200     NO 
 Predicted change in Energy=-8.719773D-06
 GradGradGradGradGradGradGradGradGradGradGradGradGradGradGradGradGradGrad

                          Input orientation:                          
 ---------------------------------------------------------------------
 Center     Atomic     Atomic              Coordinates (Angstroms)
 Number     Number      Type              X           Y           Z
 ---------------------------------------------------------------------
    1          1             0       -1.894839    0.000000   -1.175597
    2          6             0       -0.937347    0.000000   -0.671397
    3          1             0        0.677257    0.000000   -2.178077
    4          6             0        0.356737    0.000000   -1.145118
    5          1             0        2.241545    0.000000    0.089719
    6          6             0        1.160619    0.000000    0.016729
    7          7             0        0.427416    0.000000    1.130021
    8          1             0       -1.594653    0.000000    1.357886
    9          7             0       -0.843281    0.000000    0.683323
 ---------------------------------------------------------------------
                    Distance matrix (angstroms):
                    1          2          3          4          5
     1  H    0.000000
     2  C    1.082132   0.000000
     3  H    2.760552   2.208399   0.000000
     4  C    2.251783   1.378065   1.081544   0.000000
     5  H    4.325586   3.268738   2.754976   2.253291   0.000000
     6  C    3.279858   2.207935   2.247401   1.412839   1.083387
     7  N    3.272421   2.260018   3.317518   2.276236   2.091241
     8  H    2.551204   2.133082   4.202928   3.173791   4.040379
     9  N    2.135733   1.357982   3.240315   2.187062   3.141419
                    6          7          8          9
     6  C    0.000000
     7  N    1.333043   0.000000
     8  H    3.064347   2.034867   0.000000
     9  N    2.111862   1.346926   1.009750   0.000000
 Stoichiometry    C3H4N2
 Framework group  CS[SG(C3H4N2)]
 Deg. of freedom   15
 Full point group                 CS      NOp   2
 Largest Abelian subgroup         CS      NOp   2
 Largest concise Abelian subgroup C1      NOp   1
                         Standard orientation:                         
 ---------------------------------------------------------------------
 Center     Atomic     Atomic              Coordinates (Angstroms)
 Number     Number      Type              X           Y           Z
 ---------------------------------------------------------------------
    1          1             0        2.106216    0.731694    0.000000
    2          6             0        1.111565    0.305456    0.000000
    3          1             0        1.265108   -1.897600    0.000000
    4          6             0        0.664574   -0.998102    0.000000
    5          1             0       -1.481617   -1.684533    0.000000
    6          6             0       -0.744189   -0.890853    0.000000
    7          7             0       -1.147230    0.379801    0.000000
    8          1             0       -0.050801    2.094015    0.000000
    9          7             0        0.000000    1.085544    0.000000
 ---------------------------------------------------------------------
 Rotational constants (GHZ):      9.6525218      9.4193639      4.7672588
 Isotopes: H-1,C-12,H-1,C-12,H-1,C-12,N-14,H-1,N-14
 Standard basis: 6-31G(d) (6D, 7F)
 There are    63 symmetry adapted basis functions of A'  symmetry.
 There are    20 symmetry adapted basis functions of A"  symmetry.
 Crude estimate of integral set expansion from redundant integrals=1.000.
 Integral buffers will be    262144 words long.
 Raffenetti 1 integral format.
 Two-electron integral symmetry is turned on.
    83 basis functions      156 primitive gaussians
    18 alpha electrons       18 beta electrons
       nuclear repulsion energy       162.9811042175 Hartrees.
 One-electron integrals computed using PRISM.
 NBasis=    83 RedAO= T  NBF=    63    20
 NBsUse=    83 1.00D-04 NBFU=    63    20
 Initial guess read from the read-write file:
 Initial guess orbital symmetries:
       Occupied  (A') (A') (A') (A') (A') (A') (A') (A') (A') (A')
                 (A') (A') (A") (A') (A') (A') (A") (A")
       Virtual   (A") (A') (A") (A') (A') (A') (A') (A') (A') (A')
                 (A') (A') (A") (A') (A") (A') (A') (A") (A') (A')
                 (A") (A') (A') (A") (A') (A') (A') (A') (A') (A')
                 (A') (A') (A') (A") (A") (A") (A') (A') (A") (A")
                 (A') (A') (A') (A') (A') (A') (A") (A") (A') (A')
                 (A") (A") (A") (A') (A') (A') (A') (A') (A') (A')
                 (A') (A') (A') (A') (A')
 Requested convergence on RMS density matrix=1.00D-08 within  64 cycles.
 Requested convergence on MAX density matrix=1.00D-06.
 Keep R1 integrals in memory in canonical form, NReq=     6535303.
 SCF Done:  E(RHF) =  -224.790945881     A.U. after   10 cycles
             Convg  =    0.8536D-08             -V/T =  2.0028
             S**2   =   0.0000
 Range of M.O.s used for correlation:     6    83
 NBasis=    83 NAE=    18 NBE=    18 NFC=     5 NFV=     0
 NROrb=     78 NOA=    13 NOB=    13 NVA=    65 NVB=    65
 Estimate disk for full transformation    52918570 words.
 Spin components of T(2) and E(2):
     alpha-alpha T2 =       0.3392564388D-01 E2=     -0.9648350233D-01
     alpha-beta  T2 =       0.1782802976D+00 E2=     -0.5193457631D+00
     beta-beta   T2 =       0.3392564388D-01 E2=     -0.9648350233D-01
 ANorm=    0.1116302641D+01
 E2=       -0.7123127678D+00 EUMP2=       -0.22550325864869D+03
 Iterations=  50 Convergence= 0.100D-07
 Iteration Nr.   1
 **********************
 MP4(R+Q)=  0.17866401D-01
 E3=       -0.12580355D-01        EUMP3=      -0.22551583900D+03
 E4(DQ)=   -0.46449962D-03        UMP4(DQ)=   -0.22551630350D+03
 DE(CORR)= -0.70702672D+00        E(CORR)=    -0.22549797260D+03
 NORM(A)=   0.11134516D+01
 Iteration Nr.   2
 **********************
 DE(CORR)= -0.72326341D+00        E(CORR)=    -0.22551420929D+03
 NORM(A)=   0.11217175D+01
 Iteration Nr.   3
 **********************
 DE(CORR)= -0.72529760D+00        E(CORR)=    -0.22551624348D+03
 NORM(A)=   0.11226820D+01
 Iteration Nr.   4
 **********************
 DE(CORR)= -0.72637918D+00        E(CORR)=    -0.22551732506D+03
 NORM(A)=   0.11230533D+01
 Iteration Nr.   5
 **********************
 DE(CORR)= -0.72646846D+00        E(CORR)=    -0.22551741434D+03
 NORM(A)=   0.11231132D+01
 Iteration Nr.   6
 **********************
 DE(CORR)= -0.72647668D+00        E(CORR)=    -0.22551742256D+03
 NORM(A)=   0.11231124D+01
 Iteration Nr.   7
 **********************
 DE(CORR)= -0.72647700D+00        E(CORR)=    -0.22551742288D+03
 NORM(A)=   0.11231166D+01
 Iteration Nr.   8
 **********************
 DE(CORR)= -0.72647599D+00        E(CORR)=    -0.22551742187D+03
 NORM(A)=   0.11231170D+01
 Iteration Nr.   9
 **********************
 DE(CORR)= -0.72647637D+00        E(CORR)=    -0.22551742225D+03
 NORM(A)=   0.11231173D+01
 Iteration Nr.  10
 **********************
 DE(CORR)= -0.72647648D+00        E(CORR)=    -0.22551742236D+03
 NORM(A)=   0.11231175D+01
 Iteration Nr.  11
 **********************
 DE(CORR)= -0.72647655D+00        E(CORR)=    -0.22551742244D+03
 NORM(A)=   0.11231176D+01
 Iteration Nr.  12
 **********************
 DE(CORR)= -0.72647659D+00        E(CORR)=    -0.22551742247D+03
 NORM(A)=   0.11231176D+01
 Iteration Nr.  13
 **********************
 DE(CORR)= -0.72647660D+00        E(CORR)=    -0.22551742248D+03
 NORM(A)=   0.11231176D+01
 Iteration Nr.  14
 **********************
 DE(CORR)= -0.72647661D+00        E(CORR)=    -0.22551742249D+03
 NORM(A)=   0.11231176D+01
 Largest amplitude= 8.00D-02

 Z-AMPLITUDE ITERATIONS

 Iteration Nr.   1
 **********************
 DE(Z)  -0.70486410D+00          E(Z)=    -0.22549580998D+03
 NORM(A)=   0.11231078D+01
 Iteration Nr.   2
 **********************
 DE(Z)  -0.70486430D+00          E(Z)=    -0.22549581018D+03
 NORM(A)=   0.11231237D+01
 Iteration Nr.   3
 **********************
 DE(Z)  -0.70486398D+00          E(Z)=    -0.22549580986D+03
 NORM(A)=   0.11231214D+01
 Iteration Nr.   4
 **********************
 DE(Z)  -0.70486402D+00          E(Z)=    -0.22549580990D+03
 NORM(A)=   0.11231190D+01
 Iteration Nr.   5
 **********************
 DE(Z)  -0.70486407D+00          E(Z)=    -0.22549580995D+03
 NORM(A)=   0.11155051D+01
 Iteration Nr.   6
 **********************
 DE(Z)  -0.70502029D+00          E(Z)=    -0.22549596617D+03
 NORM(A)=   0.11154895D+01
 Iteration Nr.   7
 **********************
 DE(Z)  -0.70502456D+00          E(Z)=    -0.22549597045D+03
 NORM(A)=   0.11154892D+01
 Iteration Nr.   8
 **********************
 DE(Z)  -0.70502473D+00          E(Z)=    -0.22549597061D+03
 NORM(A)=   0.11154889D+01
 Iteration Nr.   9
 **********************
 DE(Z)  -0.70502462D+00          E(Z)=    -0.22549597050D+03
 NORM(A)=   0.11154886D+01
 Iteration Nr.  10
 **********************
 DE(Z)  -0.70502465D+00          E(Z)=    -0.22549597053D+03
 NORM(A)=   0.11154885D+01
 Iteration Nr.  11
 **********************
 DE(Z)  -0.70502465D+00          E(Z)=    -0.22549597053D+03
 NORM(A)=   0.11154885D+01
 Iteration Nr.  12
 **********************
 DE(Z)  -0.70502464D+00          E(Z)=    -0.22549597052D+03
 NORM(A)=   0.11154885D+01
 Iteration Nr.  13
 **********************
 DE(Z)  -0.70502464D+00          E(Z)=    -0.22549597052D+03
 NORM(A)=   0.11154885D+01
 Discarding MO integrals.
          Differentiating once with respect to electric field.
                with respect to dipole field.
          Differentiating once with respect to nuclear coordinates.
          Store integrals in memory, NReq=     6518293.
          There are   1 degrees of freedom in the 1st order CPHF.
   1 vectors were produced by pass  0.
 AX will form   1 AO Fock derivatives at one time.
   1 vectors were produced by pass  1.
   1 vectors were produced by pass  2.
   1 vectors were produced by pass  3.
   1 vectors were produced by pass  4.
   1 vectors were produced by pass  5.
   1 vectors were produced by pass  6.
   1 vectors were produced by pass  7.
   1 vectors were produced by pass  8.
   1 vectors were produced by pass  9.
   1 vectors were produced by pass 10.
   1 vectors were produced by pass 11.
   1 vectors were produced by pass 12.
   1 vectors were produced by pass 13.
   1 vectors were produced by pass 14.
 Inv2:  IOpt= 1 Iter= 1 AM= 3.65D-16 Conv= 1.00D-12.
 Inverted reduced A of dimension  15 with in-core refinement.
 ***** Axes restored to original set *****
 -------------------------------------------------------------------
 Center     Atomic                   Forces (Hartrees/Bohr)
 Number     Number              X              Y              Z
 -------------------------------------------------------------------
    1          1          -0.000047615    0.000000000   -0.000123306
    2          6          -0.000248167    0.000000000    0.000187549
    3          1          -0.000058906    0.000000000   -0.000060005
    4          6          -0.000074485    0.000000000   -0.000503428
    5          1          -0.000002277    0.000000000    0.000085247
    6          6          -0.000253803    0.000000000    0.000488024
    7          7          -0.000101407    0.000000000    0.000184167
    8          1           0.000058902    0.000000000   -0.000003751
    9          7           0.000727759    0.000000000   -0.000254496
 -------------------------------------------------------------------
 Cartesian Forces:  Max     0.000727759 RMS     0.000222130

 GradGradGradGradGradGradGradGradGradGradGradGradGradGradGradGradGradGrad
 Berny optimization.
 Internal  Forces:  Max     0.000478827 RMS     0.000158094
 Search for a local minimum.
 Step number   4 out of a maximum of  48
 All quantities printed in internal units (Hartrees-Bohrs-Radians)
 Update second derivatives using information from points  1  2  3  4
 Trust test= 6.67D-01 RLast= 8.07D-03 DXMaxT set to 3.00D-01
     Eigenvalues ---    0.02138   0.02275   0.02343   0.02398   0.02534
     Eigenvalues ---    0.02553   0.13777   0.16000   0.16009   0.16178
     Eigenvalues ---    0.21983   0.27983   0.37092   0.37297   0.37570
     Eigenvalues ---    0.42395   0.48165   0.49129   0.53793   0.59620
     Eigenvalues ---    0.618401000.000001000.000001000.000001000.00000
     Eigenvalues --- 1000.000001000.000001000.000001000.000001000.00000
     Eigenvalues --- 1000.000001000.000001000.000001000.000001000.00000
     Eigenvalues --- 1000.000001000.000001000.00000
 RFO step:  Lambda=-7.66187089D-07.
 Quartic linear search produced a step of -0.25039.
 Iteration  1 RMS(Cart)=  0.00049605 RMS(Int)=  0.00000012
 Iteration  2 RMS(Cart)=  0.00000011 RMS(Int)=  0.00000007
 Variable       Old X    -DE/DX   Delta X   Delta X   Delta X     New X
                                 (Linear)    (Quad)   (Total)
    R1        2.04493   0.00010   0.00022  -0.00002   0.00021   2.04514
    R2        2.60417  -0.00004  -0.00031   0.00044   0.00013   2.60430
    R3        2.56621   0.00000   0.00038  -0.00045  -0.00007   2.56614
    R4        2.04382   0.00004   0.00008   0.00000   0.00008   2.04390
    R5        2.66988   0.00048   0.00115  -0.00011   0.00104   2.67092
    R6        2.04730   0.00000   0.00012  -0.00009   0.00003   2.04733
    R7        2.51909  -0.00022  -0.00078   0.00043  -0.00035   2.51873
    R8        2.54532  -0.00034  -0.00016  -0.00039  -0.00056   2.54476
    R9        1.90815  -0.00005   0.00009  -0.00018  -0.00009   1.90806
    A1        2.30599  -0.00002  -0.00034   0.00004  -0.00030   2.30569
    A2        2.12481   0.00016   0.00053   0.00004   0.00057   2.12537
    A3        1.85239  -0.00014  -0.00019  -0.00008  -0.00027   1.85212
    A4        2.22258   0.00004   0.00018  -0.00020  -0.00003   2.22256
    A5        1.82515  -0.00023  -0.00035  -0.00026  -0.00061   1.82454
    A6        2.23545   0.00019   0.00017   0.00046   0.00063   2.23609
    A7        2.24349  -0.00001  -0.00070   0.00075   0.00005   2.24354
    A8        1.95393   0.00020   0.00039   0.00021   0.00060   1.95453
    A9        2.08576  -0.00019   0.00031  -0.00096  -0.00065   2.08512
   A10        1.81514  -0.00025  -0.00034  -0.00037  -0.00071   1.81443
   A11        1.97816   0.00042   0.00048   0.00050   0.00099   1.97915
   A12        2.23306  -0.00018  -0.00028  -0.00010  -0.00038   2.23268
   A13        2.07196  -0.00025  -0.00021  -0.00040  -0.00061   2.07136
    D1        0.00000   0.00000   0.00000   0.00000   0.00000   0.00000
    D2        3.14159   0.00000   0.00000   0.00000   0.00000   3.14159
    D3        3.14159   0.00000   0.00000   0.00000   0.00000   3.14159
    D4        0.00000   0.00000   0.00000   0.00000   0.00000   0.00000
    D5        3.14159   0.00000   0.00000   0.00000   0.00000   3.14159
    D6        0.00000   0.00000   0.00000   0.00000   0.00000   0.00000
    D7        0.00000   0.00000   0.00000   0.00000   0.00000   0.00000
    D8        3.14159   0.00000   0.00000   0.00000   0.00000   3.14159
    D9        3.14159   0.00000   0.00000   0.00000   0.00000   3.14159
   D10        0.00000   0.00000   0.00000   0.00000   0.00000   0.00000
   D11        0.00000   0.00000   0.00000   0.00000   0.00000   0.00000
   D12        3.14159   0.00000   0.00000   0.00000   0.00000   3.14159
   D13        0.00000   0.00000   0.00000   0.00000   0.00000   0.00000
   D14        3.14159   0.00000   0.00000   0.00000   0.00000   3.14159
   D15        0.00000   0.00000   0.00000   0.00000   0.00000   0.00000
   D16        3.14159   0.00000   0.00000   0.00000   0.00000   3.14159
         Item               Value     Threshold  Converged?
 Maximum Force            0.000479     0.000450     NO 
 RMS     Force            0.000158     0.000300     YES
 Maximum Displacement     0.001532     0.001800     YES
 RMS     Displacement     0.000496     0.001200     YES
 Predicted change in Energy=-1.113392D-06
 GradGradGradGradGradGradGradGradGradGradGradGradGradGradGradGradGradGrad

                          Input orientation:                          
 ---------------------------------------------------------------------
 Center     Atomic     Atomic              Coordinates (Angstroms)
 Number     Number      Type              X           Y           Z
 ---------------------------------------------------------------------
    1          1             0       -1.894952    0.000000   -1.175484
    2          6             0       -0.937398    0.000000   -0.671169
    3          1             0        0.676911    0.000000   -2.178290
    4          6             0        0.356644    0.000000   -1.145209
    5          1             0        2.241306    0.000000    0.090846
    6          6             0        1.160398    0.000000    0.017394
    7          7             0        0.427542    0.000000    1.130690
    8          1             0       -1.593915    0.000000    1.358089
    9          7             0       -0.842658    0.000000    0.683467
 ---------------------------------------------------------------------
                    Distance matrix (angstroms):
                    1          2          3          4          5
     1  H    0.000000
     2  C    1.082241   0.000000
     3  H    2.760453   2.208485   0.000000
     4  C    2.251799   1.378135   1.081585   0.000000
     5  H    4.325762   3.268764   2.756140   2.253837   0.000000
     6  C    3.279958   2.207909   2.248285   1.413388   1.083401
     7  N    3.272983   2.260476   3.318362   2.277003   2.090697
     8  H    2.551395   2.132816   4.202692   3.173512   4.039161
     9  N    2.136123   1.357945   3.240177   2.186866   3.140388
                    6          7          8          9
     6  C    0.000000
     7  N    1.332856   0.000000
     8  H    3.063283   2.034207   0.000000
     9  N    2.110898   1.346631   1.009703   0.000000
 Stoichiometry    C3H4N2
 Framework group  CS[SG(C3H4N2)]
 Deg. of freedom   15
 Full point group                 CS      NOp   2
 Largest Abelian subgroup         CS      NOp   2
 Largest concise Abelian subgroup C1      NOp   1
                         Standard orientation:                         
 ---------------------------------------------------------------------
 Center     Atomic     Atomic              Coordinates (Angstroms)
 Number     Number      Type              X           Y           Z
 ---------------------------------------------------------------------
    1          1             0        2.106640    0.731331    0.000000
    2          6             0        1.111783    0.305298    0.000000
    3          1             0        1.265454   -1.897833    0.000000
    4          6             0        0.664830   -0.998346    0.000000
    5          1             0       -1.482340   -1.683507    0.000000
    6          6             0       -0.744420   -0.890266    0.000000
    7          7             0       -1.147453    0.380195    0.000000
    8          1             0       -0.050736    2.093441    0.000000
    9          7             0        0.000000    1.085013    0.000000
 ---------------------------------------------------------------------
 Rotational constants (GHZ):      9.6581571      9.4138885      4.7672293
 Isotopes: H-1,C-12,H-1,C-12,H-1,C-12,N-14,H-1,N-14
 Standard basis: 6-31G(d) (6D, 7F)
[...]
 Frequencies --  1548.0941              1623.9640              3283.5062
 Red. masses --     2.7678                 3.2440                 1.0934
 Frc consts  --     3.9083                 5.0406                 6.9453
 IR Inten    --     9.5545                 6.6658                 4.3360
 Raman Activ --     0.0000                 0.0000                 0.0000
 Depolar     --     0.0000                 0.0000                 0.0000
 Atom AN      X      Y      Z        X      Y      Z        X      Y      Z
   1   1     0.00  -0.29   0.00     0.32  -0.30   0.00    -0.17  -0.07   0.00
   2   6    -0.18   0.17   0.00     0.04   0.25   0.00     0.02   0.01   0.00
   3   1    -0.12  -0.21   0.00     0.31  -0.04   0.00     0.22  -0.33   0.00
   4   6     0.09  -0.05   0.00    -0.05  -0.22   0.00    -0.02   0.03   0.00
   5   1     0.03  -0.06   0.00     0.38  -0.25   0.00     0.61   0.65   0.00
   6   6    -0.05   0.03   0.00    -0.12   0.20   0.00    -0.05  -0.06   0.00
   7   7    -0.06   0.01   0.00     0.07  -0.12   0.00     0.00   0.00   0.00
   8   1    -0.82  -0.16   0.00     0.56  -0.01   0.00     0.00   0.01   0.00
   9   7     0.25  -0.08   0.00    -0.07  -0.04   0.00     0.00   0.00   0.00
                    19                     20                     21
                    A'                     A'                     A'
 Frequencies --  3295.6860              3314.4831              3704.5919
 Red. masses --     1.0952                 1.1088                 1.0823
 Frc consts  --     7.0087                 7.1769                 8.7510
 IR Inten    --     2.5757                 0.5535                85.4529
 Raman Activ --     0.0000                 0.0000                 0.0000
 Depolar     --     0.0000                 0.0000                 0.0000
 Atom AN      X      Y      Z        X      Y      Z        X      Y      Z
   1   1     0.73   0.31   0.00    -0.53  -0.23   0.00     0.01   0.00   0.00
   2   6    -0.07  -0.03   0.00     0.05   0.03   0.00     0.00   0.00   0.00
   3   1    -0.27   0.39   0.00    -0.43   0.65   0.00     0.00   0.00   0.00
   4   6     0.03  -0.03   0.00     0.04  -0.06   0.00     0.00   0.00   0.00
   5   1     0.26   0.27   0.00     0.16   0.16   0.00     0.00   0.00   0.00
   6   6    -0.02  -0.03   0.00    -0.02  -0.01   0.00     0.00   0.00   0.00
   7   7     0.00   0.00   0.00     0.00   0.00   0.00     0.00   0.00   0.00
   8   1    -0.01  -0.01   0.00     0.00   0.01   0.00    -0.05   1.00   0.00
   9   7     0.00   0.00   0.00     0.00   0.00   0.00     0.01  -0.08   0.00

 -------------------
 - Thermochemistry -
 -------------------
 Temperature   298.150 Kelvin.  Pressure   1.00000 Atm.
 Atom  1 has atomic number  1 and mass   1.00783
 Atom  2 has atomic number  6 and mass  12.00000
 Atom  3 has atomic number  1 and mass   1.00783
 Atom  4 has atomic number  6 and mass  12.00000
 Atom  5 has atomic number  1 and mass   1.00783
 Atom  6 has atomic number  6 and mass  12.00000
 Atom  7 has atomic number  7 and mass  14.00307
 Atom  8 has atomic number  1 and mass   1.00783
 Atom  9 has atomic number  7 and mass  14.00307
 Molecular mass:    68.03745 amu.
 Principal axes and moments of inertia in atomic units:
                           1         2         3
     EIGENVALUES --   186.86186 191.71049 378.57235
           X            0.92098   0.38960   0.00000
           Y           -0.38960   0.92098   0.00000
           Z            0.00000   0.00000   1.00000
 THIS MOLECULE IS AN ASYMMETRIC TOP.
 ROTATIONAL SYMMETRY NUMBER  1.
 ROTATIONAL TEMPERATURES (KELVIN)      0.46352     0.45179     0.22879
 ROTATIONAL CONSTANTS (GHZ)            9.65816     9.41389     4.76723
 Zero-point vibrational energy     189985.5 (Joules/Mol)
                                   45.40763 (Kcal/Mol)
 WARNING-- EXPLICIT CONSIDERATION OF   1 DEGREES OF FREEDOM AS
           VIBRATIONS MAY CAUSE SIGNIFICANT ERROR
 VIBRATIONAL TEMPERATURES:    733.07   907.90  1006.78  1083.03  1176.48
          (KELVIN)           1243.55  1346.48  1375.13  1564.06  1571.37
                             1698.78  1763.46  1904.95  2061.36  2134.73
                             2227.35  2336.51  4724.21  4741.73  4768.77
                             5330.05
 
 Zero-point correction=                           0.072362 (Hartree/Particle)
 Thermal correction to Energy=                    0.076101
 Thermal correction to Enthalpy=                  0.077045
 Thermal correction to Gibbs Free Energy=         0.046091
 Sum of electronic and zero-point Energies=           -225.445062
 Sum of electronic and thermal Energies=              -225.441323
 Sum of electronic and thermal Enthalpies=            -225.440378
 Sum of electronic and thermal Free Energies=         -225.471333
 
                     E (Thermal)             CV                S
                      KCAL/MOL        CAL/MOL-KELVIN    CAL/MOL-KELVIN
 TOTAL                   47.754             13.179             65.149
 ELECTRONIC               0.000              0.000              0.000
 TRANSLATIONAL            0.889              2.981             38.570
 ROTATIONAL               0.889              2.981             24.121
 VIBRATIONAL             45.977              7.218              2.458
 VIBRATION  1             0.865              1.229              0.635
                       Q            LOG10(Q)             LN(Q)
 TOTAL BOT       0.630872D-21        -21.200059        -48.814940
 TOTAL V=0       0.121274D+13         12.083767         27.823901
 VIB (BOT)       0.686043D-33        -33.163649        -76.362123
 VIB (BOT)  1    0.319841D+00         -0.495066         -1.139932
 VIB (V=0)       0.131880D+01          0.120177          0.276719
 VIB (V=0)  1    0.109355D+01          0.038837          0.089427
 ELECTRONIC      0.100000D+01          0.000000          0.000000
 TRANSLATIONAL   0.220588D+08          7.343582         16.909224
 ROTATIONAL      0.416876D+05          4.620007         10.637959
 ***** Axes restored to original set *****
 -------------------------------------------------------------------
 Center     Atomic                   Forces (Hartrees/Bohr)
 Number     Number              X              Y              Z
 -------------------------------------------------------------------
    1          1          -0.000001220    0.000000000   -0.000023802
    2          6          -0.000061374    0.000000000    0.000105841
    3          1          -0.000017998    0.000000000   -0.000000715
    4          6           0.000039928    0.000000000   -0.000044240
    5          1           0.000010075    0.000000000    0.000011324
    6          6           0.000043671    0.000000000    0.000035760
    7          7          -0.000086705    0.000000000   -0.000072394
    8          1          -0.000022280    0.000000000    0.000000577
    9          7           0.000095903    0.000000000   -0.000012350
 -------------------------------------------------------------------
 Cartesian Forces:  Max     0.000105841 RMS     0.000041021

 GradGradGradGradGradGradGradGradGradGradGradGradGradGradGradGradGradGrad
 Berny optimization.
 Internal  Forces:  Max     0.000070107 RMS     0.000022753
 Search for a local minimum.
 Step number   1 out of a maximum of  48
 All quantities printed in internal units (Hartrees-Bohrs-Radians)
 Second derivative matrix not updated -- analytic derivatives used.
     Eigenvalues ---    0.00676   0.01053   0.01590   0.02782   0.05769
     Eigenvalues ---    0.06146   0.09950   0.10956   0.11678   0.12491
     Eigenvalues ---    0.23544   0.28074   0.36759   0.37898   0.38263
     Eigenvalues ---    0.38571   0.42612   0.44974   0.48822   0.52707
     Eigenvalues ---    0.593411000.000001000.000001000.000001000.00000
     Eigenvalues --- 1000.000001000.000001000.000001000.000001000.00000
     Eigenvalues --- 1000.000001000.000001000.000001000.000001000.00000
     Eigenvalues --- 1000.000001000.000001000.00000
 Angle between quadratic step and forces=  34.28 degrees.
 Linear search not attempted -- first point.
 Iteration  1 RMS(Cart)=  0.00010842 RMS(Int)=  0.00000001
 Iteration  2 RMS(Cart)=  0.00000001 RMS(Int)=  0.00000000
 Variable       Old X    -DE/DX   Delta X   Delta X   Delta X     New X
                                 (Linear)    (Quad)   (Total)
    R1        2.04514   0.00001   0.00000   0.00003   0.00003   2.04517
    R2        2.60430   0.00006   0.00000   0.00013   0.00013   2.60443
    R3        2.56614  -0.00005   0.00000  -0.00012  -0.00012   2.56602
    R4        2.04390   0.00000   0.00000  -0.00001  -0.00001   2.04389
    R5        2.67092   0.00003   0.00000   0.00008   0.00008   2.67100
    R6        2.04733   0.00001   0.00000   0.00002   0.00002   2.04735
    R7        2.51873  -0.00001   0.00000   0.00000   0.00000   2.51873
    R8        2.54476  -0.00007   0.00000  -0.00022  -0.00022   2.54455
    R9        1.90806   0.00002   0.00000   0.00004   0.00004   1.90810
    A1        2.30569  -0.00002   0.00000  -0.00022  -0.00022   2.30547
    A2        2.12537   0.00002   0.00000   0.00023   0.00023   2.12560
    A3        1.85212   0.00000   0.00000   0.00000   0.00000   1.85211
    A4        2.22256  -0.00001   0.00000  -0.00018  -0.00018   2.22237
    A5        1.82454  -0.00001   0.00000  -0.00003  -0.00003   1.82452
    A6        2.23609   0.00003   0.00000   0.00021   0.00021   2.23630
    A7        2.24354   0.00003   0.00000   0.00018   0.00018   2.24371
    A8        1.95453  -0.00004   0.00000  -0.00013  -0.00013   1.95440
    A9        2.08512   0.00001   0.00000  -0.00005  -0.00005   2.08507
   A10        1.81443   0.00005   0.00000   0.00014   0.00014   1.81457
   A11        1.97915   0.00001   0.00000   0.00002   0.00002   1.97918
   A12        2.23268  -0.00002   0.00000  -0.00013  -0.00013   2.23255
   A13        2.07136   0.00001   0.00000   0.00010   0.00010   2.07146
    D1        0.00000   0.00000   0.00000   0.00000   0.00000   0.00000
    D2        3.14159   0.00000   0.00000   0.00000   0.00000   3.14159
    D3        3.14159   0.00000   0.00000   0.00000   0.00000   3.14159
    D4        0.00000   0.00000   0.00000   0.00000   0.00000   0.00000
    D5        3.14159   0.00000   0.00000   0.00000   0.00000   3.14159
    D6        0.00000   0.00000   0.00000   0.00000   0.00000   0.00000
    D7        0.00000   0.00000   0.00000   0.00000   0.00000   0.00000
    D8        3.14159   0.00000   0.00000   0.00000   0.00000   3.14159
    D9        3.14159   0.00000   0.00000   0.00000   0.00000   3.14159
   D10        0.00000   0.00000   0.00000   0.00000   0.00000   0.00000
   D11        0.00000   0.00000   0.00000   0.00000   0.00000   0.00000
   D12        3.14159   0.00000   0.00000   0.00000   0.00000   3.14159
   D13        0.00000   0.00000   0.00000   0.00000   0.00000   0.00000
   D14        3.14159   0.00000   0.00000   0.00000   0.00000   3.14159
   D15        0.00000   0.00000   0.00000   0.00000   0.00000   0.00000
   D16        3.14159   0.00000   0.00000   0.00000   0.00000   3.14159
         Item               Value     Threshold  Converged?
 Maximum Force            0.000070     0.000450     YES
 RMS     Force            0.000023     0.000300     YES
 Maximum Displacement     0.000425     0.001800     YES
 RMS     Displacement     0.000108     0.001200     YES
 Predicted change in Energy=-3.497414D-08
 Optimization completed.
    -- Stationary point found.
                         ----------------------------
                         !   Optimized Parameters   !
                         ! (Angstroms and Degrees)  !
 ------------------------                            -------------------------
 ! Name  Definition              Value          Derivative Info.             !
 -----------------------------------------------------------------------------
 ! R1    R(1,2)                  1.0822         -DE/DX =    0.               !
 ! R2    R(2,4)                  1.3781         -DE/DX =    0.0001           !
 ! R3    R(2,9)                  1.3579         -DE/DX =   -0.0001           !
 ! R4    R(3,4)                  1.0816         -DE/DX =    0.               !
 ! R5    R(4,6)                  1.4134         -DE/DX =    0.               !
 ! R6    R(5,6)                  1.0834         -DE/DX =    0.               !
 ! R7    R(6,7)                  1.3329         -DE/DX =    0.               !
 ! R8    R(7,9)                  1.3466         -DE/DX =   -0.0001           !
 ! R9    R(8,9)                  1.0097         -DE/DX =    0.               !
 ! A1    A(1,2,4)              132.1065         -DE/DX =    0.               !
 ! A2    A(1,2,9)              121.775          -DE/DX =    0.               !
 ! A3    A(4,2,9)              106.1185         -DE/DX =    0.               !
 ! A4    A(2,4,3)              127.3431         -DE/DX =    0.               !
 ! A5    A(2,4,6)              104.5386         -DE/DX =    0.               !
 ! A6    A(3,4,6)              128.1183         -DE/DX =    0.               !
 ! A7    A(4,6,5)              128.5452         -DE/DX =    0.               !
 ! A8    A(4,6,7)              111.9864         -DE/DX =    0.               !
 ! A9    A(5,6,7)              119.4685         -DE/DX =    0.               !
 ! A10   A(6,7,9)              103.9594         -DE/DX =    0.               !
 ! A11   A(2,9,7)              113.3971         -DE/DX =    0.               !
 ! A12   A(2,9,8)              127.923          -DE/DX =    0.               !
 ! A13   A(7,9,8)              118.6799         -DE/DX =    0.               !
 ! D1    D(1,2,4,3)              0.             -DE/DX =    0.               !
 ! D2    D(1,2,4,6)            180.             -DE/DX =    0.               !
 ! D3    D(9,2,4,3)            180.             -DE/DX =    0.               !
 ! D4    D(9,2,4,6)              0.             -DE/DX =    0.               !
 ! D5    D(1,2,9,7)            180.             -DE/DX =    0.               !
 ! D6    D(1,2,9,8)              0.             -DE/DX =    0.               !
 ! D7    D(4,2,9,7)              0.             -DE/DX =    0.               !
 ! D8    D(4,2,9,8)            180.             -DE/DX =    0.               !
 ! D9    D(2,4,6,5)            180.             -DE/DX =    0.               !
 ! D10   D(2,4,6,7)              0.             -DE/DX =    0.               !
 ! D11   D(3,4,6,5)              0.             -DE/DX =    0.               !
 ! D12   D(3,4,6,7)            180.             -DE/DX =    0.               !
 ! D13   D(4,6,7,9)              0.             -DE/DX =    0.               !
 ! D14   D(5,6,7,9)            180.             -DE/DX =    0.               !
 ! D15   D(6,7,9,2)              0.             -DE/DX =    0.               !
 ! D16   D(6,7,9,8)            180.             -DE/DX =    0.               !
 -----------------------------------------------------------------------------
 GradGradGradGradGradGradGradGradGradGradGradGradGradGradGradGradGradGrad

 1\1\GINC-PLUMBUM\Freq\RCCD-FC\6-31G(d)\C3H4N2\RDJ3\03-Feb-1999\0\\#N G
 EOM=ALLCHECK GUESS=TCHECK RCCD(FC)/6-31G(D) FREQ\\1H pyrazole C3H4N2 c
 asno=288131\\0,1\H,-1.894991039,0.,-1.1754938266\C,-0.9374362342,0.,-0
 .6711787951\H,0.6768721461,0.,-2.1782994155\C,0.3566048068,0.,-1.14521
 89276\H,2.2412668463,0.,0.0908357435\C,1.1603590977,0.,0.0173839625\N,
 0.4275029046,0.,1.1306797688\H,-1.5939538727,0.,1.3580789601\N,-0.8426
 972049,0.,0.6834575311\\Version=IBM-RS6000-G98RevA.4\State=1-A'\HF=-22
 4.7909555\MP2=-225.5032544\MP3=-225.5158396\MP4D=-225.5341689\MP4DQ=-2
 25.5163046\CCD=-225.5174236\RMSD=2.143e-09\RMSF=4.102e-05\Dipole=-0.80
 37466,0.,-0.4500934\DipoleDeriv=-0.0066804,0.,-0.0460247,0.,0.1806402,
 0.,-0.0341927,0.,0.0746982,0.1600099,0.,-0.1072072,0.,-0.0712311,0.,-0
 .3022625,0.,0.2634227,0.0931733,0.,0.0293696,0.,0.1673817,0.,0.0339048
 ,0.,-0.0268379,-0.3010481,0.,0.009924,0.,-0.2207492,0.,-0.0826554,0.,-
 0.0095237,-0.0529128,0.,-0.0115538,0.,0.1407996,0.,-0.0258058,0.,0.077
 5925,0.2475803,0.,0.1108629,0.,-0.0554142,0.,0.2560314,0.,0.1312216,0.
 0573179,0.,-0.1665577,0.,-0.2361332,0.,-0.0949856,0.,-0.5073275,0.2190
 813,0.,-0.0458032,0.,0.3392494,0.,-0.0364605,0.,0.2275868,-0.4172799,0
 .,0.2268866,0.,-0.244609,0.,0.2865697,0.,-0.2306938\PG=CS [SG(C3H4N2)]
 \NImag=0\\0.30990550,0.,0.01986047,0.13607386,0.,0.12590262,-0.3052075
 4,0.,-0.11678677,0.89535273,0.,-0.02259086,0.,0.,0.10814654,-0.1269656
 5,0.,-0.12414893,0.09069669,0.,0.68870321,0.00026434,0.,-0.00070467,0.
 00244006,0.,0.02690650,0.07943566,0.,-0.00222480,0.,0.,-0.00431170,0.,
 0.,0.02087477,0.00043339,0.,-0.00013352,-0.00353291,0.,0.00015783,-0.0
 9484671,0.,0.35335465,-0.00710704,0.,0.00948513,-0.37051817,0.,0.08467
 117,-0.08710792,0.,0.08826031,0.65953861,0.,-0.00111566,0.,0.,-0.05377
 265,0.,0.,-0.02226796,0.,0.,0.10276435,-0.01566087,0.,0.01346973,0.110
 70610,0.,-0.15387657,0.08596382,0.,-0.34092054,-0.12565666,0.,0.859983
 32,-0.00022588,0.,0.00031346,-0.00083258,0.,-0.00134811,-0.00013950,0.
 ,-0.00038255,-0.00467694,0.,0.00406781,0.37790934,0.,0.00081046,0.,0.,
 0.00514451,0.,0.,-0.00125073,0.,0.,-0.00137291,0.,0.,0.02403216,-0.001
 11675,0.,0.00114225,-0.00312440,0.,-0.00629750,0.00077348,0.,0.0001426
 0,-0.02273312,0.,0.00736889,0.02137705,0.,0.05879616,-0.00478924,0.,0.
 00477465,-0.05476502,0.,0.00012988,0.01385899,0.,0.01262239,-0.1902835
 5,0.,-0.11111139,-0.35831611,0.,-0.03307556,0.91079146,0.,0.00571951,0
 .,0.,0.00646654,0.,0.,-0.00538676,0.,0.,-0.05648103,0.,0.,-0.02831956,
 0.,0.,0.13149474,0.00130549,0.,-0.00209954,-0.07393259,0.,0.03926720,-
 0.01605526,0.,-0.00904210,-0.07462919,0.,-0.24568897,-0.02390510,0.,-0
 .06425997,-0.01230774,0.,0.64188059,0.00086223,0.,0.00046230,-0.063785
 35,0.,-0.03998728,-0.00230530,0.,-0.00150565,0.03579288,0.,0.03923469,
 -0.01292168,0.,0.02969457,-0.19493893,0.,0.15000433,0.54649208,0.,0.00
 677484,0.,0.,0.01695229,0.,0.,0.00686390,0.,0.,0.01908893,0.,0.,-0.008
 48339,0.,0.,-0.07087589,0.,0.,0.10509544,0.00214844,0.,-0.00592673,-0.
 01855978,0.,-0.06581737,-0.00622365,0.,-0.00415434,-0.03350426,0.,-0.0
 7868344,-0.00268908,0.,0.00712431,0.11487255,0.,-0.32391839,-0.0438492
 4,0.,0.59125376,-0.00026841,0.,0.00036386,0.01042704,0.,-0.00443034,0.
 00074823,0.,-0.00005782,0.00253426,0.,-0.00303594,-0.00047059,0.,0.001
 51713,-0.00792003,0.,-0.00646210,-0.02127815,0.,0.02636135,0.29987960,
 0.,-0.00122947,0.,0.,-0.00958300,0.,0.,0.00242053,0.,0.,0.00342852,0.,
 0.,0.00230781,0.,0.,0.00465104,0.,0.,-0.01341537,0.,0.,0.01247614,-0.0
 0064571,0.,0.00001723,0.02631077,0.,-0.00591557,0.00131081,0.,0.000168
 00,-0.00299229,0.,-0.00748999,-0.00051894,0.,0.00102678,-0.00593060,0.
 ,0.00134022,-0.01203009,0.,0.01653437,-0.20819960,0.,0.25683994,0.0065
 5445,0.,-0.03398503,-0.11311181,0.,-0.02969176,-0.00719784,0.,-0.00098
 779,-0.03815402,0.,0.01549725,-0.00033616,0.,0.00668663,-0.11364282,0.
 ,0.05599120,-0.28790359,0.,-0.03856834,-0.28365957,0.,0.20269942,0.837
 45753,0.,-0.00600099,0.,0.,-0.04645025,0.,0.,0.00528653,0.,0.,0.009731
 87,0.,0.,0.00713184,0.,0.,0.01274044,0.,0.,-0.06201992,0.,0.,-0.001064
 12,0.,0.,0.08065028,0.00443668,0.,-0.00821739,-0.01174865,0.,-0.372104
 41,0.00287711,0.,0.00042627,0.07705385,0.,-0.05415084,0.00308531,0.,-0
 .00503943,0.03004918,0.,-0.03748146,-0.12203958,0.,-0.13642802,0.19394
 698,0.,-0.26251517,-0.17764607,0.,0.87553473\\0.00000122,0.,0.00002380
 ,0.00006137,0.,-0.00010584,0.00001800,0.,0.00000072,-0.00003993,0.,0.0
 0004424,-0.00001008,0.,-0.00001132,-0.00004367,0.,-0.00003576,0.000086
 71,0.,0.00007239,0.00002228,0.,-0.00000058,-0.00009590,0.,0.00001235\\
 \@


 THEORY:  SUPPOSITION WHICH HAS SCIENTIFIC BASIS,
          BUT NOT EXPERIMENTALLY PROVEN.
 FACT:    A THEORY WHICH HAS BEEN PROVEN BY ENOUGH 
          MONEY TO PAY FOR THE EXPERIMENTS.

                          --  THE WIZARD OF ID
 Job cpu time:  0 days 13 hours  7 minutes 18.0 seconds.
 File lengths (MBytes):  RWF=  409 Int=    0 D2E=    0 Chk=    4 Scr=    1
 Normal termination of Gaussian 98.
