 Entering Gaussian System, Link 0=g09
 Initial command:
 /usr/local/gaussian/g09.b01.em64t.linda/g09/l1.exe /tmp/rdj3/g09-4531/Gau-10492.inp -scrdir=/tmp/rdj3/g09-4531/
 Entering Link 1 = /usr/local/gaussian/g09.b01.em64t.linda/g09/l1.exe PID=     10493.
  
 Copyright (c) 1988,1990,1992,1993,1995,1998,2003,2009,2010,
            Gaussian, Inc.  All Rights Reserved.
  
 This is part of the Gaussian(R) 09 program.  It is based on
 the Gaussian(R) 03 system (copyright 2003, Gaussian, Inc.),
 the Gaussian(R) 98 system (copyright 1998, Gaussian, Inc.),
 the Gaussian(R) 94 system (copyright 1995, Gaussian, Inc.),
 the Gaussian 92(TM) system (copyright 1992, Gaussian, Inc.),
 the Gaussian 90(TM) system (copyright 1990, Gaussian, Inc.),
 the Gaussian 88(TM) system (copyright 1988, Gaussian, Inc.),
 the Gaussian 86(TM) system (copyright 1986, Carnegie Mellon
 University), and the Gaussian 82(TM) system (copyright 1983,
 Carnegie Mellon University). Gaussian is a federally registered
 trademark of Gaussian, Inc.
  
 This software contains proprietary and confidential information,
 including trade secrets, belonging to Gaussian, Inc.
  
 This software is provided under written license and may be
 used, copied, transmitted, or stored only in accord with that
 written license.
  
 The following legend is applicable only to US Government
 contracts under FAR:
  
                    RESTRICTED RIGHTS LEGEND
  
 Use, reproduction and disclosure by the US Government is
 subject to restrictions as set forth in subparagraphs (a)
 and (c) of the Commercial Computer Software - Restricted
 Rights clause in FAR 52.227-19.
  
 Gaussian, Inc.
 340 Quinnipiac St., Bldg. 40, Wallingford CT 06492
  
  
 ---------------------------------------------------------------
 Warning -- This program may not be used in any manner that
 competes with the business of Gaussian, Inc. or will provide
 assistance to any competitor of Gaussian, Inc.  The licensee
 of this program is prohibited from giving any competitor of
 Gaussian, Inc. access to this program.  By using this program,
 the user acknowledges that Gaussian, Inc. is engaged in the
 business of creating and licensing software in the field of
 computational chemistry and represents and warrants to the
 licensee that it is not a competitor of Gaussian, Inc. and that
 it will not use this program in any manner prohibited above.
 ---------------------------------------------------------------
  

 Cite this work as:
 Gaussian 09, Revision B.01,
 M. J. Frisch, G. W. Trucks, H. B. Schlegel, G. E. Scuseria, 
 M. A. Robb, J. R. Cheeseman, G. Scalmani, V. Barone, B. Mennucci, 
 G. A. Petersson, H. Nakatsuji, M. Caricato, X. Li, H. P. Hratchian, 
 A. F. Izmaylov, J. Bloino, G. Zheng, J. L. Sonnenberg, M. Hada, 
 M. Ehara, K. Toyota, R. Fukuda, J. Hasegawa, M. Ishida, T. Nakajima, 
 Y. Honda, O. Kitao, H. Nakai, T. Vreven, J. A. Montgomery, Jr., 
 J. E. Peralta, F. Ogliaro, M. Bearpark, J. J. Heyd, E. Brothers, 
 K. N. Kudin, V. N. Staroverov, T. Keith, R. Kobayashi, J. Normand, 
 K. Raghavachari, A. Rendell, J. C. Burant, S. S. Iyengar, J. Tomasi, 
 M. Cossi, N. Rega, J. M. Millam, M. Klene, J. E. Knox, J. B. Cross, 
 V. Bakken, C. Adamo, J. Jaramillo, R. Gomperts, R. E. Stratmann, 
 O. Yazyev, A. J. Austin, R. Cammi, C. Pomelli, J. W. Ochterski, 
 R. L. Martin, K. Morokuma, V. G. Zakrzewski, G. A. Voth, 
 P. Salvador, J. J. Dannenberg, S. Dapprich, A. D. Daniels, 
 O. Farkas, J. B. Foresman, J. V. Ortiz, J. Cioslowski, 
 and D. J. Fox, Gaussian, Inc., Wallingford CT, 2010.
 
 ******************************************
 Gaussian 09:  EM64L-G09RevB.01 12-Aug-2010
                 1-Feb-2013 
 ******************************************
 %NProc=8
 Will use up to    8 processors via shared memory.
 %mem=424000000
 ------------------------------
 #MP3=FULL/6-31+G(d,p) opt freq
 ------------------------------
 1/18=20,19=15,38=1/1,3;
 2/9=110,12=2,17=6,18=5,40=1/2;
 3/5=1,6=6,7=111,11=9,16=1,25=1,30=1,71=1/1,2,3;
 4//1;
 5/5=2,38=5/2;
 8/6=4,9=120000,10=90/1,4;
 9/5=2,15=1/13;
 11/28=-10,29=200,42=3/11;
 10/5=8/2;
 6/7=2,8=2,9=2,10=2/1;
 7/12=3/1,2,3,16;
 1/18=20,19=15/3(2);
 2/9=110/2;
 99//99;
 2/9=110/2;
 3/5=1,6=6,7=111,11=9,16=1,25=1,30=1,71=1/1,2,3;
 4/5=5,16=3/1;
 5/5=2,38=5/2;
 8/6=4,9=120000,10=90/1,4;
 9/5=2,15=1/13;
 11/28=-10,29=200,42=3/11;
 10/5=8/2;
 7/12=3/1,2,3,16;
 1/18=20,19=15/3(-9);
 2/9=110/2;
 6/7=2,8=2,9=2,10=2/1;
 99//99;
 -------------------------------------------------------------------
 1hpyraz 1H-Pyrazole casno=288131 state=1 config=1 method=71 basis=4
 -------------------------------------------------------------------
 Symbolic Z-matrix:
 Charge =  0 Multiplicity = 1
 H                     2.08045   0.72242   0. 
 C                     1.09639   0.3024    0. 
 H                     1.25554  -1.87978   0. 
 C                     0.66281  -0.9897    0. 
 H                    -1.47487  -1.65877   0. 
 C                    -0.74554  -0.87448   0. 
 N                    -1.12786   0.37057   0. 
 H                    -0.04808   2.06666   0. 
 N                     0.        1.07516   0. 
 

 GradGradGradGradGradGradGradGradGradGradGradGradGradGradGradGradGradGrad
 Berny optimization.
 Initialization pass.
                           ----------------------------
                           !    Initial Parameters    !
                           ! (Angstroms and Degrees)  !
 --------------------------                            --------------------------
 ! Name  Definition              Value          Derivative Info.                !
 --------------------------------------------------------------------------------
 ! R1    R(1,2)                  1.0699         estimate D2E/DX2                !
 ! R2    R(2,4)                  1.3629         estimate D2E/DX2                !
 ! R3    R(2,9)                  1.3414         estimate D2E/DX2                !
 ! R4    R(3,4)                  1.0694         estimate D2E/DX2                !
 ! R5    R(4,6)                  1.4131         estimate D2E/DX2                !
 ! R6    R(5,6)                  1.071          estimate D2E/DX2                !
 ! R7    R(6,7)                  1.3024         estimate D2E/DX2                !
 ! R8    R(7,9)                  1.3299         estimate D2E/DX2                !
 ! R9    R(8,9)                  0.9927         estimate D2E/DX2                !
 ! A1    A(1,2,4)              131.6638         estimate D2E/DX2                !
 ! A2    A(1,2,9)              121.709          estimate D2E/DX2                !
 ! A3    A(4,2,9)              106.6272         estimate D2E/DX2                !
 ! A4    A(2,4,3)              127.7894         estimate D2E/DX2                !
 ! A5    A(2,4,6)              103.8727         estimate D2E/DX2                !
 ! A6    A(3,4,6)              128.3379         estimate D2E/DX2                !
 ! A7    A(4,6,5)              128.2433         estimate D2E/DX2                !
 ! A8    A(4,6,7)              111.7472         estimate D2E/DX2                !
 ! A9    A(5,6,7)              120.0095         estimate D2E/DX2                !
 ! A10   A(6,7,9)              104.9237         estimate D2E/DX2                !
 ! A11   A(2,9,7)              112.8292         estimate D2E/DX2                !
 ! A12   A(2,9,8)              127.9532         estimate D2E/DX2                !
 ! A13   A(7,9,8)              119.2176         estimate D2E/DX2                !
 ! D1    D(1,2,4,3)              0.0            estimate D2E/DX2                !
 ! D2    D(1,2,4,6)            180.0            estimate D2E/DX2                !
 ! D3    D(9,2,4,3)            180.0            estimate D2E/DX2                !
 ! D4    D(9,2,4,6)              0.0            estimate D2E/DX2                !
 ! D5    D(1,2,9,7)            180.0            estimate D2E/DX2                !
 ! D6    D(1,2,9,8)              0.0            estimate D2E/DX2                !
 ! D7    D(4,2,9,7)              0.0            estimate D2E/DX2                !
 ! D8    D(4,2,9,8)            180.0            estimate D2E/DX2                !
 ! D9    D(2,4,6,5)            180.0            estimate D2E/DX2                !
 ! D10   D(2,4,6,7)              0.0            estimate D2E/DX2                !
 ! D11   D(3,4,6,5)              0.0            estimate D2E/DX2                !
 ! D12   D(3,4,6,7)            180.0            estimate D2E/DX2                !
 ! D13   D(4,6,7,9)              0.0            estimate D2E/DX2                !
 ! D14   D(5,6,7,9)            180.0            estimate D2E/DX2                !
 ! D15   D(6,7,9,2)              0.0            estimate D2E/DX2                !
 ! D16   D(6,7,9,8)            180.0            estimate D2E/DX2                !
 --------------------------------------------------------------------------------
 Trust Radius=3.00D-01 FncErr=1.00D-07 GrdErr=1.00D-07
 Number of steps in this run=     48 maximum allowed number of steps=    100.
 GradGradGradGradGradGradGradGradGradGradGradGradGradGradGradGradGradGrad

                          Input orientation:                          
 ---------------------------------------------------------------------
 Center     Atomic      Atomic             Coordinates (Angstroms)
 Number     Number       Type             X           Y           Z
 ---------------------------------------------------------------------
      1          1           0        2.080447    0.722417    0.000000
      2          6           0        1.096394    0.302400    0.000000
      3          1           0        1.255542   -1.879784    0.000000
      4          6           0        0.662812   -0.989701    0.000000
      5          1           0       -1.474873   -1.658768    0.000000
      6          6           0       -0.745544   -0.874478    0.000000
      7          7           0       -1.127859    0.370571    0.000000
      8          1           0       -0.048078    2.066660    0.000000
      9          7           0        0.000000    1.075164    0.000000
 ---------------------------------------------------------------------
                    Distance matrix (angstroms):
                    1          2          3          4          5
     1  H    0.000000
     2  C    1.069941   0.000000
     3  H    2.729820   2.187980   0.000000
     4  C    2.222844   1.362908   1.069381   0.000000
     5  H    4.279059   3.233820   2.739346   2.239944   0.000000
     6  C    3.245967   2.185813   2.239416   1.413062   1.070996
     7  N    3.227541   2.225297   3.277911   2.248742   2.058795
     8  H    2.517461   2.102957   4.156182   3.137946   3.989305
     9  N    2.110140   1.341359   3.210624   2.168637   3.106386
                    6          7          8          9
     6  C    0.000000
     7  N    1.302425   0.000000
     8  H    3.022706   2.010633   0.000000
     9  N    2.087328   1.329856   0.992661   0.000000
 Stoichiometry    C3H4N2
 Framework group  CS[SG(C3H4N2)]
 Deg. of freedom    15
 Full point group                 CS      NOp   2
 Largest Abelian subgroup         CS      NOp   2
 Largest concise Abelian subgroup C1      NOp   1
                         Standard orientation:                         
 ---------------------------------------------------------------------
 Center     Atomic      Atomic             Coordinates (Angstroms)
 Number     Number       Type             X           Y           Z
 ---------------------------------------------------------------------
      1          1           0        2.080447    0.722417    0.000000
      2          6           0        1.096394    0.302400    0.000000
      3          1           0        1.255542   -1.879784    0.000000
      4          6           0        0.662812   -0.989701    0.000000
      5          1           0       -1.474873   -1.658768    0.000000
      6          6           0       -0.745544   -0.874478    0.000000
      7          7           0       -1.127859    0.370571    0.000000
      8          1           0       -0.048078    2.066660    0.000000
      9          7           0        0.000000    1.075164    0.000000
 ---------------------------------------------------------------------
 Rotational constants (GHZ):      9.8799678      9.6409251      4.8794914
 Standard basis: 6-31+G(d,p) (6D, 7F)
 There are    86 symmetry adapted basis functions of A'  symmetry.
 There are    29 symmetry adapted basis functions of A"  symmetry.
 Integral buffers will be    131072 words long.
 Raffenetti 1 integral format.
 Two-electron integral symmetry is turned on.
   115 basis functions,   188 primitive gaussians,   115 cartesian basis functions
    18 alpha electrons       18 beta electrons
       nuclear repulsion energy       164.9559150659 Hartrees.
 NAtoms=    9 NActive=    9 NUniq=    9 SFac= 1.00D+00 NAtFMM=   50 NAOKFM=F Big=F
 One-electron integrals computed using PRISM.
 NBasis=   115 RedAO= T  NBF=    86    29
 NBsUse=   115 1.00D-06 NBFU=    86    29
 Harris functional with IExCor=  205 diagonalized for initial guess.
 ExpMin= 4.38D-02 ExpMax= 4.17D+03 ExpMxC= 6.27D+02 IAcc=2 IRadAn=         0 AccDes= 0.00D+00
 HarFok:  IExCor=  205 AccDes= 0.00D+00 IRadAn=         0 IDoV= 1
 ScaDFX=  1.000000  1.000000  1.000000  1.000000
 FoFCou: FMM=F IPFlag=           0 FMFlag=      100000 FMFlg1=           0
         NFxFlg=           0 DoJE=T BraDBF=F KetDBF=T FulRan=T
         Omega=  0.000000  0.000000  1.000000  0.000000  0.000000 ICntrl=     500 IOpCl=  0
         NMat0=    1 NMatS0=    1 NMatT0=    0 NMatD0=    1 NMtDS0=    0 NMtDT0=    0
         I1Cent=           4 NGrid=           0.
 Petite list used in FoFCou.
 Initial guess orbital symmetries:
       Occupied  (A') (A') (A') (A') (A') (A') (A') (A') (A') (A')
                 (A') (A') (A') (A") (A') (A') (A") (A")
       Virtual   (A") (A") (A') (A') (A') (A') (A') (A") (A') (A')
                 (A") (A') (A") (A') (A') (A') (A') (A') (A") (A')
                 (A') (A') (A") (A') (A') (A') (A') (A') (A') (A')
                 (A') (A') (A") (A') (A") (A") (A') (A') (A') (A')
                 (A') (A") (A') (A") (A') (A') (A') (A') (A') (A')
                 (A") (A') (A') (A") (A") (A') (A") (A") (A') (A')
                 (A') (A') (A') (A') (A') (A") (A") (A') (A") (A')
                 (A") (A') (A") (A') (A') (A") (A') (A') (A") (A')
                 (A") (A') (A') (A") (A') (A') (A') (A') (A') (A')
                 (A') (A') (A') (A') (A') (A') (A')
 The electronic state of the initial guess is 1-A'.
 Requested convergence on RMS density matrix=1.00D-08 within 128 cycles.
 Requested convergence on MAX density matrix=1.00D-06.
 Requested convergence on             energy=1.00D-06.
 No special actions if energy rises.
 Keep R1 ints in memory in canonical form, NReq=23127437.
 SCF Done:  E(RHF) =  -224.811405985     A.U. after   14 cycles
             Convg  =    0.5667D-08             -V/T =  2.0014
 Range of M.O.s used for correlation:     1   115
 NBasis=   115 NAE=    18 NBE=    18 NFC=     0 NFV=     0
 NROrb=    115 NOA=    18 NOB=    18 NVA=    97 NVB=    97

 **** Warning!!: The largest alpha MO coefficient is  0.41098089D+02

 Semi-Direct transformation.
 ModeAB=           2 MOrb=            18 LenV=     423570061
 LASXX=      6539076 LTotXX=     6539076 LenRXX=     6539076
 LTotAB=     6744303 MaxLAS=    13806900 LenRXY=    13806900
 NonZer=    14111190 LenScr=    21948416 LnRSAI=           0
 LnScr1=           0 LExtra=           0 Total=     42294392
 MaxDsk=          -1 SrtSym=           F ITran=            4
 JobTyp=0 Pass  1:  I=   1 to  18.
 (rs|ai) integrals will be sorted in core.
 Spin components of T(2) and E(2):
     alpha-alpha T2 =       0.3466783051D-01 E2=     -0.1009449346D+00
     alpha-beta  T2 =       0.1820074559D+00 E2=     -0.5589007486D+00
     beta-beta   T2 =       0.3466783051D-01 E2=     -0.1009449346D+00
 ANorm=    0.1118634488D+01
 E2 =    -0.7607906178D+00 EUMP2 =    -0.22557219660263D+03
 R2 and R3 integrals will be kept in memory, NReq=    45315570.
 DD1Dir will call FoFMem   1 times, MxPair=       342
 NAB=   171 NAA=     0 NBB=     0.
 E3=       -0.13346573D-01        EUMP3=      -0.22558554318D+03
 Largest amplitude= 3.66D-02
 Discarding MO integrals.
          IDoAtm=111111111
          Differentiating once with respect to electric field.
                with respect to dipole field.
          Differentiating once with respect to nuclear coordinates.
          Keep R1 ints in memory in canonical form, NReq=23068991.
          There are     1 degrees of freedom in the 1st order CPHF.  IDoFFX=0.
 LinEq1:  Iter=  0 NonCon=     1 RMS=3.44D-03 Max=5.06D-02
 AX will form     1 AO Fock derivatives at one time.
 LinEq1:  Iter=  1 NonCon=     1 RMS=1.07D-03 Max=1.23D-02
 LinEq1:  Iter=  2 NonCon=     1 RMS=4.53D-04 Max=9.69D-03
 LinEq1:  Iter=  3 NonCon=     1 RMS=1.90D-04 Max=2.59D-03
 LinEq1:  Iter=  4 NonCon=     1 RMS=7.10D-05 Max=1.04D-03
 LinEq1:  Iter=  5 NonCon=     1 RMS=1.63D-05 Max=1.65D-04
 LinEq1:  Iter=  6 NonCon=     1 RMS=2.49D-06 Max=2.88D-05
 LinEq1:  Iter=  7 NonCon=     1 RMS=6.40D-07 Max=7.10D-06
 LinEq1:  Iter=  8 NonCon=     1 RMS=3.46D-07 Max=7.55D-06
 LinEq1:  Iter=  9 NonCon=     1 RMS=7.92D-08 Max=9.63D-07
 LinEq1:  Iter= 10 NonCon=     1 RMS=3.36D-08 Max=2.75D-07
 LinEq1:  Iter= 11 NonCon=     1 RMS=8.41D-09 Max=6.87D-08
 LinEq1:  Iter= 12 NonCon=     1 RMS=2.19D-09 Max=1.81D-08
 LinEq1:  Iter= 13 NonCon=     1 RMS=7.52D-10 Max=5.65D-09
 LinEq1:  Iter= 14 NonCon=     1 RMS=1.85D-10 Max=1.14D-09
 LinEq1:  Iter= 15 NonCon=     0 RMS=2.82D-11 Max=1.72D-10
 Linear equations converged to 1.000D-10 1.000D-09 after    15 iterations.
 End of Minotr Frequency-dependent properties file   721 does not exist.
 End of Minotr Frequency-dependent properties file   722 does not exist.

 **********************************************************************

            Population analysis using the SCF density.

 **********************************************************************

 Orbital symmetries:
       Occupied  (A') (A') (A') (A') (A') (A') (A') (A') (A') (A')
                 (A') (A') (A") (A') (A') (A') (A") (A")
       Virtual   (A') (A') (A') (A') (A") (A') (A") (A") (A') (A')
                 (A') (A") (A') (A") (A') (A') (A") (A') (A") (A')
                 (A') (A') (A') (A') (A') (A') (A') (A') (A') (A')
                 (A') (A") (A') (A") (A') (A") (A') (A') (A') (A')
                 (A') (A") (A') (A') (A') (A") (A') (A') (A') (A')
                 (A') (A') (A") (A") (A') (A") (A") (A') (A") (A')
                 (A') (A') (A') (A') (A") (A') (A") (A') (A') (A")
                 (A") (A') (A") (A') (A") (A') (A') (A') (A") (A')
                 (A") (A') (A") (A') (A') (A') (A') (A') (A') (A')
                 (A') (A') (A') (A') (A') (A') (A')
 The electronic state is 1-A'.
 Alpha  occ. eigenvalues --  -15.64722 -15.59255 -11.27952 -11.25249 -11.22395
 Alpha  occ. eigenvalues --   -1.39514  -1.11107  -1.06029  -0.83046  -0.81142
 Alpha  occ. eigenvalues --   -0.75057  -0.61928  -0.61643  -0.59793  -0.56719
 Alpha  occ. eigenvalues --   -0.45843  -0.36822  -0.35019
 Alpha virt. eigenvalues --    0.06343   0.08356   0.09239   0.11346   0.11499
 Alpha virt. eigenvalues --    0.12274   0.12885   0.15186   0.16365   0.17735
 Alpha virt. eigenvalues --    0.19427   0.19709   0.21922   0.23565   0.24219
 Alpha virt. eigenvalues --    0.26447   0.28241   0.29841   0.31151   0.31863
 Alpha virt. eigenvalues --    0.35100   0.35680   0.38652   0.42153   0.43551
 Alpha virt. eigenvalues --    0.44707   0.45714   0.50143   0.59371   0.68470
 Alpha virt. eigenvalues --    0.71250   0.89906   0.90372   0.93161   0.95598
 Alpha virt. eigenvalues --    0.97368   1.00257   1.07367   1.09954   1.11877
 Alpha virt. eigenvalues --    1.13584   1.17096   1.17466   1.21053   1.23081
 Alpha virt. eigenvalues --    1.24285   1.26499   1.27886   1.34258   1.41107
 Alpha virt. eigenvalues --    1.46607   1.49613   1.50628   1.60356   1.60753
 Alpha virt. eigenvalues --    1.62468   1.73115   1.77281   1.77357   1.80343
 Alpha virt. eigenvalues --    2.07713   2.15917   2.19219   2.31699   2.31905
 Alpha virt. eigenvalues --    2.32475   2.42131   2.45648   2.52960   2.53145
 Alpha virt. eigenvalues --    2.61584   2.64438   2.69966   2.76107   2.78696
 Alpha virt. eigenvalues --    2.79617   2.81782   2.89395   2.95797   2.95835
 Alpha virt. eigenvalues --    3.03465   3.03620   3.13407   3.15018   3.27657
 Alpha virt. eigenvalues --    3.30561   3.52250   3.60303   3.65855   3.77685
 Alpha virt. eigenvalues --    3.99906   4.22724   4.47470   4.70609   4.78502
 Alpha virt. eigenvalues --    4.89574   5.21131
          Condensed to atoms (all electrons):
              1          2          3          4          5          6
     1  H    0.457594   0.358784   0.000555   0.021668  -0.000061   0.011947
     2  C    0.358784   4.924217   0.019479   0.575179   0.008500  -0.052541
     3  H    0.000555   0.019479   0.459416   0.298863   0.000595   0.033136
     4  C    0.021668   0.575179   0.298863   5.300480  -0.023904   0.263272
     5  H   -0.000061   0.008500   0.000595  -0.023904   0.486669   0.408507
     6  C    0.011947  -0.052541   0.033136   0.263272   0.408507   5.037885
     7  N   -0.004209  -0.123675  -0.000839  -0.001008  -0.055240   0.494982
     8  H    0.000583  -0.005131  -0.000054  -0.003162   0.000014   0.000806
     9  N   -0.033404   0.392381   0.006424  -0.271500   0.008380  -0.080721
              7          8          9
     1  H   -0.004209   0.000583  -0.033404
     2  C   -0.123675  -0.005131   0.392381
     3  H   -0.000839  -0.000054   0.006424
     4  C   -0.001008  -0.003162  -0.271500
     5  H   -0.055240   0.000014   0.008380
     6  C    0.494982   0.000806  -0.080721
     7  N    6.577510  -0.007356   0.341354
     8  H   -0.007356   0.333638   0.330104
     9  N    0.341354   0.330104   6.597178
 Mulliken atomic charges:
              1
     1  H    0.186544
     2  C   -0.097193
     3  H    0.182425
     4  C   -0.159886
     5  H    0.166540
     6  C   -0.117273
     7  N   -0.221521
     8  H    0.350559
     9  N   -0.290196
 Sum of Mulliken atomic charges =   0.00000
 Mulliken charges with hydrogens summed into heavy atoms:
              1
     2  C    0.089351
     4  C    0.022539
     6  C    0.049267
     7  N   -0.221521
     9  N    0.060363
 Sum of Mulliken charges with hydrogens summed into heavy atoms =   0.00000
 Electronic spatial extent (au):  <R**2>=            282.3987
 Charge=              0.0000 electrons
 Dipole moment (field-independent basis, Debye):
    X=              2.3677    Y=              0.7817    Z=              0.0000  Tot=              2.4934
 Quadrupole moment (field-independent basis, Debye-Ang):
   XX=            -30.1462   YY=            -22.3153   ZZ=            -32.8647
   XY=              2.9738   XZ=              0.0000   YZ=              0.0000
 Traceless Quadrupole moment (field-independent basis, Debye-Ang):
   XX=             -1.7041   YY=              6.1267   ZZ=             -4.4226
   XY=              2.9738   XZ=              0.0000   YZ=              0.0000
 Octapole moment (field-independent basis, Debye-Ang**2):
  XXX=             10.7435  YYY=             12.1047  ZZZ=              0.0000  XYY=              0.3417
  XXY=             -2.4472  XXZ=              0.0000  XZZ=             -1.0320  YZZ=              2.3858
  YYZ=              0.0000  XYZ=              0.0000
 Hexadecapole moment (field-independent basis, Debye-Ang**3):
 XXXX=           -175.9553 YYYY=           -130.5042 ZZZZ=            -38.2483 XXXY=             12.1527
 XXXZ=              0.0000 YYYX=             -0.7316 YYYZ=              0.0000 ZZZX=              0.0000
 ZZZY=              0.0000 XXYY=            -51.3479 XXZZ=            -40.2459 YYZZ=            -38.3882
 XXYZ=              0.0000 YYXZ=              0.0000 ZZXY=              0.5325
 N-N= 1.649559150659D+02 E-N=-8.549630115274D+02  KE= 2.244930554514D+02
 Symmetry A'   KE= 2.167439803536D+02
 Symmetry A"   KE= 7.749075097774D+00
 Calling FoFJK, ICntrl=      2127 FMM=F ISym2X=1 I1Cent= 0 IOpClX= 0 NMat=1 NMatS=1 NMatT=0.
 ***** Axes restored to original set *****
 -------------------------------------------------------------------
 Center     Atomic                   Forces (Hartrees/Bohr)
 Number     Number              X              Y              Z
 -------------------------------------------------------------------
      1        1           0.003044535    0.001315486    0.000000000
      2        6           0.019735038    0.004106782    0.000000000
      3        1           0.001635119   -0.002315283    0.000000000
      4        6          -0.002748207   -0.012680972    0.000000000
      5        1          -0.002145072   -0.002193161    0.000000000
      6        6           0.006271182   -0.029416455    0.000000000
      7        7          -0.025435862    0.022092670    0.000000000
      8        1          -0.000329035    0.008814171    0.000000000
      9        7          -0.000027698    0.010276762    0.000000000
 -------------------------------------------------------------------
 Cartesian Forces:  Max     0.029416455 RMS     0.010231175

 GradGradGradGradGradGradGradGradGradGradGradGradGradGradGradGradGradGrad
 Berny optimization.
 Internal  Forces:  Max     0.031858497 RMS     0.007531131
 Search for a local minimum.
 Step number   1 out of a maximum of   48
 All quantities printed in internal units (Hartrees-Bohrs-Radians)
 Mixed Optimization -- RFO/linear search
 Second derivative matrix not updated -- first step.
 ITU=  0
     Eigenvalues ---    0.02140   0.02277   0.02344   0.02397   0.02534
     Eigenvalues ---    0.02554   0.16000   0.16000   0.16000   0.16000
     Eigenvalues ---    0.22000   0.22929   0.37105   0.37238   0.37308
     Eigenvalues ---    0.40394   0.48796   0.49002   0.53148   0.57511
     Eigenvalues ---    0.63923
 RFO step:  Lambda=-3.62533439D-03 EMin= 2.14009960D-02
 Linear search not attempted -- first point.
 Iteration  1 RMS(Cart)=  0.01573930 RMS(Int)=  0.00002423
 Iteration  2 RMS(Cart)=  0.00002126 RMS(Int)=  0.00001096
 Iteration  3 RMS(Cart)=  0.00000000 RMS(Int)=  0.00001096
 ClnCor:  largest displacement from symmetrization is 2.52D-10 for atom     1.
 Variable       Old X    -DE/DX   Delta X   Delta X   Delta X     New X
                                 (Linear)    (Quad)   (Total)
    R1        2.02190   0.00332   0.00000   0.00882   0.00882   2.03072
    R2        2.57552   0.01803   0.00000   0.03230   0.03228   2.60781
    R3        2.53480   0.01888   0.00000   0.03296   0.03297   2.56777
    R4        2.02084   0.00283   0.00000   0.00752   0.00752   2.02836
    R5        2.67030   0.00623   0.00000   0.01302   0.01300   2.68330
    R6        2.02389   0.00307   0.00000   0.00819   0.00819   2.03207
    R7        2.46123   0.03186   0.00000   0.04860   0.04860   2.50982
    R8        2.51306   0.01691   0.00000   0.02982   0.02984   2.54290
    R9        1.87586   0.00882   0.00000   0.01787   0.01787   1.89372
    A1        2.29797  -0.00012   0.00000   0.00202   0.00202   2.29999
    A2        2.12422  -0.00015   0.00000   0.00183   0.00184   2.12606
    A3        1.86100   0.00027   0.00000  -0.00385  -0.00385   1.85714
    A4        2.23035  -0.00177   0.00000  -0.00441  -0.00440   2.22595
    A5        1.81292   0.00338   0.00000   0.00787   0.00784   1.82076
    A6        2.23992  -0.00161   0.00000  -0.00345  -0.00344   2.23648
    A7        2.23827   0.00019   0.00000   0.00101   0.00102   2.23928
    A8        1.95036  -0.00022   0.00000  -0.00106  -0.00107   1.94928
    A9        2.09456   0.00003   0.00000   0.00005   0.00006   2.09462
   A10        1.83126  -0.00322   0.00000  -0.00485  -0.00483   1.82644
   A11        1.96924  -0.00021   0.00000   0.00190   0.00192   1.97116
   A12        2.23320   0.00001   0.00000  -0.00151  -0.00152   2.23168
   A13        2.08074   0.00020   0.00000  -0.00038  -0.00040   2.08034
    D1        0.00000   0.00000   0.00000   0.00000   0.00000   0.00000
    D2        3.14159   0.00000   0.00000   0.00000   0.00000   3.14159
    D3        3.14159   0.00000   0.00000   0.00000   0.00000   3.14159
    D4        0.00000   0.00000   0.00000   0.00000   0.00000   0.00000
    D5        3.14159   0.00000   0.00000   0.00000   0.00000   3.14159
    D6        0.00000   0.00000   0.00000   0.00000   0.00000   0.00000
    D7        0.00000   0.00000   0.00000   0.00000   0.00000   0.00000
    D8        3.14159   0.00000   0.00000   0.00000   0.00000   3.14159
    D9        3.14159   0.00000   0.00000   0.00000   0.00000   3.14159
   D10        0.00000   0.00000   0.00000   0.00000   0.00000   0.00000
   D11        0.00000   0.00000   0.00000   0.00000   0.00000   0.00000
   D12        3.14159   0.00000   0.00000   0.00000   0.00000   3.14159
   D13        0.00000   0.00000   0.00000   0.00000   0.00000   0.00000
   D14        3.14159   0.00000   0.00000   0.00000   0.00000   3.14159
   D15        0.00000   0.00000   0.00000   0.00000   0.00000   0.00000
   D16        3.14159   0.00000   0.00000   0.00000   0.00000   3.14159
         Item               Value     Threshold  Converged?
 Maximum Force            0.031858     0.000450     NO 
 RMS     Force            0.007531     0.000300     NO 
 Maximum Displacement     0.046193     0.001800     NO 
 RMS     Displacement     0.015731     0.001200     NO 
 Predicted change in Energy=-1.823734D-03
 GradGradGradGradGradGradGradGradGradGradGradGradGradGradGradGradGradGrad

                          Input orientation:                          
 ---------------------------------------------------------------------
 Center     Atomic      Atomic             Coordinates (Angstroms)
 Number     Number       Type             X           Y           Z
 ---------------------------------------------------------------------
      1          1           0        2.097639    0.726355    0.000000
      2          6           0        1.108333    0.306762    0.000000
      3          1           0        1.258717   -1.892974    0.000000
      4          6           0        0.663694   -0.999636    0.000000
      5          1           0       -1.482211   -1.678160    0.000000
      6          6           0       -0.751919   -0.888856    0.000000
      7          7           0       -1.144906    0.379813    0.000000
      8          1           0       -0.048536    2.091104    0.000000
      9          7           0       -0.001971    1.090071    0.000000
 ---------------------------------------------------------------------
                    Distance matrix (angstroms):
                    1          2          3          4          5
     1  H    0.000000
     2  C    1.074609   0.000000
     3  H    2.750395   2.204870   0.000000
     4  C    2.243935   1.379992   1.073362   0.000000
     5  H    4.312426   3.263562   2.749333   2.250623   0.000000
     6  C    3.275498   2.211344   2.247423   1.419941   1.075327
     7  N    3.261011   2.254423   3.308015   2.274624   2.085433
     8  H    2.543346   2.126552   4.193064   3.171742   4.032713
     9  N    2.130881   1.358804   3.238501   2.193168   3.139142
                    6          7          8          9
     6  C    0.000000
     7  N    1.328142   0.000000
     8  H    3.061847   2.032373   0.000000
     9  N    2.116264   1.345647   1.002116   0.000000
 Stoichiometry    C3H4N2
 Framework group  CS[SG(C3H4N2)]
 Deg. of freedom    15
 Full point group                 CS      NOp   2
 Largest Abelian subgroup         CS      NOp   2
 Largest concise Abelian subgroup C1      NOp   1
                         Standard orientation:                         
 ---------------------------------------------------------------------
 Center     Atomic      Atomic             Coordinates (Angstroms)
 Number     Number       Type             X           Y           Z
 ---------------------------------------------------------------------
      1          1           0        2.099712    0.725686    0.000000
      2          6           0        1.110523    0.305818    0.000000
      3          1           0        1.261519   -1.893876    0.000000
      4          6           0        0.666247   -1.000704    0.000000
      5          1           0       -1.479469   -1.679826    0.000000
      6          6           0       -0.749397   -0.890318    0.000000
      7          7           0       -1.142737    0.378241    0.000000
      8          1           0       -0.046844    2.089837    0.000000
      9          7           0        0.000000    1.088817    0.000000
 ---------------------------------------------------------------------
 Rotational constants (GHZ):      9.6360019      9.4377925      4.7679337
 Standard basis: 6-31+G(d,p) (6D, 7F)
 There are    86 symmetry adapted basis functions of A'  symmetry.
 There are    29 symmetry adapted basis functions of A"  symmetry.
 Integral buffers will be    131072 words long.
 Raffenetti 1 integral format.
 Two-electron integral symmetry is turned on.
   115 basis functions,   188 primitive gaussians,   115 cartesian basis functions
    18 alpha electrons       18 beta electrons
       nuclear repulsion energy       163.0651650138 Hartrees.
 NAtoms=    9 NActive=    9 NUniq=    9 SFac= 1.00D+00 NAtFMM=   50 NAOKFM=F Big=F
 One-electron integrals computed using PRISM.
 NBasis=   115 RedAO= T  NBF=    86    29
 NBsUse=   115 1.00D-06 NBFU=    86    29
 Initial guess read from the read-write file.
 B after Tr=     0.000000    0.000000    0.000000
         Rot=    1.000000    0.000000    0.000000    0.000000 Ang=   0.00 deg.
 Initial guess orbital symmetries:
       Occupied  (A') (A') (A') (A') (A') (A') (A') (A') (A') (A')
                 (A') (A') (A") (A') (A') (A') (A") (A")
       Virtual   (A') (A') (A') (A') (A") (A') (A") (A") (A') (A')
                 (A') (A") (A') (A") (A') (A') (A") (A') (A") (A')
                 (A') (A') (A') (A') (A') (A') (A') (A') (A') (A')
                 (A') (A") (A') (A") (A') (A") (A') (A') (A') (A')
                 (A') (A") (A') (A') (A') (A") (A') (A') (A') (A')
                 (A') (A') (A") (A") (A') (A") (A") (A') (A") (A')
                 (A') (A') (A') (A') (A") (A') (A") (A') (A') (A")
                 (A") (A') (A") (A') (A") (A') (A') (A') (A") (A')
                 (A") (A') (A") (A') (A') (A') (A') (A') (A') (A')
                 (A') (A') (A') (A') (A') (A') (A')
 Harris functional with IExCor=  205 diagonalized for initial guess.
 ExpMin= 4.38D-02 ExpMax= 4.17D+03 ExpMxC= 6.27D+02 IAcc=2 IRadAn=         0 AccDes= 0.00D+00
 HarFok:  IExCor=  205 AccDes= 0.00D+00 IRadAn=         0 IDoV= 1
 ScaDFX=  1.000000  1.000000  1.000000  1.000000
 FoFCou: FMM=F IPFlag=           0 FMFlag=      100000 FMFlg1=           0
         NFxFlg=           0 DoJE=T BraDBF=F KetDBF=T FulRan=T
         Omega=  0.000000  0.000000  1.000000  0.000000  0.000000 ICntrl=     500 IOpCl=  0
         NMat0=    1 NMatS0=    1 NMatT0=    0 NMatD0=    1 NMtDS0=    0 NMtDT0=    0
         I1Cent=           4 NGrid=           0.
 Petite list used in FoFCou.
 Requested convergence on RMS density matrix=1.00D-08 within 128 cycles.
 Requested convergence on MAX density matrix=1.00D-06.
 Requested convergence on             energy=1.00D-06.
 No special actions if energy rises.
 Keep R1 ints in memory in canonical form, NReq=23127437.
 SCF Done:  E(RHF) =  -224.809713535     A.U. after   13 cycles
             Convg  =    0.2886D-08             -V/T =  2.0027
 Range of M.O.s used for correlation:     1   115
 NBasis=   115 NAE=    18 NBE=    18 NFC=     0 NFV=     0
 NROrb=    115 NOA=    18 NOB=    18 NVA=    97 NVB=    97

 **** Warning!!: The largest alpha MO coefficient is  0.39868970D+02

 Semi-Direct transformation.
 ModeAB=           2 MOrb=            18 LenV=     423570171
 LASXX=      6539076 LTotXX=     6539076 LenRXX=     6539076
 LTotAB=     6744303 MaxLAS=    13806900 LenRXY=    13806900
 NonZer=    14104980 LenScr=    21934080 LnRSAI=           0
 LnScr1=           0 LExtra=           0 Total=     42280056
 MaxDsk=          -1 SrtSym=           F ITran=            4
 JobTyp=0 Pass  1:  I=   1 to  18.
 (rs|ai) integrals will be sorted in core.
 Spin components of T(2) and E(2):
     alpha-alpha T2 =       0.3538327692D-01 E2=     -0.1013881178D+00
     alpha-beta  T2 =       0.1862102931D+00 E2=     -0.5625043372D+00
     beta-beta   T2 =       0.3538327692D-01 E2=     -0.1013881178D+00
 ANorm=    0.1121149788D+01
 E2 =    -0.7652805727D+00 EUMP2 =    -0.22557499410814D+03
 R2 and R3 integrals will be kept in memory, NReq=    45315570.
 DD1Dir will call FoFMem   1 times, MxPair=       342
 NAB=   171 NAA=     0 NBB=     0.
 E3=       -0.12324329D-01        EUMP3=      -0.22558731844D+03
 Largest amplitude= 3.63D-02
 Discarding MO integrals.
          IDoAtm=111111111
          Differentiating once with respect to electric field.
                with respect to dipole field.
          Differentiating once with respect to nuclear coordinates.
          Keep R1 ints in memory in canonical form, NReq=23068991.
          There are     1 degrees of freedom in the 1st order CPHF.  IDoFFX=0.
 LinEq1:  Iter=  0 NonCon=     1 RMS=3.53D-03 Max=4.92D-02
 AX will form     1 AO Fock derivatives at one time.
 LinEq1:  Iter=  1 NonCon=     1 RMS=1.11D-03 Max=1.25D-02
 LinEq1:  Iter=  2 NonCon=     1 RMS=4.83D-04 Max=9.70D-03
 LinEq1:  Iter=  3 NonCon=     1 RMS=2.09D-04 Max=2.90D-03
 LinEq1:  Iter=  4 NonCon=     1 RMS=7.78D-05 Max=1.06D-03
 LinEq1:  Iter=  5 NonCon=     1 RMS=1.79D-05 Max=1.86D-04
 LinEq1:  Iter=  6 NonCon=     1 RMS=2.91D-06 Max=3.96D-05
 LinEq1:  Iter=  7 NonCon=     1 RMS=9.84D-07 Max=1.30D-05
 LinEq1:  Iter=  8 NonCon=     1 RMS=5.38D-07 Max=9.45D-06
 LinEq1:  Iter=  9 NonCon=     1 RMS=9.76D-08 Max=8.60D-07
 LinEq1:  Iter= 10 NonCon=     1 RMS=2.96D-08 Max=2.25D-07
 LinEq1:  Iter= 11 NonCon=     1 RMS=9.30D-09 Max=8.67D-08
 LinEq1:  Iter= 12 NonCon=     1 RMS=2.08D-09 Max=1.59D-08
 LinEq1:  Iter= 13 NonCon=     1 RMS=6.10D-10 Max=5.89D-09
 LinEq1:  Iter= 14 NonCon=     1 RMS=2.01D-10 Max=1.70D-09
 LinEq1:  Iter= 15 NonCon=     0 RMS=3.49D-11 Max=2.53D-10
 Linear equations converged to 1.000D-10 1.000D-09 after    15 iterations.
 End of Minotr Frequency-dependent properties file   721 does not exist.
 End of Minotr Frequency-dependent properties file   722 does not exist.
 Calling FoFJK, ICntrl=      2127 FMM=F ISym2X=1 I1Cent= 0 IOpClX= 0 NMat=1 NMatS=1 NMatT=0.
 ***** Axes restored to original set *****
 -------------------------------------------------------------------
 Center     Atomic                   Forces (Hartrees/Bohr)
 Number     Number              X              Y              Z
 -------------------------------------------------------------------
      1        1          -0.000512278    0.000031497    0.000000000
      2        6           0.000954910   -0.000900208    0.000000000
      3        1           0.000094507    0.000208665    0.000000000
      4        6          -0.003928258    0.002359716    0.000000000
      5        1          -0.000163161    0.000931142    0.000000000
      6        6           0.006270610   -0.002783020    0.000000000
      7        7          -0.004083304    0.003155413    0.000000000
      8        1          -0.000277786   -0.000584141    0.000000000
      9        7           0.001644760   -0.002419064    0.000000000
 -------------------------------------------------------------------
 Cartesian Forces:  Max     0.006270610 RMS     0.001987018

 GradGradGradGradGradGradGradGradGradGradGradGradGradGradGradGradGradGrad
 Berny optimization.
 Using GEDIIS/GDIIS optimizer.
 Internal  Forces:  Max     0.003428074 RMS     0.001017968
 Search for a local minimum.
 Step number   2 out of a maximum of   48
 All quantities printed in internal units (Hartrees-Bohrs-Radians)
 Mixed Optimization -- RFO/linear search
 Update second derivatives using D2CorX and points    1    2
 DE= -1.78D-03 DEPred=-1.82D-03 R= 9.73D-01
 SS=  1.41D+00  RLast= 7.88D-02 DXNew= 5.0454D-01 2.3655D-01
 Trust test= 9.73D-01 RLast= 7.88D-02 DXMaxT set to 3.00D-01
 ITU=  1  0
 Use linear search instead of GDIIS.
     Eigenvalues ---    0.02140   0.02277   0.02344   0.02397   0.02534
     Eigenvalues ---    0.02554   0.15976   0.16000   0.16000   0.16002
     Eigenvalues ---    0.21724   0.22748   0.37141   0.37278   0.37349
     Eigenvalues ---    0.40299   0.48720   0.49842   0.54417   0.58788
     Eigenvalues ---    0.62207
 RFO step:  Lambda=-1.19056063D-04 EMin= 2.13982407D-02
 Quartic linear search produced a step of -0.00097.
 Iteration  1 RMS(Cart)=  0.00283175 RMS(Int)=  0.00000856
 Iteration  2 RMS(Cart)=  0.00001024 RMS(Int)=  0.00000297
 Iteration  3 RMS(Cart)=  0.00000000 RMS(Int)=  0.00000297
 ClnCor:  largest displacement from symmetrization is 5.41D-11 for atom     1.
 Variable       Old X    -DE/DX   Delta X   Delta X   Delta X     New X
                                 (Linear)    (Quad)   (Total)
    R1        2.03072  -0.00046  -0.00001  -0.00093  -0.00094   2.02977
    R2        2.60781  -0.00195  -0.00003  -0.00305  -0.00309   2.60472
    R3        2.56777  -0.00076  -0.00003  -0.00024  -0.00027   2.56750
    R4        2.02836  -0.00012  -0.00001  -0.00007  -0.00008   2.02828
    R5        2.68330  -0.00343  -0.00001  -0.00766  -0.00768   2.67562
    R6        2.03207  -0.00057  -0.00001  -0.00126  -0.00127   2.03080
    R7        2.50982   0.00222  -0.00005   0.00520   0.00516   2.51498
    R8        2.54290   0.00030  -0.00003   0.00185   0.00182   2.54473
    R9        1.89372  -0.00057  -0.00002  -0.00056  -0.00058   1.89315
    A1        2.29999   0.00059   0.00000   0.00384   0.00384   2.30383
    A2        2.12606   0.00012   0.00000   0.00093   0.00094   2.12700
    A3        1.85714  -0.00071   0.00000  -0.00478  -0.00478   1.85236
    A4        2.22595  -0.00066   0.00000  -0.00259  -0.00259   2.22336
    A5        1.82076   0.00093  -0.00001   0.00270   0.00268   1.82344
    A6        2.23648  -0.00027   0.00000  -0.00010  -0.00009   2.23639
    A7        2.23928   0.00019   0.00000   0.00230   0.00230   2.24158
    A8        1.94928   0.00114   0.00000   0.00497   0.00497   1.95425
    A9        2.09462  -0.00133   0.00000  -0.00727  -0.00727   2.08735
   A10        1.82644  -0.00289   0.00000  -0.01021  -0.01019   1.81624
   A11        1.97116   0.00152   0.00000   0.00732   0.00732   1.97848
   A12        2.23168  -0.00047   0.00000  -0.00188  -0.00188   2.22980
   A13        2.08034  -0.00105   0.00000  -0.00544  -0.00544   2.07490
    D1        0.00000   0.00000   0.00000   0.00000   0.00000   0.00000
    D2        3.14159   0.00000   0.00000   0.00000   0.00000   3.14159
    D3        3.14159   0.00000   0.00000   0.00000   0.00000   3.14159
    D4        0.00000   0.00000   0.00000   0.00000   0.00000   0.00000
    D5        3.14159   0.00000   0.00000   0.00000   0.00000   3.14159
    D6        0.00000   0.00000   0.00000   0.00000   0.00000   0.00000
    D7        0.00000   0.00000   0.00000   0.00000   0.00000   0.00000
    D8        3.14159   0.00000   0.00000   0.00000   0.00000   3.14159
    D9        3.14159   0.00000   0.00000   0.00000   0.00000   3.14159
   D10        0.00000   0.00000   0.00000   0.00000   0.00000   0.00000
   D11        0.00000   0.00000   0.00000   0.00000   0.00000   0.00000
   D12        3.14159   0.00000   0.00000   0.00000   0.00000   3.14159
   D13        0.00000   0.00000   0.00000   0.00000   0.00000   0.00000
   D14        3.14159   0.00000   0.00000   0.00000   0.00000   3.14159
   D15        0.00000   0.00000   0.00000   0.00000   0.00000   0.00000
   D16        3.14159   0.00000   0.00000   0.00000   0.00000   3.14159
         Item               Value     Threshold  Converged?
 Maximum Force            0.003428     0.000450     NO 
 RMS     Force            0.001018     0.000300     NO 
 Maximum Displacement     0.008356     0.001800     NO 
 RMS     Displacement     0.002837     0.001200     NO 
 Predicted change in Energy=-5.954697D-05
 GradGradGradGradGradGradGradGradGradGradGradGradGradGradGradGradGradGrad

                          Input orientation:                          
 ---------------------------------------------------------------------
 Center     Atomic      Atomic             Coordinates (Angstroms)
 Number     Number       Type             X           Y           Z
 ---------------------------------------------------------------------
      1          1           0        2.098239    0.726450    0.000000
      2          6           0        1.109969    0.305694    0.000000
      3          1           0        1.257738   -1.891291    0.000000
      4          6           0        0.662635   -0.998056    0.000000
      5          1           0       -1.480430   -1.675175    0.000000
      6          6           0       -0.748950   -0.887890    0.000000
      7          7           0       -1.149328    0.381329    0.000000
      8          1           0       -0.049007    2.087064    0.000000
      9          7           0       -0.002025    1.086355    0.000000
 ---------------------------------------------------------------------
                    Distance matrix (angstroms):
                    1          2          3          4          5
     1  H    0.000000
     2  C    1.074110   0.000000
     3  H    2.749366   2.201949   0.000000
     4  C    2.243854   1.378359   1.073320   0.000000
     5  H    4.309835   3.260983   2.746684   2.247492   0.000000
     6  C    3.273008   2.209123   2.243572   1.415878   1.074654
     7  N    3.265854   2.260563   3.310403   2.277260   2.082988
     8  H    2.542033   2.125207   4.187468   3.166133   4.025346
     9  N    2.130878   1.358662   3.233169   2.187817   3.132368
                    6          7          8          9
     6  C    0.000000
     7  N    1.330871   0.000000
     8  H    3.056185   2.029836   0.000000
     9  N    2.110815   1.346612   1.001811   0.000000
 Stoichiometry    C3H4N2
 Framework group  CS[SG(C3H4N2)]
 Deg. of freedom    15
 Full point group                 CS      NOp   2
 Largest Abelian subgroup         CS      NOp   2
 Largest concise Abelian subgroup C1      NOp   1
                         Standard orientation:                         
 ---------------------------------------------------------------------
 Center     Atomic      Atomic             Coordinates (Angstroms)
 Number     Number       Type             X           Y           Z
 ---------------------------------------------------------------------
      1          1           0        2.100431    0.726331    0.000000
      2          6           0        1.112356    0.305117    0.000000
      3          1           0        1.261143   -1.891800    0.000000
      4          6           0        0.665626   -0.998840    0.000000
      5          1           0       -1.477126   -1.676952    0.000000
      6          6           0       -0.746011   -0.889328    0.000000
      7          7           0       -1.146976    0.379706    0.000000
      8          1           0       -0.047445    2.085949    0.000000
      9          7           0        0.000000    1.085263    0.000000
 ---------------------------------------------------------------------
 Rotational constants (GHZ):      9.6735981      9.4173384      4.7718742
 Standard basis: 6-31+G(d,p) (6D, 7F)
 There are    86 symmetry adapted basis functions of A'  symmetry.
 There are    29 symmetry adapted basis functions of A"  symmetry.
 Integral buffers will be    131072 words long.
 Raffenetti 1 integral format.
 Two-electron integral symmetry is turned on.
   115 basis functions,   188 primitive gaussians,   115 cartesian basis functions
    18 alpha electrons       18 beta electrons
       nuclear repulsion energy       163.1201831707 Hartrees.
 NAtoms=    9 NActive=    9 NUniq=    9 SFac= 1.00D+00 NAtFMM=   50 NAOKFM=F Big=F
 One-electron integrals computed using PRISM.
 NBasis=   115 RedAO= T  NBF=    86    29
 NBsUse=   115 1.00D-06 NBFU=    86    29
 Initial guess read from the read-write file.
 B after Tr=     0.000000    0.000000    0.000000
         Rot=    1.000000    0.000000    0.000000    0.000000 Ang=   0.00 deg.
 Initial guess orbital symmetries:
       Occupied  (A') (A') (A') (A') (A') (A') (A') (A') (A') (A')
                 (A') (A') (A") (A') (A') (A') (A") (A")
       Virtual   (A') (A') (A') (A') (A") (A') (A") (A") (A') (A')
                 (A") (A') (A') (A") (A') (A') (A") (A') (A") (A')
                 (A') (A') (A') (A') (A') (A') (A') (A') (A') (A')
                 (A') (A') (A") (A") (A') (A") (A') (A') (A') (A')
                 (A') (A") (A') (A') (A') (A") (A') (A') (A') (A')
                 (A') (A') (A") (A') (A") (A") (A") (A") (A') (A')
                 (A') (A') (A') (A') (A') (A") (A") (A') (A') (A")
                 (A") (A') (A") (A') (A") (A') (A') (A') (A") (A')
                 (A") (A') (A") (A') (A') (A') (A') (A') (A') (A')
                 (A') (A') (A') (A') (A') (A') (A')
 Requested convergence on RMS density matrix=1.00D-08 within 128 cycles.
 Requested convergence on MAX density matrix=1.00D-06.
 Requested convergence on             energy=1.00D-06.
 No special actions if energy rises.
 Keep R1 ints in memory in canonical form, NReq=23127437.
 SCF Done:  E(RHF) =  -224.809599512     A.U. after   12 cycles
             Convg  =    0.3030D-08             -V/T =  2.0026
 Range of M.O.s used for correlation:     1   115
 NBasis=   115 NAE=    18 NBE=    18 NFC=     0 NFV=     0
 NROrb=    115 NOA=    18 NOB=    18 NVA=    97 NVB=    97

 **** Warning!!: The largest alpha MO coefficient is  0.40586599D+02

 Semi-Direct transformation.
 ModeAB=           2 MOrb=            18 LenV=     423570141
 LASXX=      6539076 LTotXX=     6539076 LenRXX=     6539076
 LTotAB=     6744303 MaxLAS=    13806900 LenRXY=    13806900
 NonZer=    14104980 LenScr=    21934080 LnRSAI=           0
 LnScr1=           0 LExtra=           0 Total=     42280056
 MaxDsk=          -1 SrtSym=           F ITran=            4
 JobTyp=0 Pass  1:  I=   1 to  18.
 (rs|ai) integrals will be sorted in core.
 Spin components of T(2) and E(2):
     alpha-alpha T2 =       0.3541211676D-01 E2=     -0.1014510901D+00
     alpha-beta  T2 =       0.1862786621D+00 E2=     -0.5626673491D+00
     beta-beta   T2 =       0.3541211676D-01 E2=     -0.1014510901D+00
 ANorm=    0.1121206001D+01
 E2 =    -0.7655695292D+00 EUMP2 =    -0.22557516904127D+03
 R2 and R3 integrals will be kept in memory, NReq=    45315570.
 DD1Dir will call FoFMem   1 times, MxPair=       342
 NAB=   171 NAA=     0 NBB=     0.
 E3=       -0.12201887D-01        EUMP3=      -0.22558737093D+03
 Largest amplitude= 3.66D-02
 Discarding MO integrals.
          IDoAtm=111111111
          Differentiating once with respect to electric field.
                with respect to dipole field.
          Differentiating once with respect to nuclear coordinates.
          Keep R1 ints in memory in canonical form, NReq=23068991.
          There are     1 degrees of freedom in the 1st order CPHF.  IDoFFX=0.
 LinEq1:  Iter=  0 NonCon=     1 RMS=3.53D-03 Max=4.87D-02
 AX will form     1 AO Fock derivatives at one time.
 LinEq1:  Iter=  1 NonCon=     1 RMS=1.11D-03 Max=1.23D-02
 LinEq1:  Iter=  2 NonCon=     1 RMS=4.85D-04 Max=9.62D-03
 LinEq1:  Iter=  3 NonCon=     1 RMS=2.10D-04 Max=2.88D-03
 LinEq1:  Iter=  4 NonCon=     1 RMS=7.81D-05 Max=1.06D-03
 LinEq1:  Iter=  5 NonCon=     1 RMS=1.80D-05 Max=1.90D-04
 LinEq1:  Iter=  6 NonCon=     1 RMS=3.07D-06 Max=4.58D-05
 LinEq1:  Iter=  7 NonCon=     1 RMS=1.22D-06 Max=1.61D-05
 LinEq1:  Iter=  8 NonCon=     1 RMS=5.60D-07 Max=9.11D-06
 LinEq1:  Iter=  9 NonCon=     1 RMS=1.06D-07 Max=8.23D-07
 LinEq1:  Iter= 10 NonCon=     1 RMS=3.90D-08 Max=3.11D-07
 LinEq1:  Iter= 11 NonCon=     1 RMS=1.03D-08 Max=8.71D-08
 LinEq1:  Iter= 12 NonCon=     1 RMS=2.46D-09 Max=1.94D-08
 LinEq1:  Iter= 13 NonCon=     1 RMS=7.91D-10 Max=6.56D-09
 LinEq1:  Iter= 14 NonCon=     1 RMS=2.19D-10 Max=1.49D-09
 LinEq1:  Iter= 15 NonCon=     0 RMS=3.50D-11 Max=2.66D-10
 Linear equations converged to 1.000D-10 1.000D-09 after    15 iterations.
 End of Minotr Frequency-dependent properties file   721 does not exist.
 End of Minotr Frequency-dependent properties file   722 does not exist.
 Calling FoFJK, ICntrl=      2127 FMM=F ISym2X=1 I1Cent= 0 IOpClX= 0 NMat=1 NMatS=1 NMatT=0.
 ***** Axes restored to original set *****
 -------------------------------------------------------------------
 Center     Atomic                   Forces (Hartrees/Bohr)
 Number     Number              X              Y              Z
 -------------------------------------------------------------------
      1        1          -0.000269701    0.000140476    0.000000000
      2        6          -0.000920215    0.000508005    0.000000000
      3        1          -0.000082331    0.000001901    0.000000000
      4        6          -0.001552294   -0.000060092    0.000000000
      5        1          -0.000126640    0.000043217    0.000000000
      6        6           0.001059097   -0.001946200    0.000000000
      7        7           0.001036788    0.000265638    0.000000000
      8        1           0.000086902   -0.000077159    0.000000000
      9        7           0.000768395    0.001124213    0.000000000
 -------------------------------------------------------------------
 Cartesian Forces:  Max     0.001946200 RMS     0.000654271

 GradGradGradGradGradGradGradGradGradGradGradGradGradGradGradGradGradGrad
 Berny optimization.
 Using GEDIIS/GDIIS optimizer.
 Internal  Forces:  Max     0.001505127 RMS     0.000487239
 Search for a local minimum.
 Step number   3 out of a maximum of   48
 All quantities printed in internal units (Hartrees-Bohrs-Radians)
 Mixed Optimization -- En-DIIS/RFO-DIIS
 Update second derivatives using D2CorX and points    1    2    3
 DE= -5.25D-05 DEPred=-5.95D-05 R= 8.82D-01
 SS=  1.41D+00  RLast= 2.07D-02 DXNew= 5.0454D-01 6.2007D-02
 Trust test= 8.82D-01 RLast= 2.07D-02 DXMaxT set to 3.00D-01
 ITU=  1  1  0
 Use linear search instead of GDIIS.
     Eigenvalues ---    0.02138   0.02275   0.02343   0.02397   0.02534
     Eigenvalues ---    0.02553   0.14914   0.16000   0.16000   0.16075
     Eigenvalues ---    0.21594   0.30875   0.34021   0.37272   0.37320
     Eigenvalues ---    0.37380   0.48781   0.49364   0.56223   0.59615
     Eigenvalues ---    0.61988
 RFO step:  Lambda=-2.10612341D-05 EMin= 2.13840127D-02
 Quartic linear search produced a step of -0.10668.
 Iteration  1 RMS(Cart)=  0.00135630 RMS(Int)=  0.00000112
 Iteration  2 RMS(Cart)=  0.00000099 RMS(Int)=  0.00000065
 ClnCor:  largest displacement from symmetrization is 1.35D-11 for atom     1.
 Variable       Old X    -DE/DX   Delta X   Delta X   Delta X     New X
                                 (Linear)    (Quad)   (Total)
    R1        2.02977  -0.00019   0.00010  -0.00071  -0.00061   2.02916
    R2        2.60472   0.00086   0.00033   0.00058   0.00091   2.60563
    R3        2.56750  -0.00101   0.00003  -0.00164  -0.00162   2.56588
    R4        2.02828  -0.00005   0.00001  -0.00012  -0.00011   2.02817
    R5        2.67562  -0.00151   0.00082  -0.00524  -0.00442   2.67120
    R6        2.03080   0.00005   0.00014  -0.00021  -0.00008   2.03073
    R7        2.51498   0.00091  -0.00055   0.00291   0.00236   2.51734
    R8        2.54473   0.00000  -0.00019   0.00064   0.00045   2.54518
    R9        1.89315  -0.00008   0.00006  -0.00027  -0.00020   1.89294
    A1        2.30383  -0.00004  -0.00041   0.00148   0.00107   2.30490
    A2        2.12700  -0.00051  -0.00010  -0.00202  -0.00213   2.12487
    A3        1.85236   0.00055   0.00051   0.00055   0.00106   1.85342
    A4        2.22336  -0.00006   0.00028  -0.00085  -0.00057   2.22279
    A5        1.82344   0.00026  -0.00029   0.00174   0.00146   1.82490
    A6        2.23639  -0.00020   0.00001  -0.00090  -0.00089   2.23550
    A7        2.24158   0.00053  -0.00025   0.00285   0.00260   2.24418
    A8        1.95425  -0.00081  -0.00053  -0.00156  -0.00209   1.95217
    A9        2.08735   0.00028   0.00078  -0.00129  -0.00051   2.08684
   A10        1.81624   0.00098   0.00109   0.00112   0.00221   1.81845
   A11        1.97848  -0.00098  -0.00078  -0.00186  -0.00264   1.97584
   A12        2.22980   0.00041   0.00020   0.00100   0.00120   2.23100
   A13        2.07490   0.00057   0.00058   0.00086   0.00144   2.07634
    D1        0.00000   0.00000   0.00000   0.00000   0.00000   0.00000
    D2        3.14159   0.00000   0.00000   0.00000   0.00000   3.14159
    D3        3.14159   0.00000   0.00000   0.00000   0.00000   3.14159
    D4        0.00000   0.00000   0.00000   0.00000   0.00000   0.00000
    D5        3.14159   0.00000   0.00000   0.00000   0.00000   3.14159
    D6        0.00000   0.00000   0.00000   0.00000   0.00000   0.00000
    D7        0.00000   0.00000   0.00000   0.00000   0.00000   0.00000
    D8        3.14159   0.00000   0.00000   0.00000   0.00000   3.14159
    D9        3.14159   0.00000   0.00000   0.00000   0.00000   3.14159
   D10        0.00000   0.00000   0.00000   0.00000   0.00000   0.00000
   D11        0.00000   0.00000   0.00000   0.00000   0.00000   0.00000
   D12        3.14159   0.00000   0.00000   0.00000   0.00000   3.14159
   D13        0.00000   0.00000   0.00000   0.00000   0.00000   0.00000
   D14        3.14159   0.00000   0.00000   0.00000   0.00000   3.14159
   D15        0.00000   0.00000   0.00000   0.00000   0.00000   0.00000
   D16        3.14159   0.00000   0.00000   0.00000   0.00000   3.14159
         Item               Value     Threshold  Converged?
 Maximum Force            0.001505     0.000450     NO 
 RMS     Force            0.000487     0.000300     NO 
 Maximum Displacement     0.003754     0.001800     NO 
 RMS     Displacement     0.001356     0.001200     NO 
 Predicted change in Energy=-1.129109D-05
 GradGradGradGradGradGradGradGradGradGradGradGradGradGradGradGradGradGrad

                          Input orientation:                          
 ---------------------------------------------------------------------
 Center     Atomic      Atomic             Coordinates (Angstroms)
 Number     Number       Type             X           Y           Z
 ---------------------------------------------------------------------
      1          1           0        2.096832    0.727324    0.000000
      2          6           0        1.109196    0.305905    0.000000
      3          1           0        1.256698   -1.891188    0.000000
      4          6           0        0.661354   -0.998182    0.000000
      5          1           0       -1.480593   -1.676098    0.000000
      6          6           0       -0.748029   -0.889876    0.000000
      7          7           0       -1.147641    0.380893    0.000000
      8          1           0       -0.047913    2.088154    0.000000
      9          7           0       -0.001064    1.087548    0.000000
 ---------------------------------------------------------------------
                    Distance matrix (angstroms):
                    1          2          3          4          5
     1  H    0.000000
     2  C    1.073787   0.000000
     3  H    2.749988   2.202039   0.000000
     4  C    2.244542   1.378841   1.073264   0.000000
     5  H    4.309804   3.261187   2.745729   2.246666   0.000000
     6  C    3.272396   2.208886   2.240883   1.413539   1.074614
     7  N    3.262916   2.258082   3.308051   2.274711   2.083763
     8  H    2.540037   2.124927   4.187741   3.166785   4.027675
     9  N    2.128597   1.357808   3.233393   2.188393   3.134764
                    6          7          8          9
     6  C    0.000000
     7  N    1.332120   0.000000
     8  H    3.059220   2.030799   0.000000
     9  N    2.113803   1.346849   1.001703   0.000000
 Stoichiometry    C3H4N2
 Framework group  CS[SG(C3H4N2)]
 Deg. of freedom    15
 Full point group                 CS      NOp   2
 Largest Abelian subgroup         CS      NOp   2
 Largest concise Abelian subgroup C1      NOp   1
                         Standard orientation:                         
 ---------------------------------------------------------------------
 Center     Atomic      Atomic             Coordinates (Angstroms)
 Number     Number       Type             X           Y           Z
 ---------------------------------------------------------------------
      1          1           0        2.098286    0.728650    0.000000
      2          6           0        1.111108    0.306158    0.000000
      3          1           0        1.260997   -1.890774    0.000000
      4          6           0        0.664683   -0.998415    0.000000
      5          1           0       -1.476527   -1.678657    0.000000
      6          6           0       -0.744817   -0.891640    0.000000
      7          7           0       -1.145809    0.378694    0.000000
      8          1           0       -0.047936    2.087149    0.000000
      9          7           0        0.000000    1.086594    0.000000
 ---------------------------------------------------------------------
 Rotational constants (GHZ):      9.6553060      9.4402495      4.7732834
 Standard basis: 6-31+G(d,p) (6D, 7F)
 There are    86 symmetry adapted basis functions of A'  symmetry.
 There are    29 symmetry adapted basis functions of A"  symmetry.
 Integral buffers will be    131072 words long.
 Raffenetti 1 integral format.
 Two-electron integral symmetry is turned on.
   115 basis functions,   188 primitive gaussians,   115 cartesian basis functions
    18 alpha electrons       18 beta electrons
       nuclear repulsion energy       163.1376104223 Hartrees.
 NAtoms=    9 NActive=    9 NUniq=    9 SFac= 1.00D+00 NAtFMM=   50 NAOKFM=F Big=F
 One-electron integrals computed using PRISM.
 NBasis=   115 RedAO= T  NBF=    86    29
 NBsUse=   115 1.00D-06 NBFU=    86    29
 Initial guess read from the read-write file.
 B after Tr=     0.000000    0.000000    0.000000
         Rot=    1.000000    0.000000    0.000000    0.000000 Ang=   0.00 deg.
 Initial guess orbital symmetries:
       Occupied  (A') (A') (A') (A') (A') (A') (A') (A') (A') (A')
                 (A') (A') (A") (A') (A') (A') (A") (A")
       Virtual   (A') (A') (A') (A') (A") (A') (A") (A") (A') (A')
                 (A") (A') (A') (A") (A') (A') (A") (A') (A") (A')
                 (A') (A') (A') (A') (A') (A') (A') (A') (A') (A')
                 (A') (A') (A") (A") (A') (A") (A') (A') (A') (A')
                 (A') (A") (A') (A') (A') (A") (A') (A') (A') (A')
                 (A') (A') (A") (A') (A") (A") (A") (A") (A') (A')
                 (A') (A') (A') (A') (A') (A") (A") (A') (A') (A")
                 (A") (A') (A") (A') (A") (A') (A') (A') (A") (A')
                 (A") (A') (A") (A') (A') (A') (A') (A') (A') (A')
                 (A') (A') (A') (A') (A') (A') (A')
 Requested convergence on RMS density matrix=1.00D-08 within 128 cycles.
 Requested convergence on MAX density matrix=1.00D-06.
 Requested convergence on             energy=1.00D-06.
 No special actions if energy rises.
 Keep R1 ints in memory in canonical form, NReq=23127437.
 SCF Done:  E(RHF) =  -224.809585696     A.U. after   10 cycles
             Convg  =    0.8340D-08             -V/T =  2.0026
 Range of M.O.s used for correlation:     1   115
 NBasis=   115 NAE=    18 NBE=    18 NFC=     0 NFV=     0
 NROrb=    115 NOA=    18 NOB=    18 NVA=    97 NVB=    97

 **** Warning!!: The largest alpha MO coefficient is  0.40531198D+02

 Semi-Direct transformation.
 ModeAB=           2 MOrb=            18 LenV=     423570141
 LASXX=      6539076 LTotXX=     6539076 LenRXX=     6539076
 LTotAB=     6744303 MaxLAS=    13806900 LenRXY=    13806900
 NonZer=    14104980 LenScr=    21934080 LnRSAI=           0
 LnScr1=           0 LExtra=           0 Total=     42280056
 MaxDsk=          -1 SrtSym=           F ITran=            4
 JobTyp=0 Pass  1:  I=   1 to  18.
 (rs|ai) integrals will be sorted in core.
 Spin components of T(2) and E(2):
     alpha-alpha T2 =       0.3542033786D-01 E2=     -0.1014684313D+00
     alpha-beta  T2 =       0.1862890710D+00 E2=     -0.5626917028D+00
     beta-beta   T2 =       0.3542033786D-01 E2=     -0.1014684313D+00
 ANorm=    0.1121217975D+01
 E2 =    -0.7656285653D+00 EUMP2 =    -0.22557521426106D+03
 R2 and R3 integrals will be kept in memory, NReq=    45315570.
 DD1Dir will call FoFMem   1 times, MxPair=       342
 NAB=   171 NAA=     0 NBB=     0.
 E3=       -0.12166540D-01        EUMP3=      -0.22558738080D+03
 Largest amplitude= 3.68D-02
 Discarding MO integrals.
          IDoAtm=111111111
          Differentiating once with respect to electric field.
                with respect to dipole field.
          Differentiating once with respect to nuclear coordinates.
          Keep R1 ints in memory in canonical form, NReq=23068991.
          There are     1 degrees of freedom in the 1st order CPHF.  IDoFFX=0.
 LinEq1:  Iter=  0 NonCon=     1 RMS=3.52D-03 Max=4.81D-02
 AX will form     1 AO Fock derivatives at one time.
 LinEq1:  Iter=  1 NonCon=     1 RMS=1.11D-03 Max=1.22D-02
 LinEq1:  Iter=  2 NonCon=     1 RMS=4.84D-04 Max=9.53D-03
 LinEq1:  Iter=  3 NonCon=     1 RMS=2.10D-04 Max=2.87D-03
 LinEq1:  Iter=  4 NonCon=     1 RMS=7.82D-05 Max=1.05D-03
 LinEq1:  Iter=  5 NonCon=     1 RMS=1.80D-05 Max=1.90D-04
 LinEq1:  Iter=  6 NonCon=     1 RMS=3.11D-06 Max=4.62D-05
 LinEq1:  Iter=  7 NonCon=     1 RMS=1.25D-06 Max=1.59D-05
 LinEq1:  Iter=  8 NonCon=     1 RMS=5.65D-07 Max=9.08D-06
 LinEq1:  Iter=  9 NonCon=     1 RMS=1.08D-07 Max=9.16D-07
 LinEq1:  Iter= 10 NonCon=     1 RMS=3.85D-08 Max=2.76D-07
 LinEq1:  Iter= 11 NonCon=     1 RMS=1.02D-08 Max=8.72D-08
 LinEq1:  Iter= 12 NonCon=     1 RMS=2.46D-09 Max=1.91D-08
 LinEq1:  Iter= 13 NonCon=     1 RMS=8.24D-10 Max=6.76D-09
 LinEq1:  Iter= 14 NonCon=     1 RMS=2.21D-10 Max=1.51D-09
 LinEq1:  Iter= 15 NonCon=     0 RMS=3.51D-11 Max=2.70D-10
 Linear equations converged to 1.000D-10 1.000D-09 after    15 iterations.
 End of Minotr Frequency-dependent properties file   721 does not exist.
 End of Minotr Frequency-dependent properties file   722 does not exist.
 Calling FoFJK, ICntrl=      2127 FMM=F ISym2X=1 I1Cent= 0 IOpClX= 0 NMat=1 NMatS=1 NMatT=0.
 ***** Axes restored to original set *****
 -------------------------------------------------------------------
 Center     Atomic                   Forces (Hartrees/Bohr)
 Number     Number              X              Y              Z
 -------------------------------------------------------------------
      1        1           0.000093031   -0.000009540    0.000000000
      2        6          -0.000185920    0.000361394    0.000000000
      3        1           0.000059062   -0.000000260    0.000000000
      4        6           0.000244742   -0.000285277    0.000000000
      5        1          -0.000072995    0.000035132    0.000000000
      6        6          -0.000138729    0.000270394    0.000000000
      7        7           0.000158623    0.000148697    0.000000000
      8        1          -0.000021200   -0.000014876    0.000000000
      9        7          -0.000136613   -0.000505664    0.000000000
 -------------------------------------------------------------------
 Cartesian Forces:  Max     0.000505664 RMS     0.000165542

 GradGradGradGradGradGradGradGradGradGradGradGradGradGradGradGradGradGrad
 Berny optimization.
 Using GEDIIS/GDIIS optimizer.
 Internal  Forces:  Max     0.000327652 RMS     0.000102450
 Search for a local minimum.
 Step number   4 out of a maximum of   48
 All quantities printed in internal units (Hartrees-Bohrs-Radians)
 Mixed Optimization -- En-DIIS/RFO-DIIS
 Swaping is turned off.
 Update second derivatives using D2CorX and points    1    2    3    4
 DE= -9.87D-06 DEPred=-1.13D-05 R= 8.74D-01
 SS=  1.41D+00  RLast= 8.12D-03 DXNew= 5.0454D-01 2.4367D-02
 Trust test= 8.74D-01 RLast= 8.12D-03 DXMaxT set to 3.00D-01
 ITU=  1  1  1  0
     Eigenvalues ---    0.02138   0.02275   0.02343   0.02397   0.02534
     Eigenvalues ---    0.02553   0.14358   0.16000   0.16009   0.16157
     Eigenvalues ---    0.21927   0.30562   0.37092   0.37291   0.37370
     Eigenvalues ---    0.41892   0.48482   0.49091   0.53248   0.60140
     Eigenvalues ---    0.61788
 En-DIIS/RFO-DIIS IScMMF=        0 using points:     4    3
 RFO step:  Lambda=-6.02726536D-07.
 DidBck=F Rises=F RFO-DIIS coefs:    0.88751    0.11249
 Iteration  1 RMS(Cart)=  0.00033659 RMS(Int)=  0.00000006
 Iteration  2 RMS(Cart)=  0.00000007 RMS(Int)=  0.00000003
 ClnCor:  largest displacement from symmetrization is 1.62D-12 for atom     1.
 Variable       Old X    -DE/DX   Delta X   Delta X   Delta X     New X
                                  (DIIS)     (GDIIS)  (Total)
    R1        2.02916   0.00008   0.00007   0.00012   0.00019   2.02936
    R2        2.60563   0.00011  -0.00010   0.00040   0.00030   2.60593
    R3        2.56588  -0.00016   0.00018  -0.00051  -0.00033   2.56556
    R4        2.02817   0.00003   0.00001   0.00006   0.00007   2.02825
    R5        2.67120   0.00026   0.00050   0.00015   0.00065   2.67185
    R6        2.03073   0.00002   0.00001   0.00007   0.00008   2.03080
    R7        2.51734  -0.00014  -0.00027   0.00001  -0.00026   2.51708
    R8        2.54518  -0.00033  -0.00005  -0.00054  -0.00059   2.54459
    R9        1.89294  -0.00001   0.00002  -0.00005  -0.00003   1.89292
    A1        2.30490  -0.00003  -0.00012  -0.00014  -0.00026   2.30464
    A2        2.12487   0.00006   0.00024  -0.00001   0.00023   2.12510
    A3        1.85342  -0.00003  -0.00012   0.00015   0.00003   1.85345
    A4        2.22279   0.00005   0.00006  -0.00004   0.00002   2.22281
    A5        1.82490  -0.00020  -0.00016  -0.00036  -0.00053   1.82437
    A6        2.23550   0.00015   0.00010   0.00041   0.00051   2.23601
    A7        2.24418   0.00005  -0.00029   0.00056   0.00026   2.24445
    A8        1.95217   0.00006   0.00024  -0.00002   0.00021   1.95238
    A9        2.08684  -0.00011   0.00006  -0.00053  -0.00047   2.08636
   A10        1.81845  -0.00005  -0.00025   0.00011  -0.00014   1.81831
   A11        1.97584   0.00022   0.00030   0.00013   0.00043   1.97627
   A12        2.23100  -0.00009  -0.00013   0.00000  -0.00014   2.23086
   A13        2.07634  -0.00013  -0.00016  -0.00013  -0.00029   2.07605
    D1        0.00000   0.00000   0.00000   0.00000   0.00000   0.00000
    D2        3.14159   0.00000   0.00000   0.00000   0.00000   3.14159
    D3        3.14159   0.00000   0.00000   0.00000   0.00000   3.14159
    D4        0.00000   0.00000   0.00000   0.00000   0.00000   0.00000
    D5        3.14159   0.00000   0.00000   0.00000   0.00000   3.14159
    D6        0.00000   0.00000   0.00000   0.00000   0.00000   0.00000
    D7        0.00000   0.00000   0.00000   0.00000   0.00000   0.00000
    D8        3.14159   0.00000   0.00000   0.00000   0.00000   3.14159
    D9        3.14159   0.00000   0.00000   0.00000   0.00000   3.14159
   D10        0.00000   0.00000   0.00000   0.00000   0.00000   0.00000
   D11        0.00000   0.00000   0.00000   0.00000   0.00000   0.00000
   D12        3.14159   0.00000   0.00000   0.00000   0.00000   3.14159
   D13        0.00000   0.00000   0.00000   0.00000   0.00000   0.00000
   D14        3.14159   0.00000   0.00000   0.00000   0.00000   3.14159
   D15        0.00000   0.00000   0.00000   0.00000   0.00000   0.00000
   D16        3.14159   0.00000   0.00000   0.00000   0.00000   3.14159
         Item               Value     Threshold  Converged?
 Maximum Force            0.000328     0.000450     YES
 RMS     Force            0.000102     0.000300     YES
 Maximum Displacement     0.000985     0.001800     YES
 RMS     Displacement     0.000337     0.001200     YES
 Predicted change in Energy=-4.636751D-07
 Optimization completed.
    -- Stationary point found.
                           ----------------------------
                           !   Optimized Parameters   !
                           ! (Angstroms and Degrees)  !
 --------------------------                            --------------------------
 ! Name  Definition              Value          Derivative Info.                !
 --------------------------------------------------------------------------------
 ! R1    R(1,2)                  1.0738         -DE/DX =    0.0001              !
 ! R2    R(2,4)                  1.3788         -DE/DX =    0.0001              !
 ! R3    R(2,9)                  1.3578         -DE/DX =   -0.0002              !
 ! R4    R(3,4)                  1.0733         -DE/DX =    0.0                 !
 ! R5    R(4,6)                  1.4135         -DE/DX =    0.0003              !
 ! R6    R(5,6)                  1.0746         -DE/DX =    0.0                 !
 ! R7    R(6,7)                  1.3321         -DE/DX =   -0.0001              !
 ! R8    R(7,9)                  1.3468         -DE/DX =   -0.0003              !
 ! R9    R(8,9)                  1.0017         -DE/DX =    0.0                 !
 ! A1    A(1,2,4)              132.0609         -DE/DX =    0.0                 !
 ! A2    A(1,2,9)              121.7461         -DE/DX =    0.0001              !
 ! A3    A(4,2,9)              106.1931         -DE/DX =    0.0                 !
 ! A4    A(2,4,3)              127.3565         -DE/DX =    0.0                 !
 ! A5    A(2,4,6)              104.5589         -DE/DX =   -0.0002              !
 ! A6    A(3,4,6)              128.0846         -DE/DX =    0.0001              !
 ! A7    A(4,6,5)              128.5823         -DE/DX =    0.0                 !
 ! A8    A(4,6,7)              111.8508         -DE/DX =    0.0001              !
 ! A9    A(5,6,7)              119.5669         -DE/DX =   -0.0001              !
 ! A10   A(6,7,9)              104.1897         -DE/DX =    0.0                 !
 ! A11   A(2,9,7)              113.2075         -DE/DX =    0.0002              !
 ! A12   A(2,9,8)              127.8269         -DE/DX =   -0.0001              !
 ! A13   A(7,9,8)              118.9656         -DE/DX =   -0.0001              !
 ! D1    D(1,2,4,3)              0.0            -DE/DX =    0.0                 !
 ! D2    D(1,2,4,6)            180.0            -DE/DX =    0.0                 !
 ! D3    D(9,2,4,3)            180.0            -DE/DX =    0.0                 !
 ! D4    D(9,2,4,6)              0.0            -DE/DX =    0.0                 !
 ! D5    D(1,2,9,7)            180.0            -DE/DX =    0.0                 !
 ! D6    D(1,2,9,8)              0.0            -DE/DX =    0.0                 !
 ! D7    D(4,2,9,7)              0.0            -DE/DX =    0.0                 !
 ! D8    D(4,2,9,8)            180.0            -DE/DX =    0.0                 !
 ! D9    D(2,4,6,5)            180.0            -DE/DX =    0.0                 !
 ! D10   D(2,4,6,7)              0.0            -DE/DX =    0.0                 !
 ! D11   D(3,4,6,5)              0.0            -DE/DX =    0.0                 !
 ! D12   D(3,4,6,7)            180.0            -DE/DX =    0.0                 !
 ! D13   D(4,6,7,9)              0.0            -DE/DX =    0.0                 !
 ! D14   D(5,6,7,9)            180.0            -DE/DX =    0.0                 !
 ! D15   D(6,7,9,2)              0.0            -DE/DX =    0.0                 !
 ! D16   D(6,7,9,8)            180.0            -DE/DX =    0.0                 !
 --------------------------------------------------------------------------------
 GradGradGradGradGradGradGradGradGradGradGradGradGradGradGradGradGradGrad

                          Input orientation:                          
 ---------------------------------------------------------------------
 Center     Atomic      Atomic             Coordinates (Angstroms)
 Number     Number       Type             X           Y           Z
 ---------------------------------------------------------------------
      1          1           0        2.096832    0.727324    0.000000
      2          6           0        1.109196    0.305905    0.000000
      3          1           0        1.256698   -1.891188    0.000000
      4          6           0        0.661354   -0.998182    0.000000
      5          1           0       -1.480593   -1.676098    0.000000
      6          6           0       -0.748029   -0.889876    0.000000
      7          7           0       -1.147641    0.380893    0.000000
      8          1           0       -0.047913    2.088154    0.000000
      9          7           0       -0.001064    1.087548    0.000000
 ---------------------------------------------------------------------
                    Distance matrix (angstroms):
                    1          2          3          4          5
     1  H    0.000000
     2  C    1.073787   0.000000
     3  H    2.749988   2.202039   0.000000
     4  C    2.244542   1.378841   1.073264   0.000000
     5  H    4.309804   3.261187   2.745729   2.246666   0.000000
     6  C    3.272396   2.208886   2.240883   1.413539   1.074614
     7  N    3.262916   2.258082   3.308051   2.274711   2.083763
     8  H    2.540037   2.124927   4.187741   3.166785   4.027675
     9  N    2.128597   1.357808   3.233393   2.188393   3.134764
                    6          7          8          9
     6  C    0.000000
     7  N    1.332120   0.000000
     8  H    3.059220   2.030799   0.000000
     9  N    2.113803   1.346849   1.001703   0.000000
 Stoichiometry    C3H4N2
 Framework group  CS[SG(C3H4N2)]
 Deg. of freedom    15
 Full point group                 CS      NOp   2
 Largest Abelian subgroup         CS      NOp   2
 Largest concise Abelian subgroup C1      NOp   1
                         Standard orientation:                         
 ---------------------------------------------------------------------
 Center     Atomic      Atomic             Coordinates (Angstroms)
 Number     Number       Type             X           Y           Z
 ---------------------------------------------------------------------
      1          1           0        2.098286    0.728650    0.000000
      2          6           0        1.111108    0.306158    0.000000
      3          1           0        1.260997   -1.890774    0.000000
      4          6           0        0.664683   -0.998415    0.000000
      5          1           0       -1.476527   -1.678657    0.000000
      6          6           0       -0.744817   -0.891640    0.000000
      7          7           0       -1.145809    0.378694    0.000000
      8          1           0       -0.047936    2.087149    0.000000
      9          7           0        0.000000    1.086594    0.000000
 ---------------------------------------------------------------------
 Rotational constants (GHZ):      9.6553060      9.4402495      4.7732834

 **********************************************************************

            Population analysis using the SCF density.

 **********************************************************************

 Orbital symmetries:
       Occupied  (A') (A') (A') (A') (A') (A') (A') (A') (A') (A')
                 (A') (A') (A") (A') (A') (A') (A") (A")
       Virtual   (A') (A') (A') (A') (A") (A') (A") (A") (A') (A')
                 (A") (A') (A') (A") (A') (A') (A") (A') (A") (A')
                 (A') (A') (A') (A') (A') (A') (A') (A') (A') (A')
                 (A') (A') (A") (A") (A') (A") (A') (A') (A') (A')
                 (A') (A") (A') (A') (A') (A") (A') (A') (A') (A')
                 (A') (A') (A") (A') (A") (A") (A") (A") (A') (A')
                 (A') (A') (A') (A') (A') (A") (A") (A') (A') (A")
                 (A") (A') (A") (A') (A") (A') (A') (A') (A") (A')
                 (A") (A') (A") (A') (A') (A') (A') (A') (A') (A')
                 (A') (A') (A') (A') (A') (A') (A')
[...]
                    A'                     A'                     A'
 Frequencies --  3363.7038              3382.0120              3804.1275
 Red. masses --     1.0952                 1.1076                 1.0821
 Frc consts  --     7.3011                 7.4644                 9.2259
 IR Inten    --     1.7054                 0.1930               101.3871
  Atom  AN      X      Y      Z        X      Y      Z        X      Y      Z
     1   1     0.71   0.30   0.00    -0.54  -0.23   0.00     0.01   0.00   0.00
     2   6    -0.06  -0.03   0.00     0.05   0.03   0.00     0.00   0.00   0.00
     3   1    -0.25   0.36   0.00    -0.42   0.63   0.00     0.00   0.00   0.00
     4   6     0.03  -0.03   0.00     0.04  -0.06   0.00     0.00   0.00   0.00
     5   1     0.31   0.34   0.00     0.18   0.19   0.00     0.00   0.00   0.00
     6   6    -0.03  -0.03   0.00    -0.02  -0.02   0.00     0.00   0.00   0.00
     7   7     0.00   0.00   0.00     0.00   0.00   0.00     0.00   0.00   0.00
     8   1     0.00  -0.01   0.00     0.00   0.01   0.00    -0.05   1.00   0.00
     9   7     0.00   0.00   0.00     0.00   0.00   0.00     0.00  -0.08   0.00

 -------------------
 - Thermochemistry -
 -------------------
 Temperature   298.150 Kelvin.  Pressure   1.00000 Atm.
 Atom     1 has atomic number  1 and mass   1.00783
 Atom     2 has atomic number  6 and mass  12.00000
 Atom     3 has atomic number  1 and mass   1.00783
 Atom     4 has atomic number  6 and mass  12.00000
 Atom     5 has atomic number  1 and mass   1.00783
 Atom     6 has atomic number  6 and mass  12.00000
 Atom     7 has atomic number  7 and mass  14.00307
 Atom     8 has atomic number  1 and mass   1.00783
 Atom     9 has atomic number  7 and mass  14.00307
 Molecular mass:    68.03745 amu.
 Principal axes and moments of inertia in atomic units:
                           1         2         3
     Eigenvalues --   186.91704 191.17516 378.09220
           X            0.91855   0.39531   0.00000
           Y           -0.39531   0.91855   0.00000
           Z            0.00000   0.00000   1.00000
 This molecule is an asymmetric top.
 Rotational symmetry number  1.
 Rotational temperatures (Kelvin)      0.46338     0.45306     0.22908
 Rotational constants (GHZ):           9.65531     9.44025     4.77328
 Zero-point vibrational energy     191622.0 (Joules/Mol)
                                   45.79877 (Kcal/Mol)
 Warning -- explicit consideration of   2 degrees of freedom as
           vibrations may cause significant error
 Vibrational temperatures:    714.55   883.17   987.82  1080.74  1171.02
          (Kelvin)           1239.42  1349.45  1377.53  1565.11  1570.88
                             1696.90  1759.13  1909.45  2071.66  2142.02
                             2231.11  2340.98  4823.80  4839.61  4865.95
                             5473.28
 
 Zero-point correction=                           0.072985 (Hartree/Particle)
 Thermal correction to Energy=                    0.076749
 Thermal correction to Enthalpy=                  0.077694
 Thermal correction to Gibbs Free Energy=         0.046703
 Sum of electronic and zero-point Energies=           -225.514396
 Sum of electronic and thermal Energies=              -225.510631
 Sum of electronic and thermal Enthalpies=            -225.509687
 Sum of electronic and thermal Free Energies=         -225.540677
 
                     E (Thermal)             CV                S
                      KCal/Mol        Cal/Mol-Kelvin    Cal/Mol-Kelvin
 Total                   48.161             13.274             65.224
 Electronic               0.000              0.000              0.000
 Translational            0.889              2.981             38.570
 Rotational               0.889              2.981             24.117
 Vibrational             46.383              7.312              2.537
 Vibration     1          0.852              1.257              0.667
 Vibration     2          0.973              1.003              0.426
                       Q            Log10(Q)             Ln(Q)
 Total Bot       0.329607D-21        -21.482004        -49.464142
 Total V=0       0.122655D+13         12.088687         27.835230
 Vib (Bot)       0.359115D-33        -33.444767        -77.009421
 Vib (Bot)    1  0.331920D+00         -0.478966         -1.102860
 Vib (Bot)    2  0.239791D+00         -0.620166         -1.427986
 Vib (V=0)       0.133636D+01          0.125924          0.289951
 Vib (V=0)    1  0.110014D+01          0.041449          0.095440
 Vib (V=0)    2  0.105453D+01          0.023058          0.053092
 Electronic      0.100000D+01          0.000000          0.000000
 Translational   0.220586D+08          7.343577         16.909211
 Rotational      0.416088D+05          4.619185         10.636068
 ***** Axes restored to original set *****
 -------------------------------------------------------------------
 Center     Atomic                   Forces (Hartrees/Bohr)
 Number     Number              X              Y              Z
 -------------------------------------------------------------------
      1        1           0.000093029   -0.000009544    0.000000000
      2        6          -0.000185934    0.000361386    0.000000000
      3        1           0.000059061   -0.000000260    0.000000000
      4        6           0.000244762   -0.000285262    0.000000000
      5        1          -0.000073003    0.000035122    0.000000000
      6        6          -0.000138728    0.000270424    0.000000000
      7        7           0.000158620    0.000148692    0.000000000
      8        1          -0.000021198   -0.000014881    0.000000000
      9        7          -0.000136610   -0.000505677    0.000000000
 -------------------------------------------------------------------
 Cartesian Forces:  Max     0.000505677 RMS     0.000165545

 GradGradGradGradGradGradGradGradGradGradGradGradGradGradGradGradGradGrad
 Berny optimization.
 Internal  Forces:  Max     0.000327656 RMS     0.000102452
 Search for a local minimum.
 Step number   1 out of a maximum of    2
 All quantities printed in internal units (Hartrees-Bohrs-Radians)
 Second derivative matrix not updated -- analytic derivatives used.
 ITU=  0
     Eigenvalues ---    0.00653   0.01014   0.01557   0.02727   0.05451
     Eigenvalues ---    0.05857   0.09947   0.11026   0.11698   0.12523
     Eigenvalues ---    0.23631   0.28084   0.36528   0.39337   0.39840
     Eigenvalues ---    0.39959   0.42353   0.44671   0.51267   0.52305
     Eigenvalues ---    0.59082
 Angle between quadratic step and forces=  24.78 degrees.
 Linear search not attempted -- first point.
 Iteration  1 RMS(Cart)=  0.00041860 RMS(Int)=  0.00000011
 Iteration  2 RMS(Cart)=  0.00000012 RMS(Int)=  0.00000001
 ClnCor:  largest displacement from symmetrization is 5.28D-14 for atom     6.
 Variable       Old X    -DE/DX   Delta X   Delta X   Delta X     New X
                                 (Linear)    (Quad)   (Total)
    R1        2.02916   0.00008   0.00000   0.00020   0.00020   2.02936
    R2        2.60563   0.00011   0.00000   0.00044   0.00044   2.60607
    R3        2.56588  -0.00016   0.00000  -0.00049  -0.00049   2.56540
    R4        2.02817   0.00003   0.00000   0.00005   0.00005   2.02823
    R5        2.67120   0.00026   0.00000   0.00067   0.00067   2.67187
    R6        2.03073   0.00002   0.00000   0.00007   0.00007   2.03080
    R7        2.51734  -0.00014   0.00000  -0.00019  -0.00019   2.51715
    R8        2.54518  -0.00033   0.00000  -0.00081  -0.00081   2.54437
    R9        1.89294  -0.00001   0.00000   0.00000   0.00000   1.89294
    A1        2.30490  -0.00003   0.00000  -0.00042  -0.00042   2.30447
    A2        2.12487   0.00006   0.00000   0.00043   0.00043   2.12530
    A3        1.85342  -0.00003   0.00000   0.00000   0.00000   1.85341
    A4        2.22279   0.00005   0.00000  -0.00016  -0.00016   2.22263
    A5        1.82490  -0.00020   0.00000  -0.00056  -0.00056   1.82434
    A6        2.23550   0.00015   0.00000   0.00072   0.00072   2.23622
    A7        2.24418   0.00005   0.00000   0.00048   0.00048   2.24467
    A8        1.95217   0.00006   0.00000   0.00013   0.00013   1.95230
    A9        2.08684  -0.00011   0.00000  -0.00062  -0.00062   2.08622
   A10        1.81845  -0.00005   0.00000  -0.00010  -0.00010   1.81836
   A11        1.97584   0.00022   0.00000   0.00052   0.00052   1.97637
   A12        2.23100  -0.00009   0.00000  -0.00027  -0.00027   2.23073
   A13        2.07634  -0.00013   0.00000  -0.00026  -0.00026   2.07608
    D1        0.00000   0.00000   0.00000   0.00000   0.00000   0.00000
    D2        3.14159   0.00000   0.00000   0.00000   0.00000   3.14159
    D3        3.14159   0.00000   0.00000   0.00000   0.00000   3.14159
    D4        0.00000   0.00000   0.00000   0.00000   0.00000   0.00000
    D5        3.14159   0.00000   0.00000   0.00000   0.00000   3.14159
    D6        0.00000   0.00000   0.00000   0.00000   0.00000   0.00000
    D7        0.00000   0.00000   0.00000   0.00000   0.00000   0.00000
    D8        3.14159   0.00000   0.00000   0.00000   0.00000   3.14159
    D9        3.14159   0.00000   0.00000   0.00000   0.00000   3.14159
   D10        0.00000   0.00000   0.00000   0.00000   0.00000   0.00000
   D11        0.00000   0.00000   0.00000   0.00000   0.00000   0.00000
   D12        3.14159   0.00000   0.00000   0.00000   0.00000   3.14159
   D13        0.00000   0.00000   0.00000   0.00000   0.00000   0.00000
   D14        3.14159   0.00000   0.00000   0.00000   0.00000   3.14159
   D15        0.00000   0.00000   0.00000   0.00000   0.00000   0.00000
   D16        3.14159   0.00000   0.00000   0.00000   0.00000   3.14159
         Item               Value     Threshold  Converged?
 Maximum Force            0.000328     0.000450     YES
 RMS     Force            0.000102     0.000300     YES
 Maximum Displacement     0.001342     0.001800     YES
 RMS     Displacement     0.000419     0.001200     YES
 Predicted change in Energy=-5.656604D-07
 Optimization completed.
    -- Stationary point found.
                           ----------------------------
                           !   Optimized Parameters   !
                           ! (Angstroms and Degrees)  !
 --------------------------                            --------------------------
 ! Name  Definition              Value          Derivative Info.                !
 --------------------------------------------------------------------------------
 ! R1    R(1,2)                  1.0738         -DE/DX =    0.0001              !
 ! R2    R(2,4)                  1.3788         -DE/DX =    0.0001              !
 ! R3    R(2,9)                  1.3578         -DE/DX =   -0.0002              !
 ! R4    R(3,4)                  1.0733         -DE/DX =    0.0                 !
 ! R5    R(4,6)                  1.4135         -DE/DX =    0.0003              !
 ! R6    R(5,6)                  1.0746         -DE/DX =    0.0                 !
 ! R7    R(6,7)                  1.3321         -DE/DX =   -0.0001              !
 ! R8    R(7,9)                  1.3468         -DE/DX =   -0.0003              !
 ! R9    R(8,9)                  1.0017         -DE/DX =    0.0                 !
 ! A1    A(1,2,4)              132.0609         -DE/DX =    0.0                 !
 ! A2    A(1,2,9)              121.7461         -DE/DX =    0.0001              !
 ! A3    A(4,2,9)              106.1931         -DE/DX =    0.0                 !
 ! A4    A(2,4,3)              127.3565         -DE/DX =    0.0                 !
 ! A5    A(2,4,6)              104.5589         -DE/DX =   -0.0002              !
 ! A6    A(3,4,6)              128.0846         -DE/DX =    0.0001              !
 ! A7    A(4,6,5)              128.5823         -DE/DX =    0.0                 !
 ! A8    A(4,6,7)              111.8508         -DE/DX =    0.0001              !
 ! A9    A(5,6,7)              119.5669         -DE/DX =   -0.0001              !
 ! A10   A(6,7,9)              104.1897         -DE/DX =    0.0                 !
 ! A11   A(2,9,7)              113.2075         -DE/DX =    0.0002              !
 ! A12   A(2,9,8)              127.8269         -DE/DX =   -0.0001              !
 ! A13   A(7,9,8)              118.9656         -DE/DX =   -0.0001              !
 ! D1    D(1,2,4,3)              0.0            -DE/DX =    0.0                 !
 ! D2    D(1,2,4,6)            180.0            -DE/DX =    0.0                 !
 ! D3    D(9,2,4,3)            180.0            -DE/DX =    0.0                 !
 ! D4    D(9,2,4,6)              0.0            -DE/DX =    0.0                 !
 ! D5    D(1,2,9,7)            180.0            -DE/DX =    0.0                 !
 ! D6    D(1,2,9,8)              0.0            -DE/DX =    0.0                 !
 ! D7    D(4,2,9,7)              0.0            -DE/DX =    0.0                 !
 ! D8    D(4,2,9,8)            180.0            -DE/DX =    0.0                 !
 ! D9    D(2,4,6,5)            180.0            -DE/DX =    0.0                 !
 ! D10   D(2,4,6,7)              0.0            -DE/DX =    0.0                 !
 ! D11   D(3,4,6,5)              0.0            -DE/DX =    0.0                 !
 ! D12   D(3,4,6,7)            180.0            -DE/DX =    0.0                 !
 ! D13   D(4,6,7,9)              0.0            -DE/DX =    0.0                 !
 ! D14   D(5,6,7,9)            180.0            -DE/DX =    0.0                 !
 ! D15   D(6,7,9,2)              0.0            -DE/DX =    0.0                 !
 ! D16   D(6,7,9,8)            180.0            -DE/DX =    0.0                 !
 --------------------------------------------------------------------------------
 GradGradGradGradGradGradGradGradGradGradGradGradGradGradGradGradGradGrad

 1\1\GINC-N368\Freq\RMP3-Full\6-31+G(d,p)\C3H4N2\RDJ3\01-Feb-2013\0\\#N
  Geom=AllCheck Guess=TCheck SCRF=Check GenChk RMP3-Full/6-31+G(d,p) Fr
 eq\\1hpyraz 1H-Pyrazole casno=288131 state=1 config=1 method=71 basis=
 4\\0,1\H,2.0968319861,0.7273244759,0.\C,1.1091958786,0.3059050733,0.\H
 ,1.256698242,-1.8911881769,0.\C,0.6613544417,-0.9981815366,0.\H,-1.480
 5931651,-1.6760977892,0.\C,-0.748029093,-0.8898762039,0.\N,-1.14764109
 97,0.3808928949,0.\H,-0.0479126024,2.0881544456,0.\N,-0.0010635881,1.0
 875478169,0.\\Version=EM64L-G09RevB.01\State=1-A'\HF=-224.8095857\MP2=
 -225.5752143\MP3=-225.5873808\RMSD=2.539e-09\RMSF=1.655e-04\ZeroPoint=
 0.072985\Thermal=0.0767494\Dipole=0.8958951,0.3252805,0.\DipoleDeriv=0
 .0067932,-0.0366684,0.,-0.0463659,0.0611189,0.,0.,0.,0.2062318,-0.0332
 119,-0.2007287,0.,-0.0396391,0.4741574,0.,0.,0.,-0.1189054,0.0477987,0
 .0664132,0.,0.0601337,0.016322,0.,0.,0.,0.1958178,-0.1559125,-0.158262
 4,0.,-0.0544389,-0.1828467,0.,0.,0.,-0.2382681,0.0094621,-0.0687718,0.
 ,-0.0480239,0.0210054,0.,0.,0.,0.1619752,0.3754312,0.1278538,0.,-0.058
 1708,0.024276,0.,0.,0.,-0.097373,-0.4124272,0.278812,0.,0.2450635,-0.0
 161567,0.,0.,0.,-0.2331635,0.1752893,-0.0068833,0.,-0.0196749,0.283319
 1,0.,0.,0.,0.3299123,-0.0132808,-0.0018454,0.,-0.0390572,-0.6812374,0.
 ,0.,0.,-0.2062394\Quadrupole=-1.4419904,4.5115331,-3.0695426,2.0392386
 ,0.,0.\QuadrupoleDeriv=0.5932746,-0.2915615,-0.3017131,-0.0483415,0.,0
 .,-0.4110763,0.4949504,-0.0838741,0.5702951,0.,0.,0.,0.,0.,0.,0.904653
 1,0.3261416,2.2125909,-1.4138065,-0.7987844,0.6434887,0.,0.,0.319474,0
 .1652359,-0.4847099,0.9696736,0.,0.,0.,0.,0.,0.,-0.6185064,0.01074,0.6
 537251,-0.5194037,-0.1343214,-0.3706647,0.,0.,0.3971902,-0.6071979,0.2
 100078,0.0024352,0.,0.,0.,0.,0.,0.,0.5526535,-0.848865,-0.2080518,0.48
 49478,-0.276896,-0.7496436,0.,0.,0.3440006,-0.9582219,0.6142213,1.2580
 799,0.,0.,0.,0.,0.,0.,-0.6388731,0.7469739,-0.6901794,0.5233186,0.1668
 608,-0.1239304,0.,0.,0.4257047,-0.6003515,0.1746468,-0.0984013,0.,0.,0
 .,0.,0.,0.,-0.5421878,-0.6774526,-0.5332352,-0.0201559,0.5533912,-1.81
 60514,0.,0.,0.4864061,-1.2315223,0.7451163,-1.3310348,0.,0.,0.,0.,0.,0
 .,0.2163843,0.4549536,-1.0814825,0.9104856,0.1709969,-0.104789,0.,0.,-
 0.0977326,0.3096285,-0.2118959,-0.4443552,0.,0.,0.,0.,0.,0.,1.1028247,
 -0.3211255,-0.0370289,0.0003627,0.0366662,1.3704844,0.,0.,-0.7224838,1
 .5213395,-0.7988557,-0.1071196,0.,0.,0.,0.,0.,0.,-0.0298373,1.6133803,
 0.2851268,-0.271399,-0.0137278,1.5247191,0.,0.,-0.9583986,1.3398067,-0
 .3814081,0.0767042,0.,0.,0.,0.,0.,0.,-0.0510706,-0.979687\PG=CS [SG(C3
 H4N2)]\NImag=0\\0.34620481,0.12305820,0.10667529,0.,0.,0.02002342,-0.3
 2946006,-0.12360881,0.,0.87111543,-0.11301171,-0.11806722,0.,0.1266269
 7,0.72279789,0.,0.,-0.02288099,0.,0.,0.10347740,-0.00008323,0.00086207
 ,0.,0.01288146,-0.01152080,0.,0.15702053,-0.00051589,0.00031881,0.,0.0
 1913656,-0.00959662,0.,-0.16037608,0.29215344,0.,0.,-0.00230089,0.,0.,
 -0.00484832,0.,0.,0.02062644,0.00211034,-0.02358525,0.,-0.14511923,-0.
 07317198,0.,-0.16112450,0.14749348,0.,0.66288850,0.00153300,0.00465279
 ,0.,-0.09777140,-0.37557641,0.,0.14977168,-0.28480242,0.,-0.13135799,0
 .86981392,0.,0.,-0.00117377,0.,0.,-0.04828115,0.,0.,-0.02119990,0.,0.,
 0.09464056,0.00020480,-0.00145924,0.,-0.00625593,0.00125922,0.,0.00024
 025,0.00057789,0.,-0.00611577,-0.02144240,0.,0.21430224,-0.00004649,0.
 00072975,0.,0.00336775,-0.00066903,0.,-0.00078653,-0.00017470,0.,0.005
 48552,0.00949588,0.,0.16821003,0.23976928,0.,0.,0.00079733,0.,0.,0.005
 54322,0.,0.,-0.00114650,0.,0.,-0.00197368,0.,0.,0.02411766,0.00021351,
 -0.00248095,0.,-0.03474733,-0.08775571,0.,-0.00110384,-0.00353972,0.,-
 0.31316979,0.02494131,0.,-0.21739482,-0.15234125,0.,0.74286066,0.00094
 100,-0.00665159,0.,-0.01833448,0.01795894,0.,0.02534639,0.00653423,0.,
 -0.01080735,-0.12191571,0.,-0.16183693,-0.22353597,0.,0.13819306,0.824
 95571,0.,0.,0.00604176,0.,0.,0.00322366,0.,0.,-0.00608444,0.,0.,-0.050
 24214,0.,0.,-0.02803859,0.,0.,0.12514092,-0.00195189,0.00437386,0.,-0.
 09443345,0.00652567,0.,-0.00708295,-0.00232487,0.,-0.03106734,0.020938
 25,0.,0.01245591,-0.02394907,0.,-0.14415547,0.07380736,0.,0.52761681,0
 .00302109,-0.00335823,0.,-0.01541295,-0.03315188,0.,0.00255557,0.00065
 203,0.,0.09245577,-0.01347137,0.,0.00895471,-0.01820128,0.,0.10723120,
 -0.37462848,0.,-0.03481642,0.60469095,0.,0.,0.00640478,0.,0.,0.0161705
 8,0.,0.,0.00685034,0.,0.,0.01774369,0.,0.,-0.00854894,0.,0.,-0.0671237
 0,0.,0.,0.10052777,-0.00009994,-0.00078682,0.,0.01217523,0.02562311,0.
 ,0.00100407,0.00111402,0.,-0.00642738,0.00438989,0.,0.00088855,-0.0016
 4827,0.,-0.00850844,-0.00554501,0.,0.00916578,-0.03610859,0.,0.0711965
 8,0.00037647,0.00005247,0.,-0.00542874,-0.00636906,0.,-0.00025673,-0.0
 0009582,0.,0.00387752,0.00170060,0.,0.00036722,-0.00036750,0.,-0.00556
 441,0.00207355,0.,0.00290331,-0.01309872,0.,-0.02071677,0.51317274,0.,
 0.,-0.00129709,0.,0.,-0.00957899,0.,0.,0.00223869,0.,0.,0.00395847,0.,
 0.,0.00224578,0.,0.,0.00416135,0.,0.,-0.01301331,0.,0.,0.01221903,-0.0
 1713784,0.02362679,0.,-0.28615576,0.12543899,0.,-0.00175302,-0.0015649
 0,0.,-0.00198116,0.04898666,0.,0.00167259,0.00170537,0.,-0.02398122,-0
 .04175974,0.,-0.27055545,-0.12787207,0.,-0.07939192,0.02444142,0.,0.67
 928490,-0.01536180,0.01564634,0.,0.11143086,-0.19733872,0.,-0.00559664
 ,-0.00498860,0.,-0.01039533,-0.08988219,0.,0.00536754,-0.00704549,0.,-
 0.01867218,-0.12480448,0.,-0.04745871,-0.14942854,0.,0.03367525,-0.497
 06437,0.,-0.05300102,1.05490878,0.,0.,-0.00561366,0.,0.,-0.04282558,0.
 ,0.,0.00586547,0.,0.,0.00653002,0.,0.,0.00700437,0.,0.,0.01292430,0.,0
 .,-0.05901973,0.,0.,-0.00093785,0.,0.,0.07607760\\-0.00009303,0.000009
 54,0.,0.00018593,-0.00036139,0.,-0.00005906,0.00000026,0.,-0.00024476,
 0.00028526,0.,0.00007300,-0.00003512,0.,0.00013873,-0.00027042,0.,-0.0
 0015862,-0.00014869,0.,0.00002120,0.00001488,0.,0.00013661,0.00050568,
 0.\\\@


 Mondays are the potholes in the road of life.
                                -- Tom Wilson
 Job cpu time:  0 days 11 hours 12 minutes 10.5 seconds.
 File lengths (MBytes):  RWF=   2013 Int=      0 D2E=      0 Chk=     40 Scr=      1
 Normal termination of Gaussian 09 at Fri Feb  1 05:08:06 2013.
