 Entering Gaussian System, Link 0=g98
 Initial command:
 /usr/local/apps/g98a6/g98/l1.exe /wrk/rdj3/Gau-15928.inp -scrdir=/wrk/rdj3/
 Entering Link 1 = /usr/local/apps/g98a6/g98/l1.exe PID=     17426.
  
 Copyright (c) 1988,1990,1992,1993,1995,1998 Gaussian, Inc.
                  All Rights Reserved.
  
 This is part of the Gaussian(R) 98 program.  It is based on
 the Gaussian 94(TM) system (copyright 1995 Gaussian, Inc.),
 the Gaussian 92(TM) system (copyright 1992 Gaussian, Inc.),
 the Gaussian 90(TM) system (copyright 1990 Gaussian, Inc.),
 the Gaussian 88(TM) system (copyright 1988 Gaussian, Inc.),
 the Gaussian 86(TM) system (copyright 1986 Carnegie Mellon
 University), and the Gaussian 82(TM) system (copyright 1983
 Carnegie Mellon University). Gaussian is a federally registered
 trademark of Gaussian, Inc.
  
 This software contains proprietary and confidential information,
 including trade secrets, belonging to Gaussian, Inc.
  
 This software is provided under written license and may be
 used, copied, transmitted, or stored only in accord with that
 written license.
  
 The following legend is applicable only to US Government
 contracts under DFARS:
  
                    RESTRICTED RIGHTS LEGEND
  
 Use, duplication or disclosure by the US Government is subject
 to restrictions as set forth in subparagraph (c)(1)(ii) of the
 Rights in Technical Data and Computer Software clause at DFARS
 252.227-7013.
  
 Gaussian, Inc.
 Carnegie Office Park, Building 6, Pittsburgh, PA 15106 USA
  
 The following legend is applicable only to US Government
 contracts under FAR:
  
                    RESTRICTED RIGHTS LEGEND
  
 Use, reproduction and disclosure by the US Government is subject
 to restrictions as set forth in subparagraph (c) of the
 Commercial Computer Software - Restricted Rights clause at FAR
 52.227-19.
  
 Gaussian, Inc.
 Carnegie Office Park, Building 6, Pittsburgh, PA 15106 USA
  
  
 ---------------------------------------------------------------
 Warning -- This program may not be used in any manner that
 competes with the business of Gaussian, Inc. or will provide
 assistance to any competitor of Gaussian, Inc.  The licensee
 of this program is prohibited from giving any competitor of
 Gaussian, Inc. access to this program.  By using this program,
 the user acknowledges that Gaussian, Inc. is engaged in the
 business of creating and licensing software in the field of
 computational chemistry and represents and warrants to the
 licensee that it is not a competitor of Gaussian, Inc. and that
 it will not use this program in any manner prohibited above.
 ---------------------------------------------------------------
  

 Cite this work as:
 Gaussian 98, Revision A.6,
 M. J. Frisch, G. W. Trucks, H. B. Schlegel, G. E. Scuseria, 
 M. A. Robb, J. R. Cheeseman, V. G. Zakrzewski, J. A. Montgomery, Jr., 
 R. E. Stratmann, J. C. Burant, S. Dapprich, J. M. Millam, 
 A. D. Daniels, K. N. Kudin, M. C. Strain, O. Farkas, J. Tomasi, 
 V. Barone, M. Cossi, R. Cammi, B. Mennucci, C. Pomelli, C. Adamo, 
 S. Clifford, J. Ochterski, G. A. Petersson, P. Y. Ayala, Q. Cui, 
 K. Morokuma, D. K. Malick, A. D. Rabuck, K. Raghavachari, 
 J. B. Foresman, J. Cioslowski, J. V. Ortiz, B. B. Stefanov, G. Liu, 
 A. Liashenko, P. Piskorz, I. Komaromi, R. Gomperts, R. L. Martin, 
 D. J. Fox, T. Keith, M. A. Al-Laham, C. Y. Peng, A. Nanayakkara, 
 C. Gonzalez, M. Challacombe, P. M. W. Gill, B. Johnson, W. Chen, 
 M. W. Wong, J. L. Andres, C. Gonzalez, M. Head-Gordon, 
 E. S. Replogle, and J. A. Pople, 
 Gaussian, Inc., Pittsburgh PA, 1998.

 **********************************************
 Gaussian 98:  IBM-RS6000-G98RevA.6 19-Oct-1998
                   2-Jan-2001 
 **********************************************
 %mem=24000000
 -------------------
 #B3LYP/SDD opt freq
 -------------------
 1/14=-1,18=20,26=3,38=1/1,3;
 2/9=110,17=6,18=5/2;
 3/5=17,6=7,11=2,16=1,25=1,30=1/1,2,3;
 4/11=1/1;
 5/5=2,38=4,42=-5/2;
 6/7=2,8=2,9=2,10=2,28=1/1;
 7//1,2,3,16;
 1/14=-1,18=20/3(1);
 99//99;
 2/9=110/2;
 3/5=17,6=7,11=2,16=1,25=1,30=1/1,2,3;
 4/5=5,11=1,16=2/1;
 5/5=2,38=4,42=-5/2;
 7//1,2,3,16;
 1/14=-1,18=20/3(-5);
 2/9=110/2;
 6/7=2,8=2,9=2,10=2,19=2,28=1/1;
 99/9=1/99;
 -------------------------------
 1H pyrazole C3H4N2 casno=288131
 -------------------------------
 Symbolic Z-matrix:
 Charge =  0 Multiplicity = 1
 H                    -1.9125    0.       -0.75938 
 C                    -1.08438   0.       -0.21875 
 H                     0.43438   0.       -1.63125 
 C                     0.15      0.       -0.68438 
 H                     1.9125    0.        0.37188 
 C                     0.92188   0.        0.375 
 N                     0.18125   0.        1.41875 
 H                    -1.74063   0.        1.63125 
 N                    -1.00313   0.        1.05313 

 GradGradGradGradGradGradGradGradGradGradGradGradGradGradGradGradGradGrad
 Berny optimization.
 Initialization pass.
                         ----------------------------
                         !    Initial Parameters    !
                         ! (Angstroms and Degrees)  !
 ------------------------                            -------------------------
 ! Name  Definition              Value          Derivative Info.             !
 -----------------------------------------------------------------------------
 ! R1    R(1,2)                  0.989          estimate D2E/DX2             !
 ! R2    R(2,4)                  1.3193         estimate D2E/DX2             !
 ! R3    R(2,9)                  1.2745         estimate D2E/DX2             !
 ! R4    R(3,4)                  0.9887         estimate D2E/DX2             !
 ! R5    R(4,6)                  1.3108         estimate D2E/DX2             !
 ! R6    R(5,6)                  0.9906         estimate D2E/DX2             !
 ! R7    R(6,7)                  1.2798         estimate D2E/DX2             !
 ! R8    R(7,9)                  1.2395         estimate D2E/DX2             !
 ! R9    R(8,9)                  0.9371         estimate D2E/DX2             !
 ! A1    A(1,2,4)              126.195          estimate D2E/DX2             !
 ! A2    A(1,2,9)              126.7929         estimate D2E/DX2             !
 ! A3    A(4,2,9)              107.012          estimate D2E/DX2             !
 ! A4    A(2,4,3)              127.3838         estimate D2E/DX2             !
 ! A5    A(2,4,6)              105.4104         estimate D2E/DX2             !
 ! A6    A(3,4,6)              127.2058         estimate D2E/DX2             !
 ! A7    A(4,6,5)              125.8968         estimate D2E/DX2             !
 ! A8    A(4,6,7)              108.5636         estimate D2E/DX2             !
 ! A9    A(5,6,7)              125.5395         estimate D2E/DX2             !
 ! A10   A(6,7,9)              108.203          estimate D2E/DX2             !
 ! A11   A(2,9,7)              110.811          estimate D2E/DX2             !
 ! A12   A(2,9,8)              124.4376         estimate D2E/DX2             !
 ! A13   A(7,9,8)              124.7513         estimate D2E/DX2             !
 ! D1    D(1,2,4,3)              0.             estimate D2E/DX2             !
 ! D2    D(1,2,4,6)            180.             estimate D2E/DX2             !
 ! D3    D(9,2,4,3)            180.             estimate D2E/DX2             !
 ! D4    D(9,2,4,6)              0.             estimate D2E/DX2             !
 ! D5    D(1,2,9,7)            180.             estimate D2E/DX2             !
 ! D6    D(1,2,9,8)              0.             estimate D2E/DX2             !
 ! D7    D(4,2,9,7)              0.             estimate D2E/DX2             !
 ! D8    D(4,2,9,8)            180.             estimate D2E/DX2             !
 ! D9    D(2,4,6,5)            180.             estimate D2E/DX2             !
 ! D10   D(2,4,6,7)              0.             estimate D2E/DX2             !
 ! D11   D(3,4,6,5)              0.             estimate D2E/DX2             !
 ! D12   D(3,4,6,7)            180.             estimate D2E/DX2             !
 ! D13   D(4,6,7,9)              0.             estimate D2E/DX2             !
 ! D14   D(5,6,7,9)            180.             estimate D2E/DX2             !
 ! D15   D(6,7,9,2)              0.             estimate D2E/DX2             !
 ! D16   D(6,7,9,8)            180.             estimate D2E/DX2             !
 -----------------------------------------------------------------------------
 Trust Radius=3.00D-01 FncErr=1.00D-07 GrdErr=1.00D-06
 Number of steps in this run=  48 maximum allowed number of steps= 100.
 GradGradGradGradGradGradGradGradGradGradGradGradGradGradGradGradGradGrad

                          Input orientation:                          
 ---------------------------------------------------------------------
 Center     Atomic     Atomic              Coordinates (Angstroms)
 Number     Number      Type              X           Y           Z
 ---------------------------------------------------------------------
    1          1             0       -1.912500    0.000000   -0.759375
    2          6             0       -1.084375    0.000000   -0.218750
    3          1             0        0.434375    0.000000   -1.631250
    4          6             0        0.150000    0.000000   -0.684375
    5          1             0        1.912500    0.000000    0.371875
    6          6             0        0.921875    0.000000    0.375000
    7          7             0        0.181250    0.000000    1.418750
    8          1             0       -1.740625    0.000000    1.631250
    9          7             0       -1.003125    0.000000    1.053125
 ---------------------------------------------------------------------
                    Distance matrix (angstroms):
                    1          2          3          4          5
     1  H    0.000000
     2  C    0.988972   0.000000
     3  H    2.503595   2.074068   0.000000
     4  C    2.063863   1.319276   0.988656   0.000000
     5  H    3.988778   3.054521   2.489450   2.054768   0.000000
     6  C    3.052947   2.092266   2.064630   1.310750   0.990630
     7  N    3.021261   2.069592   3.060486   2.103357   2.023159
     8  H    2.396796   1.962948   3.921037   2.989412   3.864110
     9  N    2.027836   1.274468   3.045041   2.085331   2.994156
                    6          7          8          9
     6  C    0.000000
     7  N    1.279820   0.000000
     8  H    2.943989   1.933587   0.000000
     9  N    2.040950   1.239526   0.937088   0.000000
 Stoichiometry    C3H4N2
 Framework group  CS[SG(C3H4N2)]
 Deg. of freedom   15
 Full point group                 CS      NOp   2
 Largest Abelian subgroup         CS      NOp   2
 Largest concise Abelian subgroup C1      NOp   1
                         Standard orientation:                         
 ---------------------------------------------------------------------
 Center     Atomic     Atomic              Coordinates (Angstroms)
 Number     Number      Type              X           Y           Z
 ---------------------------------------------------------------------
    1          1             0        1.974407    0.585689    0.000000
    2          6             0        1.028833    0.295936    0.000000
    3          1             0        1.140941   -1.775099    0.000000
    4          6             0        0.595873   -0.950271    0.000000
    5          1             0       -1.344123   -1.627388    0.000000
    6          6             0       -0.712074   -0.864589    0.000000
    7          7             0       -1.039336    0.372682    0.000000
    8          1             0        0.028336    1.984773    0.000000
    9          7             0        0.000000    1.048113    0.000000
 ---------------------------------------------------------------------
 Rotational constants (GHZ):     11.1878032     10.4520048      5.4036973
 Isotopes: H-1,C-12,H-1,C-12,H-1,C-12,N-14,H-1,N-14
 Standard basis: SDD (6D, 10F)
 There are    48 symmetry adapted basis functions of A'  symmetry.
 There are    10 symmetry adapted basis functions of A"  symmetry.
 Crude estimate of integral set expansion from redundant integrals=1.000.
 Integral buffers will be    262144 words long.
 Raffenetti 2 integral format.
 Two-electron integral symmetry is turned on.
    58 basis functions      136 primitive gaussians
    18 alpha electrons       18 beta electrons
       nuclear repulsion energy       173.7391879471 Hartrees.
 One-electron integrals computed using PRISM.
   1 Symmetry operations used in ECPInt.
 ECPInt:  NShTT=     741 NPrTT=    3858 LenC2=     742 LenP2D=    3130.
 LDataN:  DoStor=F MaxTD1= 2 Len=   12
 LDataN:  DoStor=T MaxTD1= 2 Len=   12
 NBasis=    58 RedAO= T  NBF=    48    10
 NBsUse=    58 1.00D-04 NBFU=    48    10
 Projected Huckel Guess.
 Initial guess orbital symmetries:
       Occupied  (A') (A') (A') (A') (A') (A') (A') (A') (A') (A')
                 (A') (A") (A') (A') (A') (A') (A") (A")
       Virtual   (A") (A") (A') (A') (A') (A') (A') (A') (A') (A')
                 (A') (A') (A') (A') (A') (A') (A') (A') (A') (A')
                 (A') (A') (A') (A') (A') (A') (A') (A') (A') (A')
                 (A') (A') (A') (A') (A') (A") (A") (A") (A") (A")
 Requested convergence on RMS density matrix=1.00D-08 within  64 cycles.
 Requested convergence on MAX density matrix=1.00D-06.
 Keep R1 and R2 integrals in memory in canonical form, NReq=     3345028.
 Integral accuracy reduced to 1.0D-05 until final iterations.
 Initial convergence to 1.0D-05 achieved.  Increase integral accuracy.
 SCF Done:  E(RB+HF-LYP) =  -226.071989604     A.U. after   16 cycles
             Convg  =    0.7616D-08             -V/T =  1.9964
             S**2   =   0.0000

 **********************************************************************

            Population analysis using the SCF density.

 **********************************************************************

 Orbital Symmetries:
       Occupied  (A') (A') (A') (A') (A') (A') (A') (A') (A') (A')
                 (A') (A') (A") (A') (A') (A") (A') (A")
       Virtual   (A") (A") (A') (A') (A') (A') (A') (A') (A') (A")
                 (A") (A') (A') (A") (A') (A') (A') (A') (A') (A")
                 (A") (A') (A') (A') (A') (A') (A') (A') (A') (A')
                 (A') (A') (A') (A') (A') (A') (A') (A') (A') (A')
  The electronic state is 1-A'.
 Alpha  occ. eigenvalues --  -14.40544 -14.33441 -10.20157 -10.18120 -10.15802
 Alpha  occ. eigenvalues --   -1.14446  -0.86361  -0.82136  -0.65925  -0.63208
 Alpha  occ. eigenvalues --   -0.57502  -0.48924  -0.48902  -0.44683  -0.41249
 Alpha  occ. eigenvalues --   -0.28225  -0.26400  -0.25609
 Alpha virt. eigenvalues --    0.03801   0.08821   0.09410   0.15529   0.16852
 Alpha virt. eigenvalues --    0.19423   0.21510   0.25277   0.26884   0.29818
 Alpha virt. eigenvalues --    0.35346   0.35566   0.38718   0.41432   0.41930
 Alpha virt. eigenvalues --    0.44680   0.46811   0.49945   0.52474   0.53797
 Alpha virt. eigenvalues --    0.62299   0.62428   0.68289   0.72281   0.81852
 Alpha virt. eigenvalues --    0.82744   0.86455   0.91295   0.94748   1.12364
 Alpha virt. eigenvalues --    1.18349   1.25611   1.29814   1.48759   1.51599
 Alpha virt. eigenvalues --   22.59937  22.82505  23.03363  31.64880  31.86914
          Condensed to atoms (all electrons):
              1          2          3          4          5          6
  1  H    0.373879   0.313840   0.001466  -0.001410   0.000027   0.006574
  2  C    0.313840   5.580613  -0.023696   0.595792   0.006567  -0.175046
  3  H    0.001466  -0.023696   0.375752   0.326048   0.001318   0.002473
  4  C   -0.001410   0.595792   0.326048   5.152016  -0.030529   0.498673
  5  H    0.000027   0.006567   0.001318  -0.030529   0.378569   0.349642
  6  C    0.006574  -0.175046   0.002473   0.498673   0.349642   5.238083
  7  N    0.004173  -0.193746   0.007943  -0.089740  -0.013677   0.692043
  8  H    0.004092  -0.118383   0.000118   0.011689  -0.000080   0.002424
  9  N   -0.006654   0.349837   0.009294  -0.114126   0.007366  -0.213307
              7          8          9
  1  H    0.004173   0.004092  -0.006654
  2  C   -0.193746  -0.118383   0.349837
  3  H    0.007943   0.000118   0.009294
  4  C   -0.089740   0.011689  -0.114126
  5  H   -0.013677  -0.000080   0.007366
  6  C    0.692043   0.002424  -0.213307
  7  N    6.246781  -0.041670   0.403456
  8  H   -0.041670   0.520858   0.293440
  9  N    0.403456   0.293440   6.400988
 Total atomic charges:
              1
  1  H    0.304012
  2  C   -0.335778
  3  H    0.299284
  4  C   -0.348412
  5  H    0.300797
  6  C   -0.401559
  7  N   -0.015562
  8  H    0.327513
  9  N   -0.130295
 Sum of Mulliken charges=   0.00000
 Atomic charges with hydrogens summed into heavy atoms:
              1
  1  H    0.000000
  2  C   -0.031766
  3  H    0.000000
  4  C   -0.049128
  5  H    0.000000
  6  C   -0.100761
  7  N   -0.015562
  8  H    0.000000
  9  N    0.197218
 Sum of Mulliken charges=   0.00000
 Electronic spatial extent (au):  <R**2>=   259.2334
 Charge=     0.0000 electrons
 Dipole moment (Debye):
    X=     2.3420    Y=     0.9609    Z=     0.0000  Tot=     2.5314
 Quadrupole moment (Debye-Ang):
   XX=   -30.5281   YY=   -21.8877   ZZ=   -30.8131
   XY=     2.6979   XZ=     0.0000   YZ=     0.0000
 Octapole moment (Debye-Ang**2):
  XXX=     9.7303  YYY=    10.4273  ZZZ=     0.0000  XYY=     0.8042
  XXY=    -2.8201  XXZ=     0.0000  XZZ=    -0.8821  YZZ=     2.2006
  YYZ=     0.0000  XYZ=     0.0000
 Hexadecapole moment (Debye-Ang**3):
 XXXX=  -152.2494 YYYY=  -118.6413 ZZZZ=   -31.6515 XXXY=     8.1167
 XXXZ=     0.0000 YYYX=    -0.2758 YYYZ=     0.0000 ZZZX=     0.0000
 ZZZY=     0.0000 XXYY=   -46.1636 XXZZ=   -33.4807 YYZZ=   -32.9833
 XXYZ=     0.0000 YYXZ=     0.0000 ZZXY=    -0.2899
 N-N= 1.737391879471D+02 E-N=-8.746782212161D+02  KE= 2.268777909890D+02
 Symmetry A'   KE= 2.184455612152D+02
 Symmetry A"   KE= 8.432229773800D+00
   2 Symmetry operations used in ECPInt.
 ECPInt:  NShTT=     741 NPrTT=    3858 LenC2=     742 LenP2D=    3130.
 LDataN:  DoStor=F MaxTD1= 3 Len=   28
 LDataN:  DoStor=T MaxTD1= 3 Len=   28
 ***** Axes restored to original set *****
 -------------------------------------------------------------------
 Center     Atomic                   Forces (Hartrees/Bohr)
 Number     Number              X              Y              Z
 -------------------------------------------------------------------
    1          1          -0.074518637    0.000000000   -0.039319990
    2          6          -0.038960767    0.000000000   -0.073553526
    3          1           0.021831028    0.000000000   -0.080804444
    4          6          -0.007844620    0.000000000   -0.066078993
    5          1           0.081836309    0.000000000    0.010631500
    6          6           0.041772674    0.000000000    0.015978444
    7          7           0.107827841    0.000000000    0.164586866
    8          1          -0.058799715    0.000000000    0.061028159
    9          7          -0.073144115    0.000000000    0.007531983
 -------------------------------------------------------------------
 Cartesian Forces:  Max     0.164586866 RMS     0.056298104

 GradGradGradGradGradGradGradGradGradGradGradGradGradGradGradGradGradGrad
 Berny optimization.
 Internal  Forces:  Max     0.159594715 RMS     0.055462669
 Search for a local minimum.
 Step number   1 out of a maximum of  48
 All quantities printed in internal units (Hartrees-Bohrs-Radians)
 Second derivative matrix not updated -- first step.
     Eigenvalues ---    0.03204   0.03245   0.03263   0.03273   0.03342
     Eigenvalues ---    0.03375   0.16000   0.16000   0.16000   0.16000
     Eigenvalues ---    0.22000   0.22938   0.49374   0.49681   0.49740
     Eigenvalues ---    0.56490   0.56686   0.60708   0.68179   0.73042
     Eigenvalues ---    0.827791000.000001000.000001000.000001000.00000
     Eigenvalues --- 1000.000001000.000001000.000001000.000001000.00000
     Eigenvalues --- 1000.000001000.000001000.000001000.000001000.00000
     Eigenvalues --- 1000.000001000.000001000.00000
 RFO step:  Lambda=-1.46023637D-01.
 Linear search not attempted -- first point.
 Maximum step size (   0.300) exceeded in Quadratic search.
    -- Step size scaled by   0.686
 Iteration  1 RMS(Cart)=  0.06423299 RMS(Int)=  0.00056382
 Iteration  2 RMS(Cart)=  0.00068485 RMS(Int)=  0.00000802
 Iteration  3 RMS(Cart)=  0.00000032 RMS(Int)=  0.00000801
 Variable       Old X    -DE/DX   Delta X   Delta X   Delta X     New X
                                 (Linear)    (Quad)   (Total)
    R1        1.86889   0.08389   0.00000   0.08957   0.08957   1.95846
    R2        2.49307   0.10166   0.00000   0.08832   0.08831   2.58138
    R3        2.40839   0.13765   0.00000   0.10773   0.10771   2.51611
    R4        1.86829   0.08367   0.00000   0.08925   0.08925   1.95754
    R5        2.47696   0.14956   0.00000   0.12632   0.12632   2.60328
    R6        1.87202   0.08180   0.00000   0.08776   0.08776   1.95978
    R7        2.41851   0.10041   0.00000   0.07884   0.07886   2.49737
    R8        2.34237   0.15959   0.00000   0.11067   0.11067   2.45304
    R9        1.77084   0.08393   0.00000   0.07649   0.07649   1.84733
    A1        2.20252   0.01164   0.00000   0.02540   0.02541   2.22793
    A2        2.21295  -0.00296   0.00000  -0.00736  -0.00735   2.20560
    A3        1.86771  -0.00868   0.00000  -0.01804  -0.01806   1.84965
    A4        2.22327  -0.00508   0.00000  -0.00366  -0.00366   2.21961
    A5        1.83976   0.00579   0.00000  -0.00248  -0.00249   1.83727
    A6        2.22016  -0.00071   0.00000   0.00614   0.00615   2.22631
    A7        2.19731   0.00205   0.00000   0.01140   0.01139   2.20870
    A8        1.89479   0.01628   0.00000   0.02290   0.02292   1.91771
    A9        2.19108  -0.01833   0.00000  -0.03430  -0.03431   2.15677
   A10        1.88850  -0.02485   0.00000  -0.03384  -0.03382   1.85468
   A11        1.93402   0.01146   0.00000   0.03146   0.03145   1.96547
   A12        2.17185   0.00468   0.00000   0.00762   0.00763   2.17947
   A13        2.17732  -0.01614   0.00000  -0.03908  -0.03908   2.13824
    D1        0.00000   0.00000   0.00000   0.00000   0.00000   0.00000
    D2        3.14159   0.00000   0.00000   0.00000   0.00000   3.14159
    D3        3.14159   0.00000   0.00000   0.00000   0.00000   3.14159
    D4        0.00000   0.00000   0.00000   0.00000   0.00000   0.00000
    D5        3.14159   0.00000   0.00000   0.00000   0.00000   3.14159
    D6        0.00000   0.00000   0.00000   0.00000   0.00000   0.00000
    D7        0.00000   0.00000   0.00000   0.00000   0.00000   0.00000
    D8        3.14159   0.00000   0.00000   0.00000   0.00000   3.14159
    D9        3.14159   0.00000   0.00000   0.00000   0.00000   3.14159
   D10        0.00000   0.00000   0.00000   0.00000   0.00000   0.00000
   D11        0.00000   0.00000   0.00000   0.00000   0.00000   0.00000
   D12        3.14159   0.00000   0.00000   0.00000   0.00000   3.14159
   D13        0.00000   0.00000   0.00000   0.00000   0.00000   0.00000
   D14        3.14159   0.00000   0.00000   0.00000   0.00000   3.14159
   D15        0.00000   0.00000   0.00000   0.00000   0.00000   0.00000
   D16        3.14159   0.00000   0.00000   0.00000   0.00000   3.14159
         Item               Value     Threshold  Converged?
 Maximum Force            0.159595     0.000450     NO 
 RMS     Force            0.055463     0.000300     NO 
 Maximum Displacement     0.168765     0.001800     NO 
 RMS     Displacement     0.064187     0.001200     NO 
 Predicted change in Energy=-2.782412D-02
 GradGradGradGradGradGradGradGradGradGradGradGradGradGradGradGradGradGrad

                          Input orientation:                          
 ---------------------------------------------------------------------
 Center     Atomic     Atomic              Coordinates (Angstroms)
 Number     Number      Type              X           Y           Z
 ---------------------------------------------------------------------
    1          1             0       -1.803630    0.000000   -1.182990
    2          6             0       -0.924744    0.000000   -0.633783
    3          1             0        0.655880    0.000000   -2.100311
    4          6             0        0.356021    0.000000   -1.108774
    5          1             0        2.195195    0.000000    0.028028
    6          6             0        1.158262    0.000000    0.011130
    7          7             0        0.409585    0.000000    1.100155
    8          1             0       -1.580333    0.000000    1.312264
    9          7             0       -0.823268    0.000000    0.693812
 ---------------------------------------------------------------------
                    Distance matrix (angstroms):
                    1          2          3          4          5
     1  H    0.000000
     2  C    1.036373   0.000000
     3  H    2.625008   2.156173   0.000000
     4  C    2.160926   1.366008   1.035887   0.000000
     5  H    4.178177   3.189359   2.626655   2.162146   0.000000
     6  C    3.193544   2.180556   2.170385   1.377597   1.037071
     7  N    3.179791   2.187916   3.209930   2.209579   2.082752
     8  H    2.505226   2.053508   4.079991   3.100144   3.987966
     9  N    2.117426   1.331467   3.161488   2.154075   3.091017
                    6          7          8          9
     6  C    0.000000
     7  N    1.321549   0.000000
     8  H    3.031972   2.001191   0.000000
     9  N    2.095832   1.298092   0.977564   0.000000
 Stoichiometry    C3H4N2
 Framework group  CS[SG(C3H4N2)]
 Deg. of freedom   15
 Full point group                 CS      NOp   2
 Largest Abelian subgroup         CS      NOp   2
 Largest concise Abelian subgroup C1      NOp   1
                         Standard orientation:                         
 ---------------------------------------------------------------------
 Center     Atomic     Atomic              Coordinates (Angstroms)
 Number     Number      Type              X           Y           Z
 ---------------------------------------------------------------------
    1          1             0        2.069744    0.628090    0.000000
    2          6             0        1.085424    0.303772    0.000000
    3          1             0        1.201754   -1.849260    0.000000
    4          6             0        0.631355   -0.984559    0.000000
    5          1             0       -1.418860   -1.671214    0.000000
    6          6             0       -0.742635   -0.884935    0.000000
    7          7             0       -1.100904    0.387125    0.000000
    8          1             0        0.008825    2.052438    0.000000
    9          7             0        0.000000    1.074914    0.000000
 ---------------------------------------------------------------------
 Rotational constants (GHZ):     10.0561539      9.8484031      4.9755972
 Isotopes: H-1,C-12,H-1,C-12,H-1,C-12,N-14,H-1,N-14
 Standard basis: SDD (6D, 10F)
 There are    48 symmetry adapted basis functions of A'  symmetry.
 There are    10 symmetry adapted basis functions of A"  symmetry.
 Crude estimate of integral set expansion from redundant integrals=1.000.
 Integral buffers will be    262144 words long.
 Raffenetti 2 integral format.
 Two-electron integral symmetry is turned on.
    58 basis functions      136 primitive gaussians
    18 alpha electrons       18 beta electrons
       nuclear repulsion energy       166.6673063120 Hartrees.
 One-electron integrals computed using PRISM.
   1 Symmetry operations used in ECPInt.
 ECPInt:  NShTT=     741 NPrTT=    3858 LenC2=     740 LenP2D=    3101.
 LDataN:  DoStor=F MaxTD1= 2 Len=   12
 LDataN:  DoStor=T MaxTD1= 2 Len=   12
 NBasis=    58 RedAO= T  NBF=    48    10
 NBsUse=    58 1.00D-04 NBFU=    48    10
 Initial guess read from the read-write file:
 Initial guess orbital symmetries:
       Occupied  (A') (A') (A') (A') (A') (A') (A') (A') (A') (A')
                 (A') (A') (A") (A') (A') (A") (A') (A")
       Virtual   (A") (A") (A') (A') (A') (A') (A') (A') (A') (A")
                 (A") (A') (A') (A") (A') (A') (A') (A') (A') (A")
                 (A") (A') (A') (A') (A') (A') (A') (A') (A') (A')
                 (A') (A') (A') (A') (A') (A') (A') (A') (A') (A')
 Requested convergence on RMS density matrix=1.00D-08 within  64 cycles.
 Requested convergence on MAX density matrix=1.00D-06.
 Keep R1 and R2 integrals in memory in canonical form, NReq=     3345028.
 Integral accuracy reduced to 1.0D-05 until final iterations.
 Initial convergence to 1.0D-05 achieved.  Increase integral accuracy.
 SCF Done:  E(RB+HF-LYP) =  -226.140850876     A.U. after   14 cycles
             Convg  =    0.7119D-08             -V/T =  2.0016
             S**2   =   0.0000
   2 Symmetry operations used in ECPInt.
 ECPInt:  NShTT=     741 NPrTT=    3858 LenC2=     740 LenP2D=    3101.
 LDataN:  DoStor=F MaxTD1= 3 Len=   28
 LDataN:  DoStor=T MaxTD1= 3 Len=   28
 ***** Axes restored to original set *****
 -------------------------------------------------------------------
 Center     Atomic                   Forces (Hartrees/Bohr)
 Number     Number              X              Y              Z
 -------------------------------------------------------------------
    1          1          -0.032815824    0.000000000   -0.012703905
    2          6          -0.004522081    0.000000000   -0.031423343
    3          1           0.009445330    0.000000000   -0.033740651
    4          6          -0.003206490    0.000000000   -0.019499371
    5          1           0.034042868    0.000000000    0.007464415
    6          6           0.010817982    0.000000000   -0.002924066
    7          7           0.053009187    0.000000000    0.070369745
    8          1          -0.020402038    0.000000000    0.026856425
    9          7          -0.046368933    0.000000000   -0.004399248
 -------------------------------------------------------------------
 Cartesian Forces:  Max     0.070369745 RMS     0.024550271

 GradGradGradGradGradGradGradGradGradGradGradGradGradGradGradGradGradGrad
 Berny optimization.
 Internal  Forces:  Max     0.072385243 RMS     0.022534242
 Search for a local minimum.
 Step number   2 out of a maximum of  48
 All quantities printed in internal units (Hartrees-Bohrs-Radians)
 Update second derivatives using information from points  1  2
 Trust test= 2.47D+00 RLast= 3.00D-01 DXMaxT set to 4.24D-01
     Eigenvalues ---    0.03204   0.03246   0.03261   0.03273   0.03342
     Eigenvalues ---    0.03375   0.15923   0.16000   0.16000   0.16012
     Eigenvalues ---    0.22026   0.23245   0.49455   0.49711   0.50488
     Eigenvalues ---    0.57245   0.58467   0.61612   0.68430   0.75149
     Eigenvalues ---    0.807791000.000001000.000001000.000001000.00000
     Eigenvalues --- 1000.000001000.000001000.000001000.000001000.00000
     Eigenvalues --- 1000.000001000.000001000.000001000.000001000.00000
     Eigenvalues --- 1000.000001000.000001000.00000
 RFO step:  Lambda=-3.22709364D-03.
 Quartic linear search produced a step of  0.92251.
 Iteration  1 RMS(Cart)=  0.06593078 RMS(Int)=  0.00158425
 Iteration  2 RMS(Cart)=  0.00195096 RMS(Int)=  0.00008698
 Iteration  3 RMS(Cart)=  0.00000344 RMS(Int)=  0.00008692
 Iteration  4 RMS(Cart)=  0.00000000 RMS(Int)=  0.00008692
 Variable       Old X    -DE/DX   Delta X   Delta X   Delta X     New X
                                 (Linear)    (Quad)   (Total)
    R1        1.95846   0.03456   0.08263   0.00845   0.09109   2.04955
    R2        2.58138   0.03850   0.08147  -0.00905   0.07227   2.65365
    R3        2.51611   0.05254   0.09937  -0.00904   0.09026   2.60637
    R4        1.95754   0.03503   0.08234   0.01055   0.09289   2.05043
    R5        2.60328   0.05471   0.11653  -0.01900   0.09752   2.70080
    R6        1.95978   0.03416   0.08096   0.01021   0.09117   2.05095
    R7        2.49737   0.04054   0.07275  -0.00110   0.07178   2.56915
    R8        2.45304   0.07239   0.10210   0.01433   0.11652   2.56956
    R9        1.84733   0.03279   0.07056  -0.00216   0.06841   1.91573
    A1        2.22793   0.00685   0.02344   0.04485   0.06840   2.29634
    A2        2.20560  -0.00612  -0.00678  -0.05843  -0.06510   2.14051
    A3        1.84965  -0.00073  -0.01666   0.01358  -0.00331   1.84634
    A4        2.21961  -0.00234  -0.00337   0.00265  -0.00064   2.21898
    A5        1.83727   0.00324  -0.00230  -0.00733  -0.00981   1.82746
    A6        2.22631  -0.00091   0.00567   0.00469   0.01045   2.23675
    A7        2.20870   0.00289   0.01051   0.03890   0.04936   2.25807
    A8        1.91771   0.00776   0.02114   0.01262   0.03385   1.95156
    A9        2.15677  -0.01065  -0.03165  -0.05152  -0.08321   2.07356
   A10        1.85468  -0.01111  -0.03119  -0.00843  -0.03932   1.81537
   A11        1.96547   0.00083   0.02901  -0.01044   0.01859   1.98405
   A12        2.17947   0.00688   0.00704   0.05588   0.06291   2.24238
   A13        2.13824  -0.00771  -0.03605  -0.04544  -0.08150   2.05675
    D1        0.00000   0.00000   0.00000   0.00000   0.00000   0.00000
    D2        3.14159   0.00000   0.00000   0.00000   0.00000   3.14159
    D3        3.14159   0.00000   0.00000   0.00000   0.00000   3.14159
    D4        0.00000   0.00000   0.00000   0.00000   0.00000   0.00000
    D5        3.14159   0.00000   0.00000   0.00000   0.00000   3.14159
    D6        0.00000   0.00000   0.00000   0.00000   0.00000   0.00000
    D7        0.00000   0.00000   0.00000   0.00000   0.00000   0.00000
    D8        3.14159   0.00000   0.00000   0.00000   0.00000   3.14159
    D9        3.14159   0.00000   0.00000   0.00000   0.00000   3.14159
   D10        0.00000   0.00000   0.00000   0.00000   0.00000   0.00000
   D11        0.00000   0.00000   0.00000   0.00000   0.00000   0.00000
   D12        3.14159   0.00000   0.00000   0.00000   0.00000   3.14159
   D13        0.00000   0.00000   0.00000   0.00000   0.00000   0.00000
   D14        3.14159   0.00000   0.00000   0.00000   0.00000   3.14159
   D15        0.00000   0.00000   0.00000   0.00000   0.00000   0.00000
   D16        3.14159   0.00000   0.00000   0.00000   0.00000   3.14159
         Item               Value     Threshold  Converged?
 Maximum Force            0.072385     0.000450     NO 
 RMS     Force            0.022534     0.000300     NO 
 Maximum Displacement     0.190801     0.001800     NO 
 RMS     Displacement     0.065866     0.001200     NO 
 Predicted change in Energy=-2.699987D-02
 GradGradGradGradGradGradGradGradGradGradGradGradGradGradGradGradGradGrad

                          Input orientation:                          
 ---------------------------------------------------------------------
 Center     Atomic     Atomic              Coordinates (Angstroms)
 Number     Number      Type              X           Y           Z
 ---------------------------------------------------------------------
    1          1             0       -1.907613    0.000000   -1.200382
    2          6             0       -0.953480    0.000000   -0.684700
    3          1             0        0.684767    0.000000   -2.202980
    4          6             0        0.365753    0.000000   -1.165896
    5          1             0        2.262064    0.000000    0.096126
    6          6             0        1.180294    0.000000    0.008471
    7          7             0        0.431130    0.000000    1.142971
    8          1             0       -1.595871    0.000000    1.378635
    9          7             0       -0.851217    0.000000    0.690736
 ---------------------------------------------------------------------
                    Distance matrix (angstroms):
                    1          2          3          4          5
     1  H    0.000000
     2  C    1.084573   0.000000
     3  H    2.779503   2.233613   0.000000
     4  C    2.273628   1.404252   1.085041   0.000000
     5  H    4.366593   3.308989   2.788145   2.277870   0.000000
     6  C    3.316096   2.243541   2.266289   1.429201   1.085315
     7  N    3.310744   2.292930   3.355551   2.309793   2.109077
     8  H    2.597790   2.161023   4.246090   3.212882   4.065525
     9  N    2.166172   1.379233   3.276102   2.219932   3.169555
                    6          7          8          9
     6  C    0.000000
     7  N    1.359536   0.000000
     8  H    3.095875   2.040655   0.000000
     9  N    2.143017   1.359754   1.013763   0.000000
 Stoichiometry    C3H4N2
 Framework group  CS[SG(C3H4N2)]
 Deg. of freedom   15
 Full point group                 CS      NOp   2
 Largest Abelian subgroup         CS      NOp   2
 Largest concise Abelian subgroup C1      NOp   1
                         Standard orientation:                         
 ---------------------------------------------------------------------
 Center     Atomic     Atomic              Coordinates (Angstroms)
 Number     Number      Type              X           Y           Z
 ---------------------------------------------------------------------
    1          1             0        2.133391    0.724591    0.000000
    2          6             0        1.130952    0.310567    0.000000
    3          1             0        1.273337   -1.918503    0.000000
    4          6             0        0.670786   -1.016147    0.000000
    5          1             0       -1.505367   -1.689240    0.000000
    6          6             0       -0.754158   -0.905918    0.000000
    7          7             0       -1.160550    0.391458    0.000000
    8          1             0       -0.062994    2.111820    0.000000
    9          7             0        0.000000    1.100016    0.000000
 ---------------------------------------------------------------------
 Rotational constants (GHZ):      9.3968719      9.1556651      4.6373503
 Isotopes: H-1,C-12,H-1,C-12,H-1,C-12,N-14,H-1,N-14
 Standard basis: SDD (6D, 10F)
 There are    48 symmetry adapted basis functions of A'  symmetry.
 There are    10 symmetry adapted basis functions of A"  symmetry.
 Crude estimate of integral set expansion from redundant integrals=1.000.
 Integral buffers will be    262144 words long.
 Raffenetti 2 integral format.
 Two-electron integral symmetry is turned on.
    58 basis functions      136 primitive gaussians
    18 alpha electrons       18 beta electrons
       nuclear repulsion energy       160.8261600439 Hartrees.
 One-electron integrals computed using PRISM.
   1 Symmetry operations used in ECPInt.
 ECPInt:  NShTT=     741 NPrTT=    3858 LenC2=     739 LenP2D=    3081.
 LDataN:  DoStor=F MaxTD1= 2 Len=   12
 LDataN:  DoStor=T MaxTD1= 2 Len=   12
 NBasis=    58 RedAO= T  NBF=    48    10
 NBsUse=    58 1.00D-04 NBFU=    48    10
 Initial guess read from the read-write file:
 Initial guess orbital symmetries:
       Occupied  (A') (A') (A') (A') (A') (A') (A') (A') (A') (A')
                 (A') (A') (A") (A') (A') (A') (A") (A")
       Virtual   (A") (A") (A') (A') (A') (A') (A') (A') (A') (A")
                 (A') (A") (A') (A') (A") (A') (A') (A') (A') (A")
                 (A') (A') (A") (A') (A') (A') (A') (A') (A') (A')
                 (A') (A') (A') (A') (A') (A') (A') (A') (A') (A')
 Requested convergence on RMS density matrix=1.00D-08 within  64 cycles.
 Requested convergence on MAX density matrix=1.00D-06.
 Keep R1 and R2 integrals in memory in canonical form, NReq=     3345028.
 Integral accuracy reduced to 1.0D-05 until final iterations.
 Initial convergence to 1.0D-05 achieved.  Increase integral accuracy.
 SCF Done:  E(RB+HF-LYP) =  -226.159300091     A.U. after   14 cycles
             Convg  =    0.8876D-08             -V/T =  2.0053
             S**2   =   0.0000
   2 Symmetry operations used in ECPInt.
 ECPInt:  NShTT=     741 NPrTT=    3858 LenC2=     739 LenP2D=    3081.
 LDataN:  DoStor=F MaxTD1= 3 Len=   28
 LDataN:  DoStor=T MaxTD1= 3 Len=   28
 ***** Axes restored to original set *****
 -------------------------------------------------------------------
 Center     Atomic                   Forces (Hartrees/Bohr)
 Number     Number              X              Y              Z
 -------------------------------------------------------------------
    1          1           0.003257962    0.000000000    0.001854592
    2          6           0.002851607    0.000000000   -0.002819194
    3          1          -0.000965923    0.000000000    0.004278881
    4          6          -0.003905807    0.000000000    0.000681463
    5          1          -0.003495826    0.000000000   -0.001564189
    6          6           0.006451001    0.000000000    0.001201698
    7          7           0.014771833    0.000000000   -0.000667865
    8          1           0.001050354    0.000000000   -0.003544382
    9          7          -0.020015202    0.000000000    0.000578997
 -------------------------------------------------------------------
 Cartesian Forces:  Max     0.020015202 RMS     0.005291798

 GradGradGradGradGradGradGradGradGradGradGradGradGradGradGradGradGradGrad
 Berny optimization.
 Internal  Forces:  Max     0.015211012 RMS     0.003210846
 Search for a local minimum.
 Step number   3 out of a maximum of  48
 All quantities printed in internal units (Hartrees-Bohrs-Radians)
 Update second derivatives using information from points  2  3
 Trust test= 6.83D-01 RLast= 3.22D-01 DXMaxT set to 4.24D-01
     Eigenvalues ---    0.03203   0.03247   0.03252   0.03273   0.03342
     Eigenvalues ---    0.03372   0.15500   0.16000   0.16003   0.16024
     Eigenvalues ---    0.22076   0.23255   0.46642   0.49502   0.49715
     Eigenvalues ---    0.57558   0.58931   0.59540   0.64636   0.68642
     Eigenvalues ---    0.806991000.000001000.000001000.000001000.00000
     Eigenvalues --- 1000.000001000.000001000.000001000.000001000.00000
     Eigenvalues --- 1000.000001000.000001000.000001000.000001000.00000
     Eigenvalues --- 1000.000001000.000001000.00000
 RFO step:  Lambda=-6.93060341D-04.
 Quartic linear search produced a step of -0.02456.
 Iteration  1 RMS(Cart)=  0.00886530 RMS(Int)=  0.00003942
 Iteration  2 RMS(Cart)=  0.00004224 RMS(Int)=  0.00000878
 Iteration  3 RMS(Cart)=  0.00000000 RMS(Int)=  0.00000878
 Variable       Old X    -DE/DX   Delta X   Delta X   Delta X     New X
                                 (Linear)    (Quad)   (Total)
    R1        2.04955  -0.00375  -0.00224  -0.00423  -0.00646   2.04308
    R2        2.65365  -0.00344  -0.00177  -0.00427  -0.00603   2.64762
    R3        2.60637  -0.00175  -0.00222   0.00182  -0.00039   2.60599
    R4        2.05043  -0.00437  -0.00228  -0.00541  -0.00769   2.04274
    R5        2.70080  -0.00084  -0.00239   0.00093  -0.00147   2.69933
    R6        2.05095  -0.00361  -0.00224  -0.00403  -0.00626   2.04468
    R7        2.56915  -0.00131  -0.00176   0.00133  -0.00045   2.56870
    R8        2.56956   0.01521  -0.00286   0.02252   0.01966   2.58922
    R9        1.91573  -0.00318  -0.00168  -0.00260  -0.00428   1.91146
    A1        2.29634  -0.00082  -0.00168  -0.00066  -0.00235   2.29399
    A2        2.14051  -0.00100   0.00160  -0.00425  -0.00266   2.13785
    A3        1.84634   0.00182   0.00008   0.00490   0.00501   1.85135
    A4        2.21898  -0.00187   0.00002  -0.00309  -0.00308   2.21590
    A5        1.82746   0.00441   0.00024   0.01000   0.01024   1.83770
    A6        2.23675  -0.00255  -0.00026  -0.00690  -0.00716   2.22959
    A7        2.25807  -0.00035  -0.00121  -0.00134  -0.00254   2.25552
    A8        1.95156  -0.00192  -0.00083  -0.01056  -0.01141   1.94015
    A9        2.07356   0.00227   0.00204   0.01190   0.01395   2.08751
   A10        1.81537   0.00062   0.00097   0.01009   0.01104   1.82640
   A11        1.98405  -0.00493  -0.00046  -0.01443  -0.01488   1.96918
   A12        2.24238   0.00066  -0.00154  -0.00231  -0.00386   2.23852
   A13        2.05675   0.00427   0.00200   0.01674   0.01874   2.07549
    D1        0.00000   0.00000   0.00000   0.00000   0.00000   0.00000
    D2        3.14159   0.00000   0.00000   0.00000   0.00000   3.14159
    D3        3.14159   0.00000   0.00000   0.00000   0.00000   3.14159
    D4        0.00000   0.00000   0.00000   0.00000   0.00000   0.00000
    D5        3.14159   0.00000   0.00000   0.00000   0.00000   3.14159
    D6        0.00000   0.00000   0.00000   0.00000   0.00000   0.00000
    D7        0.00000   0.00000   0.00000   0.00000   0.00000   0.00000
    D8        3.14159   0.00000   0.00000   0.00000   0.00000   3.14159
    D9        3.14159   0.00000   0.00000   0.00000   0.00000   3.14159
   D10        0.00000   0.00000   0.00000   0.00000   0.00000   0.00000
   D11        0.00000   0.00000   0.00000   0.00000   0.00000   0.00000
   D12        3.14159   0.00000   0.00000   0.00000   0.00000   3.14159
   D13        0.00000   0.00000   0.00000   0.00000   0.00000   0.00000
   D14        3.14159   0.00000   0.00000   0.00000   0.00000   3.14159
   D15        0.00000   0.00000   0.00000   0.00000   0.00000   0.00000
   D16        3.14159   0.00000   0.00000   0.00000   0.00000   3.14159
         Item               Value     Threshold  Converged?
 Maximum Force            0.015211     0.000450     NO 
 RMS     Force            0.003211     0.000300     NO 
 Maximum Displacement     0.026687     0.001800     NO 
 RMS     Displacement     0.008859     0.001200     NO 
 Predicted change in Energy=-3.581370D-04
 GradGradGradGradGradGradGradGradGradGradGradGradGradGradGradGradGradGrad

                          Input orientation:                          
 ---------------------------------------------------------------------
 Center     Atomic     Atomic              Coordinates (Angstroms)
 Number     Number      Type              X           Y           Z
 ---------------------------------------------------------------------
    1          1             0       -1.902863    0.000000   -1.195868
    2          6             0       -0.953947    0.000000   -0.677746
    3          1             0        0.679842    0.000000   -2.188865
    4          6             0        0.363211    0.000000   -1.155307
    5          1             0        2.266383    0.000000    0.087291
    6          6             0        1.187033    0.000000    0.011615
    7          7             0        0.434487    0.000000    1.143589
    8          1             0       -1.611609    0.000000    1.376460
    9          7             0       -0.861246    0.000000    0.698163
 ---------------------------------------------------------------------
                    Distance matrix (angstroms):
                    1          2          3          4          5
     1  H    0.000000
     2  C    1.081153   0.000000
     3  H    2.767021   2.225477   0.000000
     4  C    2.266437   1.401060   1.080971   0.000000
     5  H    4.362237   3.309957   2.774527   2.272909   0.000000
     6  C    3.317450   2.249226   2.258175   1.428422   1.082000
     7  N    3.307002   2.290199   3.341474   2.300001   2.114618
     8  H    2.588764   2.156915   4.238194   3.210881   4.086658
     9  N    2.161555   1.379028   3.272596   2.221406   3.186727
                    6          7          8          9
     6  C    0.000000
     7  N    1.359298   0.000000
     8  H    3.113711   2.059305   0.000000
     9  N    2.160277   1.370157   1.011499   0.000000
 Stoichiometry    C3H4N2
 Framework group  CS[SG(C3H4N2)]
 Deg. of freedom   15
 Full point group                 CS      NOp   2
 Largest Abelian subgroup         CS      NOp   2
 Largest concise Abelian subgroup C1      NOp   1
                         Standard orientation:                         
 ---------------------------------------------------------------------
 Center     Atomic     Atomic              Coordinates (Angstroms)
 Number     Number      Type              X           Y           Z
 ---------------------------------------------------------------------
    1          1             0        2.127702    0.727362    0.000000
    2          6             0        1.128147    0.315319    0.000000
    3          1             0        1.275801   -1.905255    0.000000
    4          6             0        0.671244   -1.009147    0.000000
    5          1             0       -1.491679   -1.707631    0.000000
    6          6             0       -0.754134   -0.915955    0.000000
    7          7             0       -1.161111    0.380989    0.000000
    8          1             0       -0.055587    2.118387    0.000000
    9          7             0        0.000000    1.108417    0.000000
 ---------------------------------------------------------------------
 Rotational constants (GHZ):      9.3086067      9.2135041      4.6304056
 Isotopes: H-1,C-12,H-1,C-12,H-1,C-12,N-14,H-1,N-14
 Standard basis: SDD (6D, 10F)
 There are    48 symmetry adapted basis functions of A'  symmetry.
 There are    10 symmetry adapted basis functions of A"  symmetry.
 Crude estimate of integral set expansion from redundant integrals=1.000.
 Integral buffers will be    262144 words long.
 Raffenetti 2 integral format.
 Two-electron integral symmetry is turned on.
    58 basis functions      136 primitive gaussians
    18 alpha electrons       18 beta electrons
       nuclear repulsion energy       160.7039673783 Hartrees.
 One-electron integrals computed using PRISM.
   1 Symmetry operations used in ECPInt.
 ECPInt:  NShTT=     741 NPrTT=    3858 LenC2=     738 LenP2D=    3079.
 LDataN:  DoStor=F MaxTD1= 2 Len=   12
 LDataN:  DoStor=T MaxTD1= 2 Len=   12
 NBasis=    58 RedAO= T  NBF=    48    10
 NBsUse=    58 1.00D-04 NBFU=    48    10
 Initial guess read from the read-write file:
 Initial guess orbital symmetries:
       Occupied  (A') (A') (A') (A') (A') (A') (A') (A') (A') (A')
                 (A') (A') (A") (A') (A') (A') (A") (A")
       Virtual   (A") (A") (A') (A') (A') (A') (A') (A') (A') (A")
                 (A') (A') (A") (A') (A") (A') (A') (A') (A') (A")
                 (A') (A') (A") (A') (A') (A') (A') (A') (A') (A')
                 (A') (A') (A') (A') (A') (A') (A') (A') (A') (A')
 Requested convergence on RMS density matrix=1.00D-08 within  64 cycles.
 Requested convergence on MAX density matrix=1.00D-06.
 Keep R1 and R2 integrals in memory in canonical form, NReq=     3345028.
 Integral accuracy reduced to 1.0D-05 until final iterations.
 Initial convergence to 1.0D-05 achieved.  Increase integral accuracy.
 SCF Done:  E(RB+HF-LYP) =  -226.159690924     A.U. after   12 cycles
             Convg  =    0.8794D-08             -V/T =  2.0054
             S**2   =   0.0000
   2 Symmetry operations used in ECPInt.
 ECPInt:  NShTT=     741 NPrTT=    3858 LenC2=     738 LenP2D=    3079.
 LDataN:  DoStor=F MaxTD1= 3 Len=   28
 LDataN:  DoStor=T MaxTD1= 3 Len=   28
 ***** Axes restored to original set *****
 -------------------------------------------------------------------
 Center     Atomic                   Forces (Hartrees/Bohr)
 Number     Number              X              Y              Z
 -------------------------------------------------------------------
    1          1           0.001147717    0.000000000    0.000375346
    2          6           0.002555623    0.000000000   -0.001419797
    3          1          -0.000369635    0.000000000    0.001173714
    4          6          -0.002438210    0.000000000   -0.001032631
    5          1          -0.001501793    0.000000000   -0.000121902
    6          6          -0.003407486    0.000000000    0.001340300
    7          7           0.009338670    0.000000000    0.003981053
    8          1           0.001411922    0.000000000   -0.000688274
    9          7          -0.006736809    0.000000000   -0.003607809
 -------------------------------------------------------------------
 Cartesian Forces:  Max     0.009338670 RMS     0.002708942

 GradGradGradGradGradGradGradGradGradGradGradGradGradGradGradGradGradGrad
 Berny optimization.
 Internal  Forces:  Max     0.006457605 RMS     0.001620910
 Search for a local minimum.
 Step number   4 out of a maximum of  48
 All quantities printed in internal units (Hartrees-Bohrs-Radians)
 Update second derivatives using information from points  1  2  3  4
 Trust test= 1.09D+00 RLast= 4.28D-02 DXMaxT set to 4.24D-01
     Eigenvalues ---    0.03203   0.03247   0.03252   0.03273   0.03342
     Eigenvalues ---    0.03372   0.15203   0.15948   0.16001   0.16119
     Eigenvalues ---    0.22048   0.35587   0.37542   0.47006   0.49552
     Eigenvalues ---    0.49750   0.57834   0.60072   0.61781   0.70940
     Eigenvalues ---    0.737101000.000001000.000001000.000001000.00000
     Eigenvalues --- 1000.000001000.000001000.000001000.000001000.00000
     Eigenvalues --- 1000.000001000.000001000.000001000.000001000.00000
     Eigenvalues --- 1000.000001000.000001000.00000
 RFO step:  Lambda=-2.51876374D-04.
 Quartic linear search produced a step of  0.11870.
 Iteration  1 RMS(Cart)=  0.00466769 RMS(Int)=  0.00001612
 Iteration  2 RMS(Cart)=  0.00001954 RMS(Int)=  0.00000555
 Iteration  3 RMS(Cart)=  0.00000000 RMS(Int)=  0.00000555
 Variable       Old X    -DE/DX   Delta X   Delta X   Delta X     New X
                                 (Linear)    (Quad)   (Total)
    R1        2.04308  -0.00119  -0.00077  -0.00335  -0.00412   2.03896
    R2        2.64762  -0.00404  -0.00072  -0.00876  -0.00948   2.63814
    R3        2.60599  -0.00025  -0.00005   0.00088   0.00082   2.60681
    R4        2.04274  -0.00123  -0.00091  -0.00374  -0.00465   2.03809
    R5        2.69933   0.00037  -0.00017   0.00044   0.00027   2.69959
    R6        2.04468  -0.00151  -0.00074  -0.00405  -0.00480   2.03989
    R7        2.56870  -0.00220  -0.00005  -0.00267  -0.00271   2.56599
    R8        2.58922   0.00646   0.00233   0.01499   0.01732   2.60655
    R9        1.91146  -0.00151  -0.00051  -0.00315  -0.00365   1.90780
    A1        2.29399  -0.00033  -0.00028  -0.00147  -0.00175   2.29224
    A2        2.13785   0.00011  -0.00032   0.00046   0.00015   2.13800
    A3        1.85135   0.00023   0.00059   0.00101   0.00159   1.85295
    A4        2.21590  -0.00013  -0.00037   0.00104   0.00068   2.21657
    A5        1.83770   0.00022   0.00122  -0.00140  -0.00019   1.83751
    A6        2.22959  -0.00010  -0.00085   0.00036  -0.00049   2.22910
    A7        2.25552  -0.00147  -0.00030  -0.00653  -0.00683   2.24869
    A8        1.94015   0.00289  -0.00135   0.00981   0.00847   1.94862
    A9        2.08751  -0.00142   0.00166  -0.00328  -0.00164   2.08588
   A10        1.82640  -0.00395   0.00131  -0.01222  -0.01090   1.81551
   A11        1.96918   0.00061  -0.00177   0.00280   0.00102   1.97020
   A12        2.23852   0.00012  -0.00046  -0.00062  -0.00108   2.23744
   A13        2.07549  -0.00072   0.00222  -0.00217   0.00005   2.07554
    D1        0.00000   0.00000   0.00000   0.00000   0.00000   0.00000
    D2        3.14159   0.00000   0.00000   0.00000   0.00000   3.14159
    D3        3.14159   0.00000   0.00000   0.00000   0.00000   3.14159
    D4        0.00000   0.00000   0.00000   0.00000   0.00000   0.00000
    D5        3.14159   0.00000   0.00000   0.00000   0.00000   3.14159
    D6        0.00000   0.00000   0.00000   0.00000   0.00000   0.00000
    D7        0.00000   0.00000   0.00000   0.00000   0.00000   0.00000
    D8        3.14159   0.00000   0.00000   0.00000   0.00000   3.14159
    D9        3.14159   0.00000   0.00000   0.00000   0.00000   3.14159
   D10        0.00000   0.00000   0.00000   0.00000   0.00000   0.00000
   D11        0.00000   0.00000   0.00000   0.00000   0.00000   0.00000
   D12        3.14159   0.00000   0.00000   0.00000   0.00000   3.14159
   D13        0.00000   0.00000   0.00000   0.00000   0.00000   0.00000
   D14        3.14159   0.00000   0.00000   0.00000   0.00000   3.14159
   D15        0.00000   0.00000   0.00000   0.00000   0.00000   0.00000
   D16        3.14159   0.00000   0.00000   0.00000   0.00000   3.14159
         Item               Value     Threshold  Converged?
 Maximum Force            0.006458     0.000450     NO 
 RMS     Force            0.001621     0.000300     NO 
 Maximum Displacement     0.013118     0.001800     NO 
 RMS     Displacement     0.004667     0.001200     NO 
 Predicted change in Energy=-1.303340D-04
 GradGradGradGradGradGradGradGradGradGradGradGradGradGradGradGradGradGrad

                          Input orientation:                          
 ---------------------------------------------------------------------
 Center     Atomic     Atomic              Coordinates (Angstroms)
 Number     Number      Type              X           Y           Z
 ---------------------------------------------------------------------
    1          1             0       -1.898427    0.000000   -1.198910
    2          6             0       -0.952466    0.000000   -0.679931
    3          1             0        0.676985    0.000000   -2.186341
    4          6             0        0.360103    0.000000   -1.155435
    5          1             0        2.260755    0.000000    0.080604
    6          6             0        1.183477    0.000000    0.011976
    7          7             0        0.440811    0.000000    1.148746
    8          1             0       -1.613206    0.000000    1.371379
    9          7             0       -0.862294    0.000000    0.696581
 ---------------------------------------------------------------------
                    Distance matrix (angstroms):
                    1          2          3          4          5
     1  H    0.000000
     2  C    1.078972   0.000000
     3  H    2.758217   2.219095   0.000000
     4  C    2.258948   1.396045   1.078509   0.000000
     5  H    4.351545   3.302000   2.765387   2.267216   0.000000
     6  C    3.311250   2.245215   2.255911   1.428563   1.079462
     7  N    3.314140   2.298974   3.343439   2.305593   2.110242
     8  H    2.586066   2.155099   4.231117   3.206047   4.083341
     9  N    2.160199   1.379463   3.268122   2.219058   3.183215
                    6          7          8          9
     6  C    0.000000
     7  N    1.357865   0.000000
     8  H    3.109568   2.066048   0.000000
     9  N    2.157281   1.379324   1.009565   0.000000
 Stoichiometry    C3H4N2
 Framework group  CS[SG(C3H4N2)]
 Deg. of freedom   15
 Full point group                 CS      NOp   2
 Largest Abelian subgroup         CS      NOp   2
 Largest concise Abelian subgroup C1      NOp   1
                         Standard orientation:                         
 ---------------------------------------------------------------------
 Center     Atomic     Atomic              Coordinates (Angstroms)
 Number     Number      Type              X           Y           Z
 ---------------------------------------------------------------------
    1          1             0        2.126053    0.725659    0.000000
    2          6             0        1.128398    0.314728    0.000000
    3          1             0        1.278943   -1.899254    0.000000
    4          6             0        0.675061   -1.005661    0.000000
    5          1             0       -1.479963   -1.710032    0.000000
    6          6             0       -0.750576   -0.914273    0.000000
    7          7             0       -1.169725    0.377280    0.000000
    8          1             0       -0.054261    2.116330    0.000000
    9          7             0        0.000000    1.108224    0.000000
 ---------------------------------------------------------------------
 Rotational constants (GHZ):      9.3433855      9.1707999      4.6281442
 Isotopes: H-1,C-12,H-1,C-12,H-1,C-12,N-14,H-1,N-14
 Standard basis: SDD (6D, 10F)
 There are    48 symmetry adapted basis functions of A'  symmetry.
 There are    10 symmetry adapted basis functions of A"  symmetry.
 Crude estimate of integral set expansion from redundant integrals=1.000.
 Integral buffers will be    262144 words long.
 Raffenetti 2 integral format.
 Two-electron integral symmetry is turned on.
    58 basis functions      136 primitive gaussians
    18 alpha electrons       18 beta electrons
       nuclear repulsion energy       160.6665098428 Hartrees.
 One-electron integrals computed using PRISM.
   1 Symmetry operations used in ECPInt.
 ECPInt:  NShTT=     741 NPrTT=    3858 LenC2=     739 LenP2D=    3080.
 LDataN:  DoStor=F MaxTD1= 2 Len=   12
 LDataN:  DoStor=T MaxTD1= 2 Len=   12
 NBasis=    58 RedAO= T  NBF=    48    10
 NBsUse=    58 1.00D-04 NBFU=    48    10
 Initial guess read from the read-write file:
 Initial guess orbital symmetries:
       Occupied  (A') (A') (A') (A') (A') (A') (A') (A') (A') (A')
                 (A') (A') (A") (A') (A') (A') (A") (A")
       Virtual   (A") (A") (A') (A') (A') (A') (A') (A') (A') (A")
                 (A') (A') (A") (A') (A") (A') (A') (A') (A') (A")
                 (A') (A') (A") (A') (A') (A') (A') (A') (A') (A')
                 (A') (A') (A') (A') (A') (A') (A') (A') (A') (A')
 Requested convergence on RMS density matrix=1.00D-08 within  64 cycles.
 Requested convergence on MAX density matrix=1.00D-06.
 Keep R1 and R2 integrals in memory in canonical form, NReq=     3345028.
 SCF Done:  E(RB+HF-LYP) =  -226.159832074     A.U. after   11 cycles
             Convg  =    0.1190D-08             -V/T =  2.0053
             S**2   =   0.0000
   2 Symmetry operations used in ECPInt.
 ECPInt:  NShTT=     741 NPrTT=    3858 LenC2=     739 LenP2D=    3080.
 LDataN:  DoStor=F MaxTD1= 3 Len=   28
 LDataN:  DoStor=T MaxTD1= 3 Len=   28
 ***** Axes restored to original set *****
 -------------------------------------------------------------------
 Center     Atomic                   Forces (Hartrees/Bohr)
 Number     Number              X              Y              Z
 -------------------------------------------------------------------
    1          1          -0.000389941    0.000000000   -0.000172690
    2          6           0.001055543    0.000000000    0.001794218
    3          1           0.000313484    0.000000000   -0.000423238
    4          6           0.000293013    0.000000000   -0.000223552
    5          1           0.000533257    0.000000000    0.000114289
    6          6          -0.001717665    0.000000000    0.000630465
    7          7           0.002309130    0.000000000   -0.000225689
    8          1           0.000243128    0.000000000    0.000659186
    9          7          -0.002639948    0.000000000   -0.002152989
 -------------------------------------------------------------------
 Cartesian Forces:  Max     0.002639948 RMS     0.000982346

 GradGradGradGradGradGradGradGradGradGradGradGradGradGradGradGradGradGrad
 Berny optimization.
 Internal  Forces:  Max     0.001584374 RMS     0.000450341
 Search for a local minimum.
 Step number   5 out of a maximum of  48
 All quantities printed in internal units (Hartrees-Bohrs-Radians)
 Update second derivatives using information from points  1  2  3  4  5

 Trust test= 1.08D+00 RLast= 2.69D-02 DXMaxT set to 4.24D-01
     Eigenvalues ---    0.03203   0.03247   0.03252   0.03273   0.03341
     Eigenvalues ---    0.03372   0.15376   0.15687   0.16005   0.16527
     Eigenvalues ---    0.20486   0.34677   0.36695   0.47426   0.49547
     Eigenvalues ---    0.49735   0.58023   0.60217   0.62172   0.70967
     Eigenvalues ---    0.737011000.000001000.000001000.000001000.00000
     Eigenvalues --- 1000.000001000.000001000.000001000.000001000.00000
     Eigenvalues --- 1000.000001000.000001000.000001000.000001000.00000
     Eigenvalues --- 1000.000001000.000001000.00000
 RFO step:  Lambda=-2.12331325D-05.
 Quartic linear search produced a step of  0.09733.
 Iteration  1 RMS(Cart)=  0.00123694 RMS(Int)=  0.00000195
 Iteration  2 RMS(Cart)=  0.00000214 RMS(Int)=  0.00000032
 Iteration  3 RMS(Cart)=  0.00000000 RMS(Int)=  0.00000032
 Variable       Old X    -DE/DX   Delta X   Delta X   Delta X     New X
                                 (Linear)    (Quad)   (Total)
    R1        2.03896   0.00042  -0.00040   0.00098   0.00058   2.03954
    R2        2.63814   0.00042  -0.00092   0.00070  -0.00022   2.63792
    R3        2.60681  -0.00106   0.00008  -0.00117  -0.00109   2.60572
    R4        2.03809   0.00050  -0.00045   0.00108   0.00063   2.03872
    R5        2.69959  -0.00020   0.00003  -0.00017  -0.00014   2.69945
    R6        2.03989   0.00054  -0.00047   0.00126   0.00079   2.04068
    R7        2.56599  -0.00104  -0.00026  -0.00133  -0.00160   2.56439
    R8        2.60655   0.00158   0.00169   0.00345   0.00514   2.61168
    R9        1.90780   0.00026  -0.00036   0.00053   0.00017   1.90797
    A1        2.29224  -0.00019  -0.00017  -0.00078  -0.00095   2.29129
    A2        2.13800  -0.00028   0.00001  -0.00187  -0.00186   2.13614
    A3        1.85295   0.00047   0.00016   0.00265   0.00281   1.85575
    A4        2.21657   0.00035   0.00007   0.00214   0.00220   2.21878
    A5        1.83751  -0.00034  -0.00002  -0.00172  -0.00174   1.83577
    A6        2.22910   0.00000  -0.00005  -0.00042  -0.00046   2.22864
    A7        2.24869  -0.00013  -0.00067  -0.00021  -0.00088   2.24781
    A8        1.94862   0.00041   0.00082   0.00116   0.00198   1.95060
    A9        2.08588  -0.00028  -0.00016  -0.00095  -0.00111   2.08477
   A10        1.81551  -0.00003  -0.00106   0.00057  -0.00049   1.81502
   A11        1.97020  -0.00050   0.00010  -0.00266  -0.00256   1.96764
   A12        2.23744   0.00088  -0.00010   0.00534   0.00524   2.24268
   A13        2.07554  -0.00038   0.00001  -0.00268  -0.00267   2.07287
    D1        0.00000   0.00000   0.00000   0.00000   0.00000   0.00000
    D2        3.14159   0.00000   0.00000   0.00000   0.00000   3.14159
    D3        3.14159   0.00000   0.00000   0.00000   0.00000   3.14159
    D4        0.00000   0.00000   0.00000   0.00000   0.00000   0.00000
    D5        3.14159   0.00000   0.00000   0.00000   0.00000   3.14159
    D6        0.00000   0.00000   0.00000   0.00000   0.00000   0.00000
    D7        0.00000   0.00000   0.00000   0.00000   0.00000   0.00000
    D8        3.14159   0.00000   0.00000   0.00000   0.00000   3.14159
    D9        3.14159   0.00000   0.00000   0.00000   0.00000   3.14159
   D10        0.00000   0.00000   0.00000   0.00000   0.00000   0.00000
   D11        0.00000   0.00000   0.00000   0.00000   0.00000   0.00000
   D12        3.14159   0.00000   0.00000   0.00000   0.00000   3.14159
   D13        0.00000   0.00000   0.00000   0.00000   0.00000   0.00000
   D14        3.14159   0.00000   0.00000   0.00000   0.00000   3.14159
   D15        0.00000   0.00000   0.00000   0.00000   0.00000   0.00000
   D16        3.14159   0.00000   0.00000   0.00000   0.00000   3.14159
         Item               Value     Threshold  Converged?
 Maximum Force            0.001584     0.000450     NO 
 RMS     Force            0.000450     0.000300     NO 
 Maximum Displacement     0.004352     0.001800     NO 
 RMS     Displacement     0.001236     0.001200     NO 
 Predicted change in Energy=-1.174138D-05
 GradGradGradGradGradGradGradGradGradGradGradGradGradGradGradGradGradGrad

                          Input orientation:                          
 ---------------------------------------------------------------------
 Center     Atomic     Atomic              Coordinates (Angstroms)
 Number     Number      Type              X           Y           Z
 ---------------------------------------------------------------------
    1          1             0       -1.898627    0.000000   -1.200185
    2          6             0       -0.952451    0.000000   -0.680962
    3          1             0        0.677973    0.000000   -2.188337
    4          6             0        0.359601    0.000000   -1.157542
    5          1             0        2.259589    0.000000    0.079204
    6          6             0        1.181895    0.000000    0.010539
    7          7             0        0.440938    0.000000    1.147413
    8          1             0       -1.613772    0.000000    1.372469
    9          7             0       -0.865011    0.000000    0.695150
 ---------------------------------------------------------------------
                    Distance matrix (angstroms):
                    1          2          3          4          5
     1  H    0.000000
     2  C    1.079278   0.000000
     3  H    2.759586   2.220465   0.000000
     4  C    2.258630   1.395926   1.078842   0.000000
     5  H    4.350586   3.300766   2.764643   2.267046   0.000000
     6  C    3.309905   2.243571   2.255880   1.428489   1.079879
     7  N    3.314330   2.298801   3.344161   2.306390   2.109162
     8  H    2.588376   2.157295   4.234552   3.208606   4.083560
     9  N    2.158856   1.378887   3.270367   2.220842   3.184732
                    6          7          8          9
     6  C    0.000000
     7  N    1.357019   0.000000
     8  H    3.109760   2.066998   0.000000
     9  N    2.158360   1.382043   1.009655   0.000000
 Stoichiometry    C3H4N2
 Framework group  CS[SG(C3H4N2)]
 Deg. of freedom   15
 Full point group                 CS      NOp   2
 Largest Abelian subgroup         CS      NOp   2
 Largest concise Abelian subgroup C1      NOp   1
                         Standard orientation:                         
 ---------------------------------------------------------------------
 Center     Atomic     Atomic              Coordinates (Angstroms)
 Number     Number      Type              X           Y           Z
 ---------------------------------------------------------------------
    1          1             0        2.124761    0.727473    0.000000
    2          6             0        1.127218    0.315467    0.000000
    3          1             0        1.280261   -1.899718    0.000000
    4          6             0        0.676449   -1.005676    0.000000
    5          1             0       -1.477960   -1.711380    0.000000
    6          6             0       -0.749130   -0.914544    0.000000
    7          7             0       -1.170805    0.375297    0.000000
    8          1             0       -0.058646    2.117590    0.000000
    9          7             0        0.000000    1.109639    0.000000
 ---------------------------------------------------------------------
 Rotational constants (GHZ):      9.3365006      9.1704693      4.6263701
 Isotopes: H-1,C-12,H-1,C-12,H-1,C-12,N-14,H-1,N-14
 Standard basis: SDD (6D, 10F)
 There are    48 symmetry adapted basis functions of A'  symmetry.
 There are    10 symmetry adapted basis functions of A"  symmetry.
 Crude estimate of integral set expansion from redundant integrals=1.000.
 Integral buffers will be    262144 words long.
 Raffenetti 2 integral format.
 Two-electron integral symmetry is turned on.
    58 basis functions      136 primitive gaussians
    18 alpha electrons       18 beta electrons
       nuclear repulsion energy       160.6325607186 Hartrees.
 One-electron integrals computed using PRISM.
   1 Symmetry operations used in ECPInt.
 ECPInt:  NShTT=     741 NPrTT=    3858 LenC2=     739 LenP2D=    3078.
 LDataN:  DoStor=F MaxTD1= 2 Len=   12
 LDataN:  DoStor=T MaxTD1= 2 Len=   12
 NBasis=    58 RedAO= T  NBF=    48    10
 NBsUse=    58 1.00D-04 NBFU=    48    10
 Initial guess read from the read-write file:
 Initial guess orbital symmetries:
       Occupied  (A') (A') (A') (A') (A') (A') (A') (A') (A') (A')
                 (A') (A') (A") (A') (A') (A') (A") (A")
       Virtual   (A") (A") (A') (A') (A') (A') (A') (A') (A') (A")
                 (A') (A') (A") (A') (A") (A') (A') (A') (A') (A")
                 (A') (A') (A") (A') (A') (A') (A') (A') (A') (A')
                 (A') (A') (A') (A') (A') (A') (A') (A') (A') (A')
 Requested convergence on RMS density matrix=1.00D-08 within  64 cycles.
 Requested convergence on MAX density matrix=1.00D-06.
 Keep R1 and R2 integrals in memory in canonical form, NReq=     3345028.
 SCF Done:  E(RB+HF-LYP) =  -226.159846063     A.U. after    9 cycles
             Convg  =    0.6807D-08             -V/T =  2.0053
             S**2   =   0.0000
   2 Symmetry operations used in ECPInt.
 ECPInt:  NShTT=     741 NPrTT=    3858 LenC2=     739 LenP2D=    3078.
 LDataN:  DoStor=F MaxTD1= 3 Len=   28
 LDataN:  DoStor=T MaxTD1= 3 Len=   28
 ***** Axes restored to original set *****
 -------------------------------------------------------------------
 Center     Atomic                   Forces (Hartrees/Bohr)
 Number     Number              X              Y              Z
 -------------------------------------------------------------------
    1          1          -0.000204426    0.000000000   -0.000181206
    2          6          -0.000193723    0.000000000    0.001110748
    3          1           0.000079658    0.000000000   -0.000194027
    4          6           0.000253077    0.000000000    0.000137151
    5          1           0.000290583    0.000000000    0.000071284
    6          6          -0.000714052    0.000000000    0.000448211
    7          7           0.000655888    0.000000000   -0.000182220
    8          1           0.000078384    0.000000000    0.000253459
    9          7          -0.000245388    0.000000000   -0.001463401
 -------------------------------------------------------------------
 Cartesian Forces:  Max     0.001463401 RMS     0.000430701

 GradGradGradGradGradGradGradGradGradGradGradGradGradGradGradGradGradGrad
 Berny optimization.
 Internal  Forces:  Max     0.000862401 RMS     0.000220088
 Search for a local minimum.
 Step number   6 out of a maximum of  48
 All quantities printed in internal units (Hartrees-Bohrs-Radians)
 Update second derivatives using information from points  2  3  4  5  6

 Trust test= 1.19D+00 RLast= 9.96D-03 DXMaxT set to 4.24D-01
     Eigenvalues ---    0.03203   0.03247   0.03252   0.03273   0.03341
     Eigenvalues ---    0.03372   0.13624   0.15416   0.15996   0.16093
     Eigenvalues ---    0.23831   0.32242   0.37129   0.46298   0.49555
     Eigenvalues ---    0.49789   0.57975   0.60260   0.61165   0.66274
     Eigenvalues ---    0.719551000.000001000.000001000.000001000.00000
     Eigenvalues --- 1000.000001000.000001000.000001000.000001000.00000
     Eigenvalues --- 1000.000001000.000001000.000001000.000001000.00000
     Eigenvalues --- 1000.000001000.000001000.00000
 RFO step:  Lambda=-3.58790314D-06.
 Quartic linear search produced a step of  0.27172.
 Iteration  1 RMS(Cart)=  0.00062897 RMS(Int)=  0.00000074
 Iteration  2 RMS(Cart)=  0.00000072 RMS(Int)=  0.00000006
 Variable       Old X    -DE/DX   Delta X   Delta X   Delta X     New X
                                 (Linear)    (Quad)   (Total)
    R1        2.03954   0.00027   0.00016   0.00048   0.00064   2.04018
    R2        2.63792   0.00032  -0.00006   0.00053   0.00047   2.63839
    R3        2.60572  -0.00086  -0.00030  -0.00126  -0.00156   2.60416
    R4        2.03872   0.00021   0.00017   0.00030   0.00047   2.03919
    R5        2.69945  -0.00001  -0.00004   0.00005   0.00002   2.69947
    R6        2.04068   0.00029   0.00021   0.00053   0.00075   2.04142
    R7        2.56439  -0.00066  -0.00043  -0.00092  -0.00136   2.56304
    R8        2.61168   0.00034   0.00140   0.00044   0.00184   2.61352
    R9        1.90797   0.00011   0.00005   0.00012   0.00017   1.90814
    A1        2.29129   0.00002  -0.00026   0.00008  -0.00018   2.29111
    A2        2.13614   0.00013  -0.00050   0.00092   0.00042   2.13656
    A3        1.85575  -0.00015   0.00076  -0.00100  -0.00024   1.85552
    A4        2.21878   0.00003   0.00060  -0.00025   0.00035   2.21913
    A5        1.83577  -0.00002  -0.00047   0.00050   0.00003   1.83580
    A6        2.22864   0.00000  -0.00013  -0.00025  -0.00038   2.22826
    A7        2.24781   0.00003  -0.00024   0.00031   0.00008   2.24789
    A8        1.95060   0.00003   0.00054  -0.00014   0.00040   1.95100
    A9        2.08477  -0.00006  -0.00030  -0.00017  -0.00047   2.08430
   A10        1.81502  -0.00007  -0.00013  -0.00040  -0.00053   1.81449
   A11        1.96764   0.00021  -0.00070   0.00104   0.00034   1.96798
   A12        2.24268   0.00013   0.00142   0.00068   0.00211   2.24479
   A13        2.07287  -0.00034  -0.00073  -0.00172  -0.00245   2.07042
    D1        0.00000   0.00000   0.00000   0.00000   0.00000   0.00000
    D2        3.14159   0.00000   0.00000   0.00000   0.00000   3.14159
    D3        3.14159   0.00000   0.00000   0.00000   0.00000   3.14159
    D4        0.00000   0.00000   0.00000   0.00000   0.00000   0.00000
    D5        3.14159   0.00000   0.00000   0.00000   0.00000   3.14159
    D6        0.00000   0.00000   0.00000   0.00000   0.00000   0.00000
    D7        0.00000   0.00000   0.00000   0.00000   0.00000   0.00000
    D8        3.14159   0.00000   0.00000   0.00000   0.00000   3.14159
    D9        3.14159   0.00000   0.00000   0.00000   0.00000   3.14159
   D10        0.00000   0.00000   0.00000   0.00000   0.00000   0.00000
   D11        0.00000   0.00000   0.00000   0.00000   0.00000   0.00000
   D12        3.14159   0.00000   0.00000   0.00000   0.00000   3.14159
   D13        0.00000   0.00000   0.00000   0.00000   0.00000   0.00000
   D14        3.14159   0.00000   0.00000   0.00000   0.00000   3.14159
   D15        0.00000   0.00000   0.00000   0.00000   0.00000   0.00000
   D16        3.14159   0.00000   0.00000   0.00000   0.00000   3.14159
         Item               Value     Threshold  Converged?
 Maximum Force            0.000862     0.000450     NO 
 RMS     Force            0.000220     0.000300     YES
 Maximum Displacement     0.001886     0.001800     NO 
 RMS     Displacement     0.000629     0.001200     YES
 Predicted change in Energy=-2.481559D-06
 GradGradGradGradGradGradGradGradGradGradGradGradGradGradGradGradGradGrad

                          Input orientation:                          
 ---------------------------------------------------------------------
 Center     Atomic     Atomic              Coordinates (Angstroms)
 Number     Number      Type              X           Y           Z
 ---------------------------------------------------------------------
    1          1             0       -1.898956    0.000000   -1.200523
    2          6             0       -0.952662    0.000000   -0.680812
    3          1             0        0.678681    0.000000   -2.188131
    4          6             0        0.359702    0.000000   -1.157261
    5          1             0        2.259916    0.000000    0.079856
    6          6             0        1.181843    0.000000    0.010938
    7          7             0        0.441574    0.000000    1.147405
    8          1             0       -1.612521    0.000000    1.373480
    9          7             0       -0.865172    0.000000    0.694470
 ---------------------------------------------------------------------
                    Distance matrix (angstroms):
                    1          2          3          4          5
     1  H    0.000000
     2  C    1.079617   0.000000
     3  H    2.760359   2.221101   0.000000
     4  C    2.259072   1.396174   1.079093   0.000000
     5  H    4.351504   3.301405   2.764791   2.267437   0.000000
     6  C    3.310432   2.243798   2.255899   1.428498   1.080273
     7  N    3.315244   2.299189   3.343953   2.306119   2.108561
     8  H    2.589891   2.157668   4.234936   3.208476   4.082797
     9  N    2.158636   1.378062   3.269996   2.220186   3.184953
                    6          7          8          9
     6  C    0.000000
     7  N    1.356302   0.000000
     8  H    3.108857   2.066499   0.000000
     9  N    2.158121   1.383016   1.009745   0.000000
 Stoichiometry    C3H4N2
 Framework group  CS[SG(C3H4N2)]
 Deg. of freedom   15
 Full point group                 CS      NOp   2
 Largest Abelian subgroup         CS      NOp   2
 Largest concise Abelian subgroup C1      NOp   1
                         Standard orientation:                         
[...]
 Frc consts  --     7.0357                 7.2131                 8.7588
 IR Inten    --     3.3628                 0.9573                76.5686
 Raman Activ --     0.0000                 0.0000                 0.0000
 Depolar     --     0.0000                 0.0000                 0.0000
 Atom AN      X      Y      Z        X      Y      Z        X      Y      Z
   1   1     0.66   0.27   0.00    -0.50  -0.21   0.00     0.02   0.00   0.00
   2   6    -0.06  -0.02   0.00     0.05   0.02   0.00     0.00   0.00   0.00
   3   1    -0.10   0.14   0.00    -0.41   0.61   0.00     0.00   0.00   0.00
   4   6     0.01  -0.01   0.00     0.04  -0.06   0.00     0.00   0.00   0.00
   5   1     0.46   0.50   0.00     0.26   0.28   0.00     0.00   0.00   0.00
   6   6    -0.04  -0.05   0.00    -0.03  -0.03   0.00     0.00   0.00   0.00
   7   7     0.00   0.00   0.00     0.00   0.00   0.00     0.00   0.00   0.00
   8   1     0.00  -0.01   0.00     0.00   0.02   0.00    -0.06   0.99   0.00
   9   7     0.00   0.00   0.00     0.00   0.00   0.00     0.01  -0.08   0.00

 -------------------
 - Thermochemistry -
 -------------------
 Temperature   298.150 Kelvin.  Pressure   1.00000 Atm.
 Atom  1 has atomic number  1 and mass   1.00783
 Atom  2 has atomic number  6 and mass  12.00000
 Atom  3 has atomic number  1 and mass   1.00783
 Atom  4 has atomic number  6 and mass  12.00000
 Atom  5 has atomic number  1 and mass   1.00783
 Atom  6 has atomic number  6 and mass  12.00000
 Atom  7 has atomic number  7 and mass  14.00307
 Atom  8 has atomic number  1 and mass   1.00783
 Atom  9 has atomic number  7 and mass  14.00307
 Molecular mass:    68.03745 amu.
 Principal axes and moments of inertia in atomic units:
                           1         2         3
     EIGENVALUES --   193.27704 196.80236 390.07940
           X            0.96402   0.26584   0.00000
           Y           -0.26584   0.96402   0.00000
           Z            0.00000   0.00000   1.00000
 THIS MOLECULE IS AN ASYMMETRIC TOP.
 ROTATIONAL SYMMETRY NUMBER  1.
 ROTATIONAL TEMPERATURES (KELVIN)      0.44813     0.44010     0.22204
 ROTATIONAL CONSTANTS (GHZ)            9.33759     9.17032     4.62660
 Zero-point vibrational energy     188010.6 (Joules/Mol)
                                   44.93561 (Kcal/Mol)
 WARNING-- EXPLICIT CONSIDERATION OF   1 DEGREES OF FREEDOM AS
           VIBRATIONS MAY CAUSE SIGNIFICANT ERROR
 VIBRATIONAL TEMPERATURES:    876.41   926.62   977.62  1126.39  1252.44
          (KELVIN)           1326.70  1330.67  1342.63  1473.47  1528.89
                             1641.08  1674.66  1831.05  1976.33  2035.35
                             2088.20  2231.10  4731.94  4744.97  4777.76
                             5330.40
 
 Zero-point correction=                           0.071609 (Hartree/Particle)
 Thermal correction to Energy=                    0.075287
 Thermal correction to Enthalpy=                  0.076231
 Thermal correction to Gibbs Free Energy=         0.045332
 Sum of electronic and zero-point Energies=           -226.088239
 Sum of electronic and thermal Energies=              -226.084562
 Sum of electronic and thermal Enthalpies=            -226.083618
 Sum of electronic and thermal Free Energies=         -226.114516
 
                     E (Thermal)             CV                S
                      KCAL/MOL        CAL/MOL-KELVIN    CAL/MOL-KELVIN
 TOTAL                   47.243             13.070             65.031
 ELECTRONIC               0.000              0.000              0.000
 TRANSLATIONAL            0.889              2.981             38.570
 ROTATIONAL               0.889              2.981             24.210
 VIBRATIONAL             45.466              7.108              2.250
 VIBRATION  1             0.968              1.012              0.434
                       Q            LOG10(Q)             LN(Q)
 TOTAL BOT       0.140818D-20        -20.851342        -48.011990
 TOTAL V=0       0.122038D+13         12.086494         27.830180
 VIB (BOT)       0.146401D-32        -32.834456        -75.604129
 VIB (BOT)  1    0.242826D+00         -0.614705         -1.415410
 VIB (V=0)       0.126876D+01          0.103380          0.238041
 VIB (V=0)  1    0.105585D+01          0.023600          0.054342
 ELECTRONIC      0.100000D+01          0.000000          0.000000
 TRANSLATIONAL   0.220588D+08          7.343582         16.909224
 ROTATIONAL      0.436045D+05          4.639531         10.682915
 ***** Axes restored to original set *****
 -------------------------------------------------------------------
 Center     Atomic                   Forces (Hartrees/Bohr)
 Number     Number              X              Y              Z
 -------------------------------------------------------------------
    1          1           0.000014740    0.000000000   -0.000056241
    2          6          -0.000146076    0.000000000    0.000498126
    3          1          -0.000012794    0.000000000   -0.000032566
    4          6           0.000251120    0.000000000   -0.000129438
    5          1           0.000028951    0.000000000   -0.000012551
    6          6          -0.000072592    0.000000000    0.000026514
    7          7          -0.000182095    0.000000000   -0.000055281
    8          1          -0.000020140    0.000000000    0.000015970
    9          7           0.000138884    0.000000000   -0.000254532
 -------------------------------------------------------------------
 Cartesian Forces:  Max     0.000498126 RMS     0.000133584

 GradGradGradGradGradGradGradGradGradGradGradGradGradGradGradGradGradGrad
 Berny optimization.
 Internal  Forces:  Max     0.000281964 RMS     0.000068850
 Search for a local minimum.
 Step number   1 out of a maximum of  48
 All quantities printed in internal units (Hartrees-Bohrs-Radians)
 Second derivative matrix not updated -- analytic derivatives used.
     Eigenvalues ---    0.00961   0.01303   0.01752   0.02842   0.05923
     Eigenvalues ---    0.06319   0.09494   0.10505   0.10904   0.11892
     Eigenvalues ---    0.22280   0.26147   0.32638   0.36776   0.38097
     Eigenvalues ---    0.38331   0.38592   0.42291   0.47995   0.49116
     Eigenvalues ---    0.544221000.000001000.000001000.000001000.00000
     Eigenvalues --- 1000.000001000.000001000.000001000.000001000.00000
     Eigenvalues --- 1000.000001000.000001000.000001000.000001000.00000
     Eigenvalues --- 1000.000001000.000001000.00000
 Angle between quadratic step and forces=  30.23 degrees.
 Linear search not attempted -- first point.
 Iteration  1 RMS(Cart)=  0.00019644 RMS(Int)=  0.00000006
 Iteration  2 RMS(Cart)=  0.00000006 RMS(Int)=  0.00000001
 Variable       Old X    -DE/DX   Delta X   Delta X   Delta X     New X
                                 (Linear)    (Quad)   (Total)
    R1        2.04018   0.00001   0.00000   0.00004   0.00004   2.04022
    R2        2.63839   0.00020   0.00000   0.00059   0.00059   2.63897
    R3        2.60416  -0.00028   0.00000  -0.00084  -0.00084   2.60332
    R4        2.03919   0.00003   0.00000   0.00006   0.00006   2.03925
    R5        2.69947  -0.00005   0.00000  -0.00010  -0.00010   2.69937
    R6        2.04142   0.00003   0.00000   0.00007   0.00007   2.04149
    R7        2.56304   0.00002   0.00000   0.00009   0.00009   2.56313
    R8        2.61352  -0.00015   0.00000  -0.00040  -0.00040   2.61313
    R9        1.90814   0.00003   0.00000   0.00005   0.00005   1.90819
    A1        2.29111  -0.00008   0.00000  -0.00075  -0.00075   2.29035
    A2        2.13656   0.00002   0.00000   0.00057   0.00057   2.13713
    A3        1.85552   0.00006   0.00000   0.00019   0.00019   1.85570
    A4        2.21913   0.00003   0.00000  -0.00018  -0.00018   2.21895
    A5        1.83580  -0.00011   0.00000  -0.00038  -0.00038   1.83542
    A6        2.22826   0.00008   0.00000   0.00056   0.00056   2.22882
    A7        2.24789  -0.00001   0.00000  -0.00011  -0.00011   2.24778
    A8        1.95100  -0.00002   0.00000   0.00001   0.00001   1.95101
    A9        2.08430   0.00003   0.00000   0.00010   0.00010   2.08440
   A10        1.81449   0.00005   0.00000   0.00005   0.00005   1.81453
   A11        1.96798   0.00003   0.00000   0.00014   0.00014   1.96812
   A12        2.24479  -0.00001   0.00000  -0.00003  -0.00003   2.24476
   A13        2.07042  -0.00002   0.00000  -0.00011  -0.00011   2.07031
    D1        0.00000   0.00000   0.00000   0.00000   0.00000   0.00000
    D2        3.14159   0.00000   0.00000   0.00000   0.00000   3.14159
    D3        3.14159   0.00000   0.00000   0.00000   0.00000   3.14159
    D4        0.00000   0.00000   0.00000   0.00000   0.00000   0.00000
    D5        3.14159   0.00000   0.00000   0.00000   0.00000   3.14159
    D6        0.00000   0.00000   0.00000   0.00000   0.00000   0.00000
    D7        0.00000   0.00000   0.00000   0.00000   0.00000   0.00000
    D8        3.14159   0.00000   0.00000   0.00000   0.00000   3.14159
    D9        3.14159   0.00000   0.00000   0.00000   0.00000   3.14159
   D10        0.00000   0.00000   0.00000   0.00000   0.00000   0.00000
   D11        0.00000   0.00000   0.00000   0.00000   0.00000   0.00000
   D12        3.14159   0.00000   0.00000   0.00000   0.00000   3.14159
   D13        0.00000   0.00000   0.00000   0.00000   0.00000   0.00000
   D14        3.14159   0.00000   0.00000   0.00000   0.00000   3.14159
   D15        0.00000   0.00000   0.00000   0.00000   0.00000   0.00000
   D16        3.14159   0.00000   0.00000   0.00000   0.00000   3.14159
         Item               Value     Threshold  Converged?
 Maximum Force            0.000282     0.000450     YES
 RMS     Force            0.000069     0.000300     YES
 Maximum Displacement     0.000726     0.001800     YES
 RMS     Displacement     0.000196     0.001200     YES
 Predicted change in Energy=-3.025021D-07
 Optimization completed.
    -- Stationary point found.
                         ----------------------------
                         !   Optimized Parameters   !
                         ! (Angstroms and Degrees)  !
 ------------------------                            -------------------------
 ! Name  Definition              Value          Derivative Info.             !
 -----------------------------------------------------------------------------
 ! R1    R(1,2)                  1.0796         -DE/DX =    0.               !
 ! R2    R(2,4)                  1.3962         -DE/DX =    0.0002           !
 ! R3    R(2,9)                  1.3781         -DE/DX =   -0.0003           !
 ! R4    R(3,4)                  1.0791         -DE/DX =    0.               !
 ! R5    R(4,6)                  1.4285         -DE/DX =    0.               !
 ! R6    R(5,6)                  1.0803         -DE/DX =    0.               !
 ! R7    R(6,7)                  1.3563         -DE/DX =    0.               !
 ! R8    R(7,9)                  1.383          -DE/DX =   -0.0001           !
 ! R9    R(8,9)                  1.0097         -DE/DX =    0.               !
 ! A1    A(1,2,4)              131.2709         -DE/DX =   -0.0001           !
 ! A2    A(1,2,9)              122.4159         -DE/DX =    0.               !
 ! A3    A(4,2,9)              106.3132         -DE/DX =    0.0001           !
 ! A4    A(2,4,3)              127.1467         -DE/DX =    0.               !
 ! A5    A(2,4,6)              105.1834         -DE/DX =   -0.0001           !
 ! A6    A(3,4,6)              127.6699         -DE/DX =    0.0001           !
 ! A7    A(4,6,5)              128.7944         -DE/DX =    0.               !
 ! A8    A(4,6,7)              111.784          -DE/DX =    0.               !
 ! A9    A(5,6,7)              119.4216         -DE/DX =    0.               !
 ! A10   A(6,7,9)              103.9624         -DE/DX =    0.               !
 ! A11   A(2,9,7)              112.757          -DE/DX =    0.               !
 ! A12   A(2,9,8)              128.6169         -DE/DX =    0.               !
 ! A13   A(7,9,8)              118.6261         -DE/DX =    0.               !
 ! D1    D(1,2,4,3)              0.             -DE/DX =    0.               !
 ! D2    D(1,2,4,6)            180.             -DE/DX =    0.               !
 ! D3    D(9,2,4,3)            180.             -DE/DX =    0.               !
 ! D4    D(9,2,4,6)              0.             -DE/DX =    0.               !
 ! D5    D(1,2,9,7)            180.             -DE/DX =    0.               !
 ! D6    D(1,2,9,8)              0.             -DE/DX =    0.               !
 ! D7    D(4,2,9,7)              0.             -DE/DX =    0.               !
 ! D8    D(4,2,9,8)            180.             -DE/DX =    0.               !
 ! D9    D(2,4,6,5)            180.             -DE/DX =    0.               !
 ! D10   D(2,4,6,7)              0.             -DE/DX =    0.               !
 ! D11   D(3,4,6,5)              0.             -DE/DX =    0.               !
 ! D12   D(3,4,6,7)            180.             -DE/DX =    0.               !
 ! D13   D(4,6,7,9)              0.             -DE/DX =    0.               !
 ! D14   D(5,6,7,9)            180.             -DE/DX =    0.               !
 ! D15   D(6,7,9,2)              0.             -DE/DX =    0.               !
 ! D16   D(6,7,9,8)            180.             -DE/DX =    0.               !
 -----------------------------------------------------------------------------
 GradGradGradGradGradGradGradGradGradGradGradGradGradGradGradGradGradGrad

 1\1\GINC-INDIUM\Freq\RB3LYP\SDD\C3H4N2\RDJ3\02-Jan-2001\0\\#N GEOM=ALL
 CHECK GUESS=TCHECK RB3LYP/SDD FREQ\\1H pyrazole C3H4N2 casno=288131\\0
 ,1\H,-1.8988234681,0.,-1.2003840889\C,-0.9525292253,0.,-0.680673138\H,
 0.6788135178,0.,-2.1879924081\C,0.3598347015,0.,-1.1571221012\H,2.2600
 485059,0.,0.0799950186\C,1.1819756294,0.,0.0110773574\N,0.4417060156,0
 .,1.1475435732\H,-1.6123890192,0.,1.3736187763\N,-0.8650397542,0.,0.69
 4609283\\Version=IBM-RS6000-G98RevA.6\State=1-A'\HF=-226.1598486\RMSD=
 5.242e-09\RMSF=1.336e-04\Dipole=-0.828377,0.,-0.5328127\DipoleDeriv=-0
 .002803,0.0001015,-0.0571227,-0.0000281,0.2378517,0.0000568,-0.0492257
 ,0.0000778,0.0849273,0.1001309,-0.0002028,-0.1513866,0.0001604,-0.1529
 906,-0.0003128,-0.3329167,0.0004261,0.2248982,0.1150333,-0.0001621,0.0
 383347,-0.0000132,0.217464,0.0000846,0.0420002,0.0006411,-0.0376907,-0
 .2599662,0.0003332,-0.0027494,0.000062,-0.2523356,-0.0001048,-0.036609
 2,-0.000871,-0.0407589,-0.0431979,-0.0001696,-0.0039543,-0.0000165,0.1
 837971,0.0000132,-0.0221797,0.0000123,0.105691,0.1880864,0.000272,0.08
 08833,-0.0000841,-0.1184198,0.0005242,0.2005078,-0.0000291,0.1453955,0
 .0828112,-0.0001772,-0.1687249,0.0000666,-0.2219807,-0.0008599,-0.0621
 747,0.000025,-0.4750074,0.2160142,0.0001886,-0.0249838,-0.0000282,0.36
 79434,-0.0000207,-0.0297696,-0.0001239,0.2199833,-0.3961085,-0.0001835
 ,0.2897035,-0.0001188,-0.2613296,0.0006196,0.2903676,-0.0001582,-0.227
 4379\Polar=49.5317729,0.0028757,18.4386905,-0.0899059,-0.014861,45.679
 252\PG=CS [SG(C3H4N2)]\NImag=0\\0.30398177,0.00000032,0.02168742,0.140
 21103,0.00000038,0.12963219,-0.30270438,-0.00000113,-0.12524736,0.8571
 2239,-0.00000349,-0.02905173,-0.00000189,0.00000219,0.12884065,-0.1348
 9526,0.00000276,-0.12661570,0.10636523,-0.00000269,0.62727453,-0.00006
 271,-0.00000130,-0.00093854,0.00208186,0.00000121,0.02651559,0.0779521
 2,0.00000106,-0.00284533,0.00000067,-0.00000098,-0.00022640,0.00000131
 ,-0.00000091,0.02362962,0.00075693,0.00000441,-0.00008954,-0.00693793,
 -0.00000205,0.00076712,-0.09510853,0.00000289,0.35308719,-0.00454677,0
 .00000273,0.01197842,-0.34045896,0.00000239,0.07550118,-0.08383083,0.0
 0000088,0.09099468,0.61352056,-0.00000124,0.00238649,-0.00000079,0.000
 00118,-0.06926071,-0.00000130,0.00000113,-0.03039135,-0.00000252,-0.00
 000035,0.12769855,-0.01615539,-0.00000504,0.01189370,0.09536551,0.0000
 0733,-0.13790815,0.08845655,-0.00000390,-0.34474705,-0.12268095,0.0000
 0411,0.83345327,-0.00039660,-0.00000319,0.00010182,0.00041500,-0.00000
 357,-0.00038817,-0.00029574,-0.00000076,-0.00081353,-0.00242697,0.0000
 0125,0.00658780,0.37998390,0.00000070,0.00067153,0.00000057,-0.0000013
 3,0.00449834,0.00000136,-0.00000070,-0.00182894,0.00000251,0.00000130,
 0.00138251,-0.00000335,-0.00000140,0.02464543,-0.00082871,-0.00000003,
 0.00097881,-0.00285592,-0.00000003,-0.00584865,0.00099075,0.00000005,0
 .00004419,-0.02224511,0.00000009,0.00661106,0.01962729,-0.00000002,0.0
 5517033,-0.00334056,0.00000305,0.00479064,-0.05938215,0.00000379,-0.00
 595629,0.01186223,0.00000017,0.01431125,-0.17642997,-0.00000007,-0.100
 41445,-0.36636748,0.00000166,-0.03132290,0.88272180,0.00000233,0.00541
 159,0.00000068,0.00000020,0.01238279,-0.00000887,-0.00000126,-0.001477
 59,-0.00000350,-0.00000867,-0.06919500,-0.00000362,0.00000801,-0.03167
 048,-0.00000040,-0.00001743,0.14036149,0.00074557,0.00000035,-0.002209
 28,-0.06290211,-0.00001167,0.03072764,-0.01751612,0.00000188,-0.007476
 80,-0.07323546,-0.00000550,-0.22651848,-0.02203415,0.00000020,-0.05772
 536,-0.00097676,0.00003517,0.57364293,0.00114582,-0.00000019,0.0012091
 5,-0.05450174,0.00000546,-0.04430090,-0.00205322,-0.00000076,-0.001015
 14,0.02146028,0.00000101,0.03092322,-0.01189280,0.00000003,0.02879834,
 -0.16950330,-0.00000344,0.14218539,0.45713271,-0.00000400,0.00540284,-
 0.00000135,0.,0.01764282,0.00001387,0.00000326,0.00610803,0.00000129,0
 .00001136,0.02052617,0.00000898,-0.00000934,-0.00658385,0.00000056,0.0
 0002670,-0.06996896,-0.00005568,0.00000392,0.09886582,0.00301759,-0.00
 000108,-0.00421747,-0.02081249,0.00000969,-0.06665610,-0.00554921,-0.0
 0000192,-0.00268801,-0.02980042,0.00000529,-0.07833178,-0.00495625,0.0
 0000013,0.00465270,0.09251571,-0.00003003,-0.27340826,-0.05661173,0.00
 004891,0.51368868,-0.00029215,0.00000074,0.00040751,0.01020027,-0.0000
 0221,-0.01060776,0.00070057,0.00000045,0.00006470,0.00132117,-0.000000
 26,-0.00345391,-0.00054115,0.00000030,0.00154612,-0.00670190,-0.000004
 56,-0.00546767,-0.01826946,0.00000811,0.02582497,0.29681181,-0.0000004
 8,-0.00138112,-0.00000019,-0.00000013,-0.00549553,0.00000282,0.0000000
 8,0.00191610,0.00000101,0.00000161,0.00337545,-0.00000089,-0.00000077,
 0.00180748,0.00000006,0.00000315,0.00442599,-0.00000483,-0.00000083,-0
 .00963975,0.00000413,0.00000172,0.01498374,-0.00083493,-0.00000061,-0.
 00000233,0.02596410,0.00000206,-0.00592131,0.00101501,-0.00000037,0.00
 018026,-0.00263475,0.00000047,-0.00614505,-0.00027002,-0.00000021,0.00
 094132,-0.00721792,0.00000239,0.00094649,-0.01435650,-0.00000449,0.013
 81042,-0.20937389,-0.00000115,0.25683227,0.00621560,-0.00000102,-0.032
 51268,-0.11277228,-0.00000576,-0.01223363,-0.00635427,0.00000085,-0.00
 225243,-0.02860851,-0.00000264,0.02137163,0.00152183,-0.00000056,0.006
 29015,-0.11285868,0.00002482,0.03920130,-0.22351827,-0.00004003,-0.003
 62816,-0.28322916,-0.00000435,0.20770889,0.75960375,0.00000480,-0.0022
 8168,0.00000194,0.,-0.05933024,-0.00000927,-0.00000151,0.00511587,-0.0
 0000404,-0.00001124,0.01347790,-0.00000362,0.00000976,0.00707798,-0.00
 000029,-0.00002100,0.00973017,0.00004008,-0.00000520,-0.06235313,-0.00
 003510,-0.00000429,-0.00999236,0.00000190,0.00002869,0.09855549,0.0079
 8317,-0.00000115,-0.00937037,-0.00893902,-0.00000076,-0.31581939,0.002
 13451,-0.00000059,0.00092263,0.07212241,0.00000015,-0.05830752,0.00214
 520,-0.00000118,-0.00482439,0.03427071,0.00000818,-0.03797887,-0.08683
 183,-0.00001210,-0.10685017,0.20105992,-0.00000096,-0.26064207,-0.2239
 4506,0.00000840,0.79287016\\-0.00001474,0.,0.00005624,0.00014608,0.,-0
 .00049813,0.00001279,0.,0.00003257,-0.00025112,0.,0.00012944,-0.000028
 95,0.,0.00001255,0.00007259,0.,-0.00002651,0.00018209,0.,0.00005528,0.
 00002014,0.,-0.00001597,-0.00013888,0.,0.00025453\\\@


 OPTIMIST - A PESSIMIST WHO LACKS EXPERIENCE
 Job cpu time:  0 days  0 hours  3 minutes 30.3 seconds.
 File lengths (MBytes):  RWF=   17 Int=    0 D2E=    0 Chk=    8 Scr=    1
 Normal termination of Gaussian 98.
