 Entering Gaussian System, Link 0=g98
 Initial command:
 /usr/local/apps/g98/g98/l1.exe /wrk/rdj3/Gau-2997.inp -scrdir=/wrk/rdj3/
 Entering Link 1 = /usr/local/apps/g98/g98/l1.exe PID=      2998.
  
 Copyright (c) 1988,1990,1992,1993,1995,1998 Gaussian, Inc.
                  All Rights Reserved.
  
 This is part of the Gaussian(R) 98 program.  It is based on
 the Gaussian 94(TM) system (copyright 1995 Gaussian, Inc.),
 the Gaussian 92(TM) system (copyright 1992 Gaussian, Inc.),
 the Gaussian 90(TM) system (copyright 1990 Gaussian, Inc.),
 the Gaussian 88(TM) system (copyright 1988 Gaussian, Inc.),
 the Gaussian 86(TM) system (copyright 1986 Carnegie Mellon
 University), and the Gaussian 82(TM) system (copyright 1983
 Carnegie Mellon University). Gaussian is a federally registered
 trademark of Gaussian, Inc.
  
 This software contains proprietary and confidential information,
 including trade secrets, belonging to Gaussian, Inc.
  
 This software is provided under written license and may be
 used, copied, transmitted, or stored only in accord with that
 written license.
  
 The following legend is applicable only to US Government
 contracts under DFARS:
  
                    RESTRICTED RIGHTS LEGEND
  
 Use, duplication or disclosure by the US Government is subject
 to restrictions as set forth in subparagraph (c)(1)(ii) of the
 Rights in Technical Data and Computer Software clause at DFARS
 252.227-7013.
  
 Gaussian, Inc.
 Carnegie Office Park, Building 6, Pittsburgh, PA 15106 USA
  
 The following legend is applicable only to US Government
 contracts under FAR:
  
                    RESTRICTED RIGHTS LEGEND
  
 Use, reproduction and disclosure by the US Government is subject
 to restrictions as set forth in subparagraph (c) of the
 Commercial Computer Software - Restricted Rights clause at FAR
 52.227-19.
  
 Gaussian, Inc.
 Carnegie Office Park, Building 6, Pittsburgh, PA 15106 USA
  
  
 ---------------------------------------------------------------
 Warning -- This program may not be used in any manner that
 competes with the business of Gaussian, Inc. or will provide
 assistance to any competitor of Gaussian, Inc.  The licensee
 of this program is prohibited from giving any competitor of
 Gaussian, Inc. access to this program.  By using this program,
 the user acknowledges that Gaussian, Inc. is engaged in the
 business of creating and licensing software in the field of
 computational chemistry and represents and warrants to the
 licensee that it is not a competitor of Gaussian, Inc. and that
 it will not use this program in any manner prohibited above.
 ---------------------------------------------------------------
  

 Cite this work as:
 Gaussian 98, Revision A.4,
 M. J. Frisch, G. W. Trucks, H. B. Schlegel, G. E. Scuseria, 
 M. A. Robb, J. R. Cheeseman, V. G. Zakrzewski, J. A. Montgomery, Jr., 
 R. E. Stratmann, J. C. Burant, S. Dapprich, J. M. Millam, 
 A. D. Daniels, K. N. Kudin, M. C. Strain, O. Farkas, J. Tomasi, 
 V. Barone, M. Cossi, R. Cammi, B. Mennucci, C. Pomelli, C. Adamo, 
 S. Clifford, J. Ochterski, G. A. Petersson, P. Y. Ayala, Q. Cui, 
 K. Morokuma, D. K. Malick, A. D. Rabuck, K. Raghavachari, 
 J. B. Foresman, J. Cioslowski, J. V. Ortiz, B. B. Stefanov, G. Liu, 
 A. Liashenko, P. Piskorz, I. Komaromi, R. Gomperts, R. L. Martin, 
 D. J. Fox, T. Keith, M. A. Al-Laham, C. Y. Peng, A. Nanayakkara, 
 C. Gonzalez, M. Challacombe, P. M. W. Gill, B. Johnson, W. Chen, 
 M. W. Wong, J. L. Andres, C. Gonzalez, M. Head-Gordon, 
 E. S. Replogle, and J. A. Pople, 
 Gaussian, Inc., Pittsburgh PA, 1998.

 *********************************************
 Gaussian 98:  x86-Linux-G98RevA.4 11-Sep-1998
                   6-Oct-2000 
 *********************************************
 %mem=24000000
 ------------------------
 #B3LYP/CEP-121G opt freq
 ------------------------
 1/14=-1,18=20,26=3,38=1/1,3;
 2/9=110,17=6,18=5/2;
 3/5=9,6=2,11=2,16=1,25=1,30=1/1,2,3;
 4/11=1/1;
 5/5=2,38=4,42=-5/2;
 6/7=2,8=2,9=2,10=2,28=1/1;
 7//1,2,3,16;
 1/14=-1,18=20/3(1);
 99//99;
 2/9=110/2;
 3/5=9,6=2,11=2,16=1,25=1,30=1/1,2,3;
 4/5=5,11=1,16=2/1;
 5/5=2,38=4,42=-5/2;
 7//1,2,3,16;
 1/14=-1,18=20/3(-5);
 2/9=110/2;
 6/7=2,8=2,9=2,10=2,19=2,28=1/1;
 99/9=1/99;
 -------------------------------
 1H pyrazole C3H4N2 casno=288131
 -------------------------------
 Symbolic Z-matrix:
 Charge =  0 Multiplicity = 1
 H                    -1.9125    0.       -0.75938 
 C                    -1.08438   0.       -0.21875 
 H                     0.43438   0.       -1.63125 
 C                     0.15      0.       -0.68438 
 H                     1.9125    0.        0.37188 
 C                     0.92188   0.        0.375 
 N                     0.18125   0.        1.41875 
 H                    -1.74063   0.        1.63125 
 N                    -1.00313   0.        1.05313 

 GradGradGradGradGradGradGradGradGradGradGradGradGradGradGradGradGradGrad
 Berny optimization.
 Initialization pass.
                         ----------------------------
                         !    Initial Parameters    !
                         ! (Angstroms and Degrees)  !
 ------------------------                            -------------------------
 ! Name  Definition              Value          Derivative Info.             !
 -----------------------------------------------------------------------------
 ! R1    R(1,2)                  0.989          estimate D2E/DX2             !
 ! R2    R(2,4)                  1.3193         estimate D2E/DX2             !
 ! R3    R(2,9)                  1.2745         estimate D2E/DX2             !
 ! R4    R(3,4)                  0.9887         estimate D2E/DX2             !
 ! R5    R(4,6)                  1.3108         estimate D2E/DX2             !
 ! R6    R(5,6)                  0.9906         estimate D2E/DX2             !
 ! R7    R(6,7)                  1.2798         estimate D2E/DX2             !
 ! R8    R(7,9)                  1.2395         estimate D2E/DX2             !
 ! R9    R(8,9)                  0.9371         estimate D2E/DX2             !
 ! A1    A(1,2,4)              126.195          estimate D2E/DX2             !
 ! A2    A(1,2,9)              126.7929         estimate D2E/DX2             !
 ! A3    A(4,2,9)              107.012          estimate D2E/DX2             !
 ! A4    A(2,4,3)              127.3838         estimate D2E/DX2             !
 ! A5    A(2,4,6)              105.4104         estimate D2E/DX2             !
 ! A6    A(3,4,6)              127.2058         estimate D2E/DX2             !
 ! A7    A(4,6,5)              125.8968         estimate D2E/DX2             !
 ! A8    A(4,6,7)              108.5636         estimate D2E/DX2             !
 ! A9    A(5,6,7)              125.5395         estimate D2E/DX2             !
 ! A10   A(6,7,9)              108.203          estimate D2E/DX2             !
 ! A11   A(2,9,7)              110.811          estimate D2E/DX2             !
 ! A12   A(2,9,8)              124.4376         estimate D2E/DX2             !
 ! A13   A(7,9,8)              124.7513         estimate D2E/DX2             !
 ! D1    D(1,2,4,3)              0.             estimate D2E/DX2             !
 ! D2    D(1,2,4,6)            180.             estimate D2E/DX2             !
 ! D3    D(9,2,4,3)            180.             estimate D2E/DX2             !
 ! D4    D(9,2,4,6)              0.             estimate D2E/DX2             !
 ! D5    D(1,2,9,7)            180.             estimate D2E/DX2             !
 ! D6    D(1,2,9,8)              0.             estimate D2E/DX2             !
 ! D7    D(4,2,9,7)              0.             estimate D2E/DX2             !
 ! D8    D(4,2,9,8)            180.             estimate D2E/DX2             !
 ! D9    D(2,4,6,5)            180.             estimate D2E/DX2             !
 ! D10   D(2,4,6,7)              0.             estimate D2E/DX2             !
 ! D11   D(3,4,6,5)              0.             estimate D2E/DX2             !
 ! D12   D(3,4,6,7)            180.             estimate D2E/DX2             !
 ! D13   D(4,6,7,9)              0.             estimate D2E/DX2             !
 ! D14   D(5,6,7,9)            180.             estimate D2E/DX2             !
 ! D15   D(6,7,9,2)              0.             estimate D2E/DX2             !
 ! D16   D(6,7,9,8)            180.             estimate D2E/DX2             !
 -----------------------------------------------------------------------------
 Trust Radius=3.00D-01 FncErr=1.00D-07 GrdErr=1.00D-06
 Number of steps in this run=  48 maximum allowed number of steps= 100.
 GradGradGradGradGradGradGradGradGradGradGradGradGradGradGradGradGradGrad

                          Input orientation:                          
 ---------------------------------------------------------------------
 Center     Atomic     Atomic              Coordinates (Angstroms)
 Number     Number      Type              X           Y           Z
 ---------------------------------------------------------------------
    1          1             0       -1.912500    0.000000   -0.759375
    2          6             0       -1.084375    0.000000   -0.218750
    3          1             0        0.434375    0.000000   -1.631250
    4          6             0        0.150000    0.000000   -0.684375
    5          1             0        1.912500    0.000000    0.371875
    6          6             0        0.921875    0.000000    0.375000
    7          7             0        0.181250    0.000000    1.418750
    8          1             0       -1.740625    0.000000    1.631250
    9          7             0       -1.003125    0.000000    1.053125
 ---------------------------------------------------------------------
                    Distance matrix (angstroms):
                    1          2          3          4          5
     1  H    0.000000
     2  C    0.988972   0.000000
     3  H    2.503595   2.074068   0.000000
     4  C    2.063863   1.319276   0.988656   0.000000
     5  H    3.988778   3.054521   2.489450   2.054768   0.000000
     6  C    3.052947   2.092266   2.064630   1.310750   0.990630
     7  N    3.021261   2.069592   3.060486   2.103357   2.023159
     8  H    2.396796   1.962948   3.921037   2.989412   3.864110
     9  N    2.027836   1.274468   3.045041   2.085331   2.994156
                    6          7          8          9
     6  C    0.000000
     7  N    1.279820   0.000000
     8  H    2.943989   1.933587   0.000000
     9  N    2.040950   1.239526   0.937088   0.000000
 Stoichiometry    C3H4N2
 Framework group  CS[SG(C3H4N2)]
 Deg. of freedom   15
 Full point group                 CS      NOp   2
 Largest Abelian subgroup         CS      NOp   2
 Largest concise Abelian subgroup C1      NOp   1
                         Standard orientation:                         
 ---------------------------------------------------------------------
 Center     Atomic     Atomic              Coordinates (Angstroms)
 Number     Number      Type              X           Y           Z
 ---------------------------------------------------------------------
    1          1             0        1.974407    0.585689    0.000000
    2          6             0        1.028833    0.295936    0.000000
    3          1             0        1.140941   -1.775099    0.000000
    4          6             0        0.595873   -0.950271    0.000000
    5          1             0       -1.344123   -1.627388    0.000000
    6          6             0       -0.712074   -0.864589    0.000000
    7          7             0       -1.039336    0.372682    0.000000
    8          1             0        0.028336    1.984773    0.000000
    9          7             0        0.000000    1.048113    0.000000
 ---------------------------------------------------------------------
 Rotational constants (GHZ):     11.1878032     10.4520048      5.4036973
 Isotopes: H-1,C-12,H-1,C-12,H-1,C-12,N-14,H-1,N-14
 Standard basis: CEP-121G (6D, 10F)
 There are    57 symmetry adapted basis functions of A'  symmetry.
 There are    15 symmetry adapted basis functions of A"  symmetry.
 Crude estimate of integral set expansion from redundant integrals=1.000.
 Integral buffers will be    262144 words long.
 Raffenetti 2 integral format.
 Two-electron integral symmetry is turned on.
    72 basis functions      100 primitive gaussians
    13 alpha electrons       13 beta electrons
       nuclear repulsion energy        90.3352096667 Hartrees.
 One-electron integrals computed using PRISM.
   1 Symmetry operations used in ECPInt.
 ECPInt:  NShTT=     378 NPrTT=     837 LenC2=     379 LenP2D=     776.
 LDataN:  DoStor=F MaxTD1= 2 Len=   12
 LDataN:  DoStor=T MaxTD1= 2 Len=   12
 NBasis=    72 RedAO= T  NBF=    57    15
 NBsUse=    72 1.00D-04 NBFU=    57    15
 Projected Huckel Guess.
 Initial guess orbital symmetries:
       Occupied  (A') (A') (A') (A') (A') (A') (A") (A') (A') (A')
                 (A') (A") (A")
       Virtual   (A") (A") (A') (A') (A') (A') (A') (A') (A') (A')
                 (A') (A') (A') (A') (A') (A') (A') (A') (A') (A')
                 (A') (A') (A') (A') (A') (A') (A') (A') (A') (A')
                 (A') (A') (A') (A') (A') (A') (A') (A') (A') (A')
                 (A') (A') (A') (A') (A') (A') (A') (A') (A') (A")
                 (A") (A") (A") (A") (A") (A") (A") (A") (A")
 Requested convergence on RMS density matrix=1.00D-08 within  64 cycles.
 Requested convergence on MAX density matrix=1.00D-06.
 Keep R1 and R2 integrals in memory in canonical form, NReq=     7330835.
 Integral accuracy reduced to 1.0D-05 until final iterations.
 Initial convergence to 1.0D-05 achieved.  Increase integral accuracy.
 SCF Done:  E(RB+HF-LYP) =  -38.9755270271     A.U. after   16 cycles
             Convg  =    0.6437D-08             -V/T =  2.2246
             S**2   =   0.0000

 **********************************************************************

            Population analysis using the SCF density.

 **********************************************************************

 Orbital Symmetries:
       Occupied  (A') (A') (A') (A') (A') (A') (A') (A") (A') (A')
                 (A") (A') (A")
       Virtual   (A') (A") (A') (A") (A') (A') (A') (A') (A') (A')
                 (A") (A') (A") (A') (A") (A') (A') (A') (A') (A')
                 (A") (A') (A') (A') (A") (A') (A') (A') (A') (A')
                 (A') (A') (A') (A') (A') (A') (A') (A') (A') (A")
                 (A") (A') (A") (A') (A') (A') (A') (A') (A") (A')
                 (A") (A') (A') (A') (A') (A') (A') (A') (A')
  The electronic state is 1-A'.
 Alpha  occ. eigenvalues --   -1.15341  -0.87143  -0.82977  -0.66465  -0.63725
 Alpha  occ. eigenvalues --   -0.58030  -0.49299  -0.49095  -0.45089  -0.41683
 Alpha  occ. eigenvalues --   -0.28275  -0.26718  -0.25625
 Alpha virt. eigenvalues --    0.03856   0.03909   0.08015   0.08930   0.09233
 Alpha virt. eigenvalues --    0.12115   0.18023   0.19712   0.21929   0.24273
 Alpha virt. eigenvalues --    0.28750   0.33856   0.34414   0.36554   0.40550
 Alpha virt. eigenvalues --    0.41727   0.43764   0.45884   0.50217   0.51057
 Alpha virt. eigenvalues --    0.52306   0.53118   0.55009   0.57518   0.60720
 Alpha virt. eigenvalues --    0.62895   0.68433   0.69801   0.72409   0.79116
 Alpha virt. eigenvalues --    0.82282   0.89314   0.91812   1.02335   1.09409
 Alpha virt. eigenvalues --    2.28145   2.34213   2.41474   2.45571   5.30965
 Alpha virt. eigenvalues --    5.45949   5.61783   5.68986   5.72064   5.77131
 Alpha virt. eigenvalues --    5.99518   6.21588   6.52120   7.89263   8.04776
 Alpha virt. eigenvalues --    8.19463   8.27470   8.61245   8.98118  32.14153
 Alpha virt. eigenvalues --   32.69067  33.24723  48.30350  49.04282
          Condensed to atoms (all electrons):
              1          2          3          4          5          6
  1  H    0.506479   0.285363   0.004956   0.004851  -0.001557   0.001304
  2  C    0.285363   4.057396  -0.140920   0.280413   0.011440   0.204660
  3  H    0.004956  -0.140920   0.603179   0.329562   0.000744  -0.062073
  4  C    0.004851   0.280413   0.329562   2.866552  -0.069703   0.465048
  5  H   -0.001557   0.011440   0.000744  -0.069703   0.559408   0.332358
  6  C    0.001304   0.204660  -0.062073   0.465048   0.332358   3.219854
  7  N    0.010932  -0.107807   0.016992  -0.086953  -0.031435   0.673934
  8  H    0.000295  -0.151848   0.001395   0.038611  -0.000916  -0.005483
  9  N   -0.014544   0.143827   0.026409  -0.047933   0.021729  -0.162805
              7          8          9
  1  H    0.010932   0.000295  -0.014544
  2  C   -0.107807  -0.151848   0.143827
  3  H    0.016992   0.001395   0.026409
  4  C   -0.086953   0.038611  -0.047933
  5  H   -0.031435  -0.000916   0.021729
  6  C    0.673934  -0.005483  -0.162805
  7  N    4.162322  -0.053544   0.293417
  8  H   -0.053544   0.466527   0.342689
  9  N    0.293417   0.342689   4.451468
 Total atomic charges:
              1
  1  H    0.201921
  2  C   -0.582524
  3  H    0.219757
  4  C    0.219553
  5  H    0.177932
  6  C   -0.666798
  7  N    0.122142
  8  H    0.362273
  9  N   -0.054257
 Sum of Mulliken charges=   0.00000
 Atomic charges with hydrogens summed into heavy atoms:
              1
  1  H    0.000000
  2  C   -0.380603
  3  H    0.000000
  4  C    0.439310
  5  H    0.000000
  6  C   -0.488865
  7  N    0.122142
  8  H    0.000000
  9  N    0.308016
 Sum of Mulliken charges=   0.00000
 Electronic spatial extent (au):  <R**2>=   216.7972
 Charge=     0.0000 electrons
 Dipole moment (Debye):
    X=     2.3378    Y=     0.9996    Z=     0.0000  Tot=     2.5426
 Quadrupole moment (Debye-Ang):
   XX=   -30.6915   YY=   -22.0321   ZZ=   -30.8387
   XY=     2.6969   XZ=     0.0000   YZ=     0.0000
 Octapole moment (Debye-Ang**2):
  XXX=     9.4271  YYY=    11.3850  ZZZ=     0.0000  XYY=     0.6610
  XXY=    -2.5909  XXZ=     0.0000  XZZ=    -0.8309  YZZ=     2.1717
  YYZ=     0.0000  XYZ=     0.0000
 Hexadecapole moment (Debye-Ang**3):
 XXXX=  -156.1894 YYYY=  -122.6037 ZZZZ=   -32.6566 XXXY=     7.6985
 XXXZ=     0.0000 YYYX=    -0.1112 YYYZ=     0.0000 ZZZX=     0.0000
 ZZZY=     0.0000 XXYY=   -48.0715 XXZZ=   -34.1023 YYZZ=   -33.6080
 XXYZ=     0.0000 YYXZ=     0.0000 ZZXY=    -0.2648
 N-N= 9.033520966671D+01 E-N=-2.687154345523D+02  KE= 3.182811969936D+01
 Symmetry A'   KE= 2.358814177547D+01
 Symmetry A"   KE= 8.239977923886D+00
   2 Symmetry operations used in ECPInt.
 ECPInt:  NShTT=     378 NPrTT=     837 LenC2=     379 LenP2D=     776.
 LDataN:  DoStor=F MaxTD1= 3 Len=   28
 LDataN:  DoStor=T MaxTD1= 3 Len=   28
 ***** Axes restored to original set *****
 -------------------------------------------------------------------
 Center     Atomic                   Forces (Hartrees/Bohr)
 Number     Number              X              Y              Z
 -------------------------------------------------------------------
    1          1          -0.073954962    0.000000000   -0.038316556
    2          6          -0.043927920    0.000000000   -0.079565156
    3          1           0.021397638    0.000000000   -0.079648138
    4          6          -0.005901101    0.000000000   -0.071858578
    5          1           0.080295541    0.000000000    0.011347690
    6          6           0.049065579    0.000000000    0.012561689
    7          7           0.115950712    0.000000000    0.174228747
    8          1          -0.057695847    0.000000000    0.059277280
    9          7          -0.085229641    0.000000000    0.011973022
 -------------------------------------------------------------------
 Cartesian Forces:  Max     0.174228747 RMS     0.059126224

 GradGradGradGradGradGradGradGradGradGradGradGradGradGradGradGradGradGrad
 Berny optimization.
 Internal  Forces:  Max     0.170772898 RMS     0.057420952
 Search for a local minimum.
 Step number   1 out of a maximum of  48
 All quantities printed in internal units (Hartrees-Bohrs-Radians)
 Second derivative matrix not updated -- first step.
     Eigenvalues ---    0.03204   0.03245   0.03263   0.03273   0.03342
     Eigenvalues ---    0.03375   0.16000   0.16000   0.16000   0.16000
     Eigenvalues ---    0.22000   0.22938   0.49374   0.49681   0.49740
     Eigenvalues ---    0.56490   0.56686   0.60708   0.68179   0.73042
     Eigenvalues ---    0.827791000.000001000.000001000.000001000.00000
     Eigenvalues --- 1000.000001000.000001000.000001000.000001000.00000
     Eigenvalues --- 1000.000001000.000001000.000001000.000001000.00000
     Eigenvalues --- 1000.000001000.000001000.00000
 RFO step:  Lambda=-1.53581187D-01.
 Linear search not attempted -- first point.
 Maximum step size (   0.300) exceeded in Quadratic search.
    -- Step size scaled by   0.676
 Iteration  1 RMS(Cart)=  0.06403039 RMS(Int)=  0.00055314
 Iteration  2 RMS(Cart)=  0.00066614 RMS(Int)=  0.00002015
 Iteration  3 RMS(Cart)=  0.00000030 RMS(Int)=  0.00002015
 Variable       Old X    -DE/DX   Delta X   Delta X   Delta X     New X
                                 (Linear)    (Quad)   (Total)
    R1        1.86889   0.08287   0.00000   0.08618   0.08618   1.95506
    R2        2.49307   0.10643   0.00000   0.08995   0.08992   2.58298
    R3        2.40839   0.14365   0.00000   0.10992   0.10990   2.51830
    R4        1.86829   0.08244   0.00000   0.08565   0.08565   1.95394
    R5        2.47696   0.15436   0.00000   0.12696   0.12696   2.60392
    R6        1.87202   0.08026   0.00000   0.08386   0.08386   1.95588
    R7        2.41851   0.10702   0.00000   0.08222   0.08225   2.50076
    R8        2.34237   0.17077   0.00000   0.11600   0.11603   2.45839
    R9        1.77084   0.08198   0.00000   0.07289   0.07289   1.84373
    A1        2.20252   0.01191   0.00000   0.02538   0.02540   2.22792
    A2        2.21295  -0.00369   0.00000  -0.00827  -0.00825   2.20471
    A3        1.86771  -0.00822   0.00000  -0.01711  -0.01716   1.85055
    A4        2.22327  -0.00578   0.00000  -0.00401  -0.00399   2.21928
    A5        1.83976   0.00705   0.00000  -0.00174  -0.00178   1.83798
    A6        2.22016  -0.00126   0.00000   0.00575   0.00577   2.22593
    A7        2.19731   0.00228   0.00000   0.01186   0.01185   2.20916
    A8        1.89479   0.01714   0.00000   0.02310   0.02312   1.91791
    A9        2.19108  -0.01943   0.00000  -0.03496  -0.03497   2.15611
   A10        1.88850  -0.02669   0.00000  -0.03434  -0.03427   1.85423
   A11        1.93402   0.01072   0.00000   0.03009   0.03009   1.96411
   A12        2.17185   0.00444   0.00000   0.00608   0.00608   2.17793
   A13        2.17732  -0.01515   0.00000  -0.03617  -0.03617   2.14115
    D1        0.00000   0.00000   0.00000   0.00000   0.00000   0.00000
    D2        3.14159   0.00000   0.00000   0.00000   0.00000   3.14159
    D3        3.14159   0.00000   0.00000   0.00000   0.00000   3.14159
    D4        0.00000   0.00000   0.00000   0.00000   0.00000   0.00000
    D5        3.14159   0.00000   0.00000   0.00000   0.00000   3.14159
    D6        0.00000   0.00000   0.00000   0.00000   0.00000   0.00000
    D7        0.00000   0.00000   0.00000   0.00000   0.00000   0.00000
    D8        3.14159   0.00000   0.00000   0.00000   0.00000   3.14159
    D9        3.14159   0.00000   0.00000   0.00000   0.00000   3.14159
   D10        0.00000   0.00000   0.00000   0.00000   0.00000   0.00000
   D11        0.00000   0.00000   0.00000   0.00000   0.00000   0.00000
   D12        3.14159   0.00000   0.00000   0.00000   0.00000   3.14159
   D13        0.00000   0.00000   0.00000   0.00000   0.00000   0.00000
   D14        3.14159   0.00000   0.00000   0.00000   0.00000   3.14159
   D15        0.00000   0.00000   0.00000   0.00000   0.00000   0.00000
   D16        3.14159   0.00000   0.00000   0.00000   0.00000   3.14159
         Item               Value     Threshold  Converged?
 Maximum Force            0.170773     0.000450     NO 
 RMS     Force            0.057421     0.000300     NO 
 Maximum Displacement     0.166655     0.001800     NO 
 RMS     Displacement     0.063980     0.001200     NO 
 Predicted change in Energy=-2.821531D-02
 GradGradGradGradGradGradGradGradGradGradGradGradGradGradGradGradGradGrad

                          Input orientation:                          
 ---------------------------------------------------------------------
 Center     Atomic     Atomic              Coordinates (Angstroms)
 Number     Number      Type              X           Y           Z
 ---------------------------------------------------------------------
    1          1             0       -1.802513    0.000000   -1.182133
    2          6             0       -0.925128    0.000000   -0.633917
    3          1             0        0.655336    0.000000   -2.099096
    4          6             0        0.356410    0.000000   -1.109269
    5          1             0        2.194570    0.000000    0.026851
    6          6             0        1.159698    0.000000    0.010299
    7          7             0        0.411055    0.000000    1.101525
    8          1             0       -1.581764    0.000000    1.310352
    9          7             0       -0.824695    0.000000    0.694919
 ---------------------------------------------------------------------
                    Distance matrix (angstroms):
                    1          2          3          4          5
     1  H    0.000000
     2  C    1.034576   0.000000
     3  H    2.623327   2.155137   0.000000
     4  C    2.160152   1.366857   1.033979   0.000000
     5  H    4.175921   3.188907   2.624669   2.160926   0.000000
     6  C    3.193210   2.182089   2.168854   1.377935   1.035005
     7  N    3.180406   2.190238   3.209929   2.211470   2.082270
     8  H    2.502242   2.052158   4.077861   3.100175   3.988493
     9  N    2.116472   1.332626   3.161805   2.156410   3.092293
                    6          7          8          9
     6  C    0.000000
     7  N    1.323344   0.000000
     8  H    3.034098   2.003731   0.000000
     9  N    2.099171   1.300925   0.975659   0.000000
 Stoichiometry    C3H4N2
 Framework group  CS[SG(C3H4N2)]
 Deg. of freedom   15
 Full point group                 CS      NOp   2
 Largest Abelian subgroup         CS      NOp   2
 Largest concise Abelian subgroup C1      NOp   1
                         Standard orientation:                         
 ---------------------------------------------------------------------
 Center     Atomic     Atomic              Coordinates (Angstroms)
 Number     Number      Type              X           Y           Z
 ---------------------------------------------------------------------
    1          1             0        2.064275    0.601639    0.000000
    2          6             0        1.078862    0.286509    0.000000
    3          1             0        1.175293   -1.866469    0.000000
    4          6             0        0.613237   -0.998594    0.000000
    5          1             0       -1.441773   -1.666829    0.000000
    6          6             0       -0.760243   -0.887886    0.000000
    7          7             0       -1.108992    0.388677    0.000000
    8          1             0        0.019744    2.044242    0.000000
    9          7             0        0.000000    1.068782    0.000000
 ---------------------------------------------------------------------
 Rotational constants (GHZ):     10.0426421      9.8300162      4.9675958
 Isotopes: H-1,C-12,H-1,C-12,H-1,C-12,N-14,H-1,N-14
 Standard basis: CEP-121G (6D, 10F)
 There are    57 symmetry adapted basis functions of A'  symmetry.
 There are    15 symmetry adapted basis functions of A"  symmetry.
 Crude estimate of integral set expansion from redundant integrals=1.000.
 Integral buffers will be    262144 words long.
 Raffenetti 2 integral format.
 Two-electron integral symmetry is turned on.
    72 basis functions      100 primitive gaussians
    13 alpha electrons       13 beta electrons
       nuclear repulsion energy        86.5955874631 Hartrees.
 One-electron integrals computed using PRISM.
   1 Symmetry operations used in ECPInt.
 ECPInt:  NShTT=     378 NPrTT=     837 LenC2=     379 LenP2D=     773.
 LDataN:  DoStor=F MaxTD1= 2 Len=   12
 LDataN:  DoStor=T MaxTD1= 2 Len=   12
 NBasis=    72 RedAO= T  NBF=    57    15
 NBsUse=    72 1.00D-04 NBFU=    57    15
 Initial guess read from the read-write file:
 Initial guess orbital symmetries:
       Occupied  (A') (A') (A') (A') (A') (A') (A') (A") (A') (A')
                 (A") (A') (A")
       Virtual   (A') (A") (A') (A") (A') (A') (A') (A') (A') (A')
                 (A") (A') (A") (A') (A") (A') (A') (A') (A') (A')
                 (A") (A') (A') (A') (A") (A') (A') (A') (A') (A')
                 (A') (A') (A') (A') (A') (A') (A') (A') (A') (A")
                 (A") (A') (A") (A') (A') (A') (A') (A') (A") (A')
                 (A") (A') (A') (A') (A') (A') (A') (A') (A')
 Requested convergence on RMS density matrix=1.00D-08 within  64 cycles.
 Requested convergence on MAX density matrix=1.00D-06.
 Keep R1 and R2 integrals in memory in canonical form, NReq=     7330835.
 Integral accuracy reduced to 1.0D-05 until final iterations.
 Initial convergence to 1.0D-05 achieved.  Increase integral accuracy.
 SCF Done:  E(RB+HF-LYP) =  -39.0479120302     A.U. after   14 cycles
             Convg  =    0.9292D-08             -V/T =  2.2700
             S**2   =   0.0000
   2 Symmetry operations used in ECPInt.
 ECPInt:  NShTT=     378 NPrTT=     837 LenC2=     379 LenP2D=     773.
 LDataN:  DoStor=F MaxTD1= 3 Len=   28
 LDataN:  DoStor=T MaxTD1= 3 Len=   28
 ***** Axes restored to original set *****
 -------------------------------------------------------------------
 Center     Atomic                   Forces (Hartrees/Bohr)
 Number     Number              X              Y              Z
 -------------------------------------------------------------------
    1          1          -0.034533378    0.000000000   -0.013353278
    2          6          -0.006627663    0.000000000   -0.034689363
    3          1           0.009793568    0.000000000   -0.035330309
    4          6          -0.002838333    0.000000000   -0.022613727
    5          1           0.035555720    0.000000000    0.008075787
    6          6           0.013445597    0.000000000   -0.004081883
    7          7           0.057768523    0.000000000    0.077468320
    8          1          -0.021289358    0.000000000    0.027353289
    9          7          -0.051274677    0.000000000   -0.002828834
 -------------------------------------------------------------------
 Cartesian Forces:  Max     0.077468320 RMS     0.026656716

 GradGradGradGradGradGradGradGradGradGradGradGradGradGradGradGradGradGrad
 Berny optimization.
 Internal  Forces:  Max     0.079124346 RMS     0.024352857
 Search for a local minimum.
 Step number   2 out of a maximum of  48
 All quantities printed in internal units (Hartrees-Bohrs-Radians)
 Update second derivatives using information from points  1  2
 Trust test= 2.57D+00 RLast= 3.00D-01 DXMaxT set to 4.24D-01
     Eigenvalues ---    0.03204   0.03246   0.03261   0.03273   0.03342
     Eigenvalues ---    0.03375   0.15926   0.16000   0.16000   0.16011
     Eigenvalues ---    0.22024   0.23222   0.49441   0.49711   0.50199
     Eigenvalues ---    0.57260   0.58436   0.61433   0.68411   0.75214
     Eigenvalues ---    0.807701000.000001000.000001000.000001000.00000
     Eigenvalues --- 1000.000001000.000001000.000001000.000001000.00000
     Eigenvalues --- 1000.000001000.000001000.000001000.000001000.00000
     Eigenvalues --- 1000.000001000.000001000.00000
 RFO step:  Lambda=-3.74670554D-03.
 Quartic linear search produced a step of  1.01549.
 Iteration  1 RMS(Cart)=  0.07230348 RMS(Int)=  0.00185903
 Iteration  2 RMS(Cart)=  0.00231971 RMS(Int)=  0.00012860
 Iteration  3 RMS(Cart)=  0.00000485 RMS(Int)=  0.00012852
 Iteration  4 RMS(Cart)=  0.00000000 RMS(Int)=  0.00012852
 Variable       Old X    -DE/DX   Delta X   Delta X   Delta X     New X
                                 (Linear)    (Quad)   (Total)
    R1        1.95506   0.03636   0.08751   0.01188   0.09939   2.05446
    R2        2.58298   0.04199   0.09131  -0.01057   0.08052   2.66351
    R3        2.51830   0.05733   0.11161  -0.01069   0.10082   2.61912
    R4        1.95394   0.03665   0.08697   0.01371   0.10069   2.05462
    R5        2.60392   0.05940   0.12893  -0.02007   0.10884   2.71276
    R6        1.95588   0.03568   0.08515   0.01361   0.09876   2.05464
    R7        2.50076   0.04499   0.08352  -0.00199   0.08172   2.58248
    R8        2.45839   0.07912   0.11782   0.01182   0.12979   2.58818
    R9        1.84373   0.03377   0.07402  -0.00140   0.07262   1.91635
    A1        2.22792   0.00721   0.02580   0.04852   0.07448   2.30241
    A2        2.20471  -0.00643  -0.00837  -0.06186  -0.07007   2.13464
    A3        1.85055  -0.00077  -0.01743   0.01335  -0.00441   1.84614
    A4        2.21928  -0.00261  -0.00405   0.00295  -0.00097   2.21831
    A5        1.83798   0.00358  -0.00181  -0.00945  -0.01154   1.82644
    A6        2.22593  -0.00097   0.00586   0.00651   0.01250   2.23843
    A7        2.20916   0.00305   0.01203   0.04243   0.05440   2.26356
    A8        1.91791   0.00857   0.02348   0.01575   0.03935   1.95726
    A9        2.15611  -0.01162  -0.03551  -0.05818  -0.09375   2.06236
   A10        1.85423  -0.01248  -0.03480  -0.01204  -0.04638   1.80784
   A11        1.96411   0.00110   0.03056  -0.00760   0.02298   1.98709
   A12        2.17793   0.00664   0.00617   0.05618   0.06235   2.24027
   A13        2.14115  -0.00774  -0.03673  -0.04858  -0.08533   2.05582
    D1        0.00000   0.00000   0.00000   0.00000   0.00000   0.00000
    D2        3.14159   0.00000   0.00000   0.00000   0.00000   3.14159
    D3        3.14159   0.00000   0.00000   0.00000   0.00000   3.14159
    D4        0.00000   0.00000   0.00000   0.00000   0.00000   0.00000
    D5        3.14159   0.00000   0.00000   0.00000   0.00000   3.14159
    D6        0.00000   0.00000   0.00000   0.00000   0.00000   0.00000
    D7        0.00000   0.00000   0.00000   0.00000   0.00000   0.00000
    D8        3.14159   0.00000   0.00000   0.00000   0.00000   3.14159
    D9        3.14159   0.00000   0.00000   0.00000   0.00000   3.14159
   D10        0.00000   0.00000   0.00000   0.00000   0.00000   0.00000
   D11        0.00000   0.00000   0.00000   0.00000   0.00000   0.00000
   D12       -3.14159   0.00000   0.00000   0.00000   0.00000  -3.14159
   D13        0.00000   0.00000   0.00000   0.00000   0.00000   0.00000
   D14        3.14159   0.00000   0.00000   0.00000   0.00000   3.14159
   D15        0.00000   0.00000   0.00000   0.00000   0.00000   0.00000
   D16        3.14159   0.00000   0.00000   0.00000   0.00000   3.14159
         Item               Value     Threshold  Converged?
 Maximum Force            0.079124     0.000450     NO 
 RMS     Force            0.024353     0.000300     NO 
 Maximum Displacement     0.209620     0.001800     NO 
 RMS     Displacement     0.072226     0.001200     NO 
 Predicted change in Energy=-3.273816D-02
 GradGradGradGradGradGradGradGradGradGradGradGradGradGradGradGradGradGrad

                          Input orientation:                          
 ---------------------------------------------------------------------
 Center     Atomic     Atomic              Coordinates (Angstroms)
 Number     Number      Type              X           Y           Z
 ---------------------------------------------------------------------
    1          1             0       -1.904260    0.000000   -1.197705
    2          6             0       -0.944615    0.000000   -0.686800
    3          1             0        0.698178    0.000000   -2.209539
    4          6             0        0.379417    0.000000   -1.170055
    5          1             0        2.279751    0.000000    0.104818
    6          6             0        1.196610    0.000000    0.010173
    7          7             0        0.449147    0.000000    1.154232
    8          1             0       -1.587356    0.000000    1.382169
    9          7             0       -0.841291    0.000000    0.695323
 ---------------------------------------------------------------------
                    Distance matrix (angstroms):
                    1          2          3          4          5
     1  H    0.000000
     2  C    1.087172   0.000000
     3  H    2.792220   2.239979   0.000000
     4  C    2.283845   1.409467   1.087261   0.000000
     5  H    4.382068   3.320120   2.803145   2.288355   0.000000
     6  C    3.327818   2.251804   2.274985   1.435529   1.087268
     7  N    3.327181   2.309106   3.372976   2.325332   2.110067
     8  H    2.599265   2.166506   4.257233   3.222118   4.072609
     9  N    2.171050   1.385979   3.287581   2.229296   3.176413
                    6          7          8          9
     6  C    0.000000
     7  N    1.366591   0.000000
     8  H    3.103682   2.049219   0.000000
     9  N    2.149994   1.369608   1.014087   0.000000
 Stoichiometry    C3H4N2
 Framework group  CS[SG(C3H4N2)]
 Deg. of freedom   15
 Full point group                 CS      NOp   2
 Largest Abelian subgroup         CS      NOp   2
 Largest concise Abelian subgroup C1      NOp   1
                         Standard orientation:                         
 ---------------------------------------------------------------------
 Center     Atomic     Atomic              Coordinates (Angstroms)
 Number     Number      Type              X           Y           Z
 ---------------------------------------------------------------------
    1          1             0        2.136167    0.706792    0.000000
    2          6             0        1.130809    0.293032    0.000000
    3          1             0        1.256954   -1.943392    0.000000
    4          6             0        0.659200   -1.035194    0.000000
    5          1             0       -1.534422   -1.686802    0.000000
    6          6             0       -0.771081   -0.912553    0.000000
    7          7             0       -1.176148    0.392626    0.000000
    8          1             0       -0.053669    2.107077    0.000000
    9          7             0        0.000000    1.094411    0.000000
 ---------------------------------------------------------------------
 Rotational constants (GHZ):      9.3346115      9.0455679      4.5939085
 Isotopes: H-1,C-12,H-1,C-12,H-1,C-12,N-14,H-1,N-14
 Standard basis: CEP-121G (6D, 10F)
 There are    57 symmetry adapted basis functions of A'  symmetry.
 There are    15 symmetry adapted basis functions of A"  symmetry.
 Crude estimate of integral set expansion from redundant integrals=1.000.
 Integral buffers will be    262144 words long.
 Raffenetti 2 integral format.
 Two-electron integral symmetry is turned on.
    72 basis functions      100 primitive gaussians
    13 alpha electrons       13 beta electrons
       nuclear repulsion energy        83.2146772983 Hartrees.
 One-electron integrals computed using PRISM.
   1 Symmetry operations used in ECPInt.
 ECPInt:  NShTT=     378 NPrTT=     837 LenC2=     379 LenP2D=     773.
 LDataN:  DoStor=F MaxTD1= 2 Len=   12
 LDataN:  DoStor=T MaxTD1= 2 Len=   12
 NBasis=    72 RedAO= T  NBF=    57    15
 NBsUse=    72 1.00D-04 NBFU=    57    15
 Initial guess read from the read-write file:
 Initial guess orbital symmetries:
       Occupied  (A') (A') (A') (A') (A') (A') (A') (A") (A') (A')
                 (A') (A") (A")
       Virtual   (A") (A') (A") (A') (A') (A') (A') (A') (A') (A')
                 (A") (A') (A') (A") (A') (A") (A') (A') (A') (A')
                 (A") (A') (A') (A') (A") (A') (A') (A') (A') (A')
                 (A') (A') (A') (A') (A') (A') (A') (A') (A') (A")
                 (A") (A') (A") (A') (A') (A') (A') (A') (A") (A')
                 (A") (A') (A') (A') (A') (A') (A') (A') (A')
 Requested convergence on RMS density matrix=1.00D-08 within  64 cycles.
 Requested convergence on MAX density matrix=1.00D-06.
 Keep R1 and R2 integrals in memory in canonical form, NReq=     7330835.
 Integral accuracy reduced to 1.0D-05 until final iterations.
 Initial convergence to 1.0D-05 achieved.  Increase integral accuracy.
 SCF Done:  E(RB+HF-LYP) =  -39.0695140362     A.U. after   15 cycles
             Convg  =    0.3406D-08             -V/T =  2.3114
             S**2   =   0.0000
   2 Symmetry operations used in ECPInt.
 ECPInt:  NShTT=     378 NPrTT=     837 LenC2=     379 LenP2D=     773.
 LDataN:  DoStor=F MaxTD1= 3 Len=   28
 LDataN:  DoStor=T MaxTD1= 3 Len=   28
 ***** Axes restored to original set *****
 -------------------------------------------------------------------
 Center     Atomic                   Forces (Hartrees/Bohr)
 Number     Number              X              Y              Z
 -------------------------------------------------------------------
    1          1           0.003825784    0.000000000    0.002062390
    2          6           0.002820575    0.000000000   -0.002593135
    3          1          -0.001056579    0.000000000    0.004857096
    4          6          -0.003956926    0.000000000    0.000868654
    5          1          -0.003838885    0.000000000   -0.002131749
    6          6           0.007876669    0.000000000    0.001711091
    7          7           0.014812749    0.000000000   -0.002156601
    8          1           0.001099998    0.000000000   -0.004149643
    9          7          -0.021583383    0.000000000    0.001531898
 -------------------------------------------------------------------
 Cartesian Forces:  Max     0.021583383 RMS     0.005675248

 GradGradGradGradGradGradGradGradGradGradGradGradGradGradGradGradGradGrad
 Berny optimization.
 Internal  Forces:  Max     0.015799837 RMS     0.003516125
 Search for a local minimum.
 Step number   3 out of a maximum of  48
 All quantities printed in internal units (Hartrees-Bohrs-Radians)
 Update second derivatives using information from points  2  3
 Trust test= 6.60D-01 RLast= 3.54D-01 DXMaxT set to 4.24D-01
     Eigenvalues ---    0.03203   0.03248   0.03251   0.03273   0.03342
     Eigenvalues ---    0.03372   0.15526   0.16000   0.16003   0.16033
     Eigenvalues ---    0.22074   0.23298   0.46038   0.49502   0.49714
     Eigenvalues ---    0.57582   0.58830   0.59370   0.64358   0.68649
     Eigenvalues ---    0.805481000.000001000.000001000.000001000.00000
     Eigenvalues --- 1000.000001000.000001000.000001000.000001000.00000
     Eigenvalues --- 1000.000001000.000001000.000001000.000001000.00000
     Eigenvalues --- 1000.000001000.000001000.00000
 RFO step:  Lambda=-9.02701042D-04.
 Quartic linear search produced a step of -0.03471.
 Iteration  1 RMS(Cart)=  0.01103766 RMS(Int)=  0.00006116
 Iteration  2 RMS(Cart)=  0.00006875 RMS(Int)=  0.00001223
 Iteration  3 RMS(Cart)=  0.00000000 RMS(Int)=  0.00001223
 Variable       Old X    -DE/DX   Delta X   Delta X   Delta X     New X
                                 (Linear)    (Quad)   (Total)
    R1        2.05446  -0.00435  -0.00345  -0.00445  -0.00790   2.04656
    R2        2.66351  -0.00339  -0.00279  -0.00333  -0.00611   2.65740
    R3        2.61912  -0.00225  -0.00350   0.00233  -0.00115   2.61797
    R4        2.05462  -0.00495  -0.00349  -0.00559  -0.00908   2.04554
    R5        2.71276  -0.00134  -0.00378   0.00131  -0.00248   2.71028
    R6        2.05464  -0.00401  -0.00343  -0.00390  -0.00733   2.04731
    R7        2.58248  -0.00141  -0.00284   0.00216  -0.00069   2.58179
    R8        2.58818   0.01580  -0.00450   0.02449   0.01998   2.60817
    R9        1.91635  -0.00362  -0.00252  -0.00263  -0.00515   1.91120
    A1        2.30241  -0.00105  -0.00258  -0.00133  -0.00394   2.29847
    A2        2.13464  -0.00110   0.00243  -0.00483  -0.00241   2.13222
    A3        1.84614   0.00215   0.00015   0.00616   0.00635   1.85249
    A4        2.21831  -0.00204   0.00003  -0.00349  -0.00346   2.21485
    A5        1.82644   0.00492   0.00040   0.01167   0.01207   1.83851
    A6        2.23843  -0.00288  -0.00043  -0.00818  -0.00861   2.22982
    A7        2.26356  -0.00044  -0.00189  -0.00233  -0.00420   2.25936
    A8        1.95726  -0.00280  -0.00137  -0.01399  -0.01538   1.94188
    A9        2.06236   0.00324   0.00325   0.01632   0.01959   2.08195
   A10        1.80784   0.00165   0.00161   0.01420   0.01579   1.82363
   A11        1.98709  -0.00592  -0.00080  -0.01805  -0.01883   1.96826
   A12        2.24027   0.00075  -0.00216  -0.00254  -0.00472   2.23555
   A13        2.05582   0.00517   0.00296   0.02060   0.02355   2.07937
    D1        0.00000   0.00000   0.00000   0.00000   0.00000   0.00000
    D2        3.14159   0.00000   0.00000   0.00000   0.00000   3.14159
    D3        3.14159   0.00000   0.00000   0.00000   0.00000   3.14159
    D4        0.00000   0.00000   0.00000   0.00000   0.00000   0.00000
    D5        3.14159   0.00000   0.00000   0.00000   0.00000   3.14159
    D6        0.00000   0.00000   0.00000   0.00000   0.00000   0.00000
    D7        0.00000   0.00000   0.00000   0.00000   0.00000   0.00000
    D8        3.14159   0.00000   0.00000   0.00000   0.00000   3.14159
    D9        3.14159   0.00000   0.00000   0.00000   0.00000   3.14159
   D10        0.00000   0.00000   0.00000   0.00000   0.00000   0.00000
   D11        0.00000   0.00000   0.00000   0.00000   0.00000   0.00000
   D12        3.14159   0.00000   0.00000   0.00000   0.00000   3.14159
   D13        0.00000   0.00000   0.00000   0.00000   0.00000   0.00000
   D14        3.14159   0.00000   0.00000   0.00000   0.00000   3.14159
   D15        0.00000   0.00000   0.00000   0.00000   0.00000   0.00000
   D16        3.14159   0.00000   0.00000   0.00000   0.00000   3.14159
         Item               Value     Threshold  Converged?
 Maximum Force            0.015800     0.000450     NO 
 RMS     Force            0.003516     0.000300     NO 
 Maximum Displacement     0.032736     0.001800     NO 
 RMS     Displacement     0.011024     0.001200     NO 
 Predicted change in Energy=-4.794382D-04
 GradGradGradGradGradGradGradGradGradGradGradGradGradGradGradGradGradGrad

                          Input orientation:                          
 ---------------------------------------------------------------------
 Center     Atomic     Atomic              Coordinates (Angstroms)
 Number     Number      Type              X           Y           Z
 ---------------------------------------------------------------------
    1          1             0       -1.898082    0.000000   -1.194868
    2          6             0       -0.945220    0.000000   -0.680159
    3          1             0        0.692741    0.000000   -2.194837
    4          6             0        0.376788    0.000000   -1.159521
    5          1             0        2.285451    0.000000    0.090441
    6          6             0        1.204946    0.000000    0.011436
    7          7             0        0.451499    0.000000    1.151121
    8          1             0       -1.606650    0.000000    1.377319
    9          7             0       -0.853629    0.000000    0.702180
 ---------------------------------------------------------------------
                    Distance matrix (angstroms):
                    1          2          3          4          5
     1  H    0.000000
     2  C    1.082992   0.000000
     3  H    2.777103   2.230956   0.000000
     4  C    2.275145   1.406234   1.082454   0.000000
     5  H    4.376524   3.321304   2.785538   2.281534   0.000000
     6  C    3.329257   2.258654   2.264949   1.434219   1.083390
     7  N    3.320270   2.303130   3.354644   2.311850   2.118590
     8  H    2.588644   2.161181   4.248235   3.220184   4.099330
     9  N    2.165565   1.385369   3.283895   2.231559   3.198131
                    6          7          8          9
     6  C    0.000000
     7  N    1.366223   0.000000
     8  H    3.125813   2.070542   0.000000
     9  N    2.171372   1.380183   1.011363   0.000000
 Stoichiometry    C3H4N2
 Framework group  CS[SG(C3H4N2)]
 Deg. of freedom   15
 Full point group                 CS      NOp   2
 Largest Abelian subgroup         CS      NOp   2
 Largest concise Abelian subgroup C1      NOp   1
                         Standard orientation:                         
 ---------------------------------------------------------------------
 Center     Atomic     Atomic              Coordinates (Angstroms)
 Number     Number      Type              X           Y           Z
 ---------------------------------------------------------------------
    1          1             0        2.128996    0.708520    0.000000
    2          6             0        1.126594    0.298567    0.000000
    3          1             0        1.258142   -1.928508    0.000000
    4          6             0        0.658351   -1.027421    0.000000
    5          1             0       -1.518787   -1.709671    0.000000
    6          6             0       -0.772178   -0.924618    0.000000
    7          7             0       -1.175066    0.380850    0.000000
    8          1             0       -0.044086    2.115216    0.000000
    9          7             0        0.000000    1.104815    0.000000
 ---------------------------------------------------------------------
 Rotational constants (GHZ):      9.2270198      9.1257449      4.5880515
 Isotopes: H-1,C-12,H-1,C-12,H-1,C-12,N-14,H-1,N-14
 Standard basis: CEP-121G (6D, 10F)
 There are    57 symmetry adapted basis functions of A'  symmetry.
 There are    15 symmetry adapted basis functions of A"  symmetry.
 Crude estimate of integral set expansion from redundant integrals=1.000.
 Integral buffers will be    262144 words long.
 Raffenetti 2 integral format.
 Two-electron integral symmetry is turned on.
    72 basis functions      100 primitive gaussians
    13 alpha electrons       13 beta electrons
       nuclear repulsion energy        83.1695138592 Hartrees.
 One-electron integrals computed using PRISM.
   1 Symmetry operations used in ECPInt.
 ECPInt:  NShTT=     378 NPrTT=     837 LenC2=     379 LenP2D=     773.
 LDataN:  DoStor=F MaxTD1= 2 Len=   12
 LDataN:  DoStor=T MaxTD1= 2 Len=   12
 NBasis=    72 RedAO= T  NBF=    57    15
 NBsUse=    72 1.00D-04 NBFU=    57    15
 Initial guess read from the read-write file:
 Initial guess orbital symmetries:
       Occupied  (A') (A') (A') (A') (A') (A') (A') (A") (A') (A')
                 (A') (A") (A")
       Virtual   (A") (A') (A") (A') (A') (A') (A') (A') (A') (A')
                 (A") (A') (A') (A') (A") (A') (A") (A') (A') (A')
                 (A') (A") (A') (A') (A') (A") (A') (A') (A') (A')
                 (A') (A') (A') (A') (A') (A') (A') (A') (A') (A")
                 (A") (A') (A') (A") (A') (A') (A') (A') (A") (A')
                 (A") (A') (A') (A') (A') (A') (A') (A') (A')
 Requested convergence on RMS density matrix=1.00D-08 within  64 cycles.
 Requested convergence on MAX density matrix=1.00D-06.
 Keep R1 and R2 integrals in memory in canonical form, NReq=     7330835.
 Integral accuracy reduced to 1.0D-05 until final iterations.
 Initial convergence to 1.0D-05 achieved.  Increase integral accuracy.
 SCF Done:  E(RB+HF-LYP) =  -39.0699896934     A.U. after   13 cycles
             Convg  =    0.3577D-08             -V/T =  2.3112
             S**2   =   0.0000
   2 Symmetry operations used in ECPInt.
 ECPInt:  NShTT=     378 NPrTT=     837 LenC2=     379 LenP2D=     773.
 LDataN:  DoStor=F MaxTD1= 3 Len=   28
 LDataN:  DoStor=T MaxTD1= 3 Len=   28
 ***** Axes restored to original set *****
 -------------------------------------------------------------------
 Center     Atomic                   Forces (Hartrees/Bohr)
 Number     Number              X              Y              Z
 -------------------------------------------------------------------
    1          1           0.001321630    0.000000000    0.000383151
    2          6           0.002542527    0.000000000   -0.001795453
    3          1          -0.000459271    0.000000000    0.001314371
    4          6          -0.002742557    0.000000000   -0.001266471
    5          1          -0.001731171    0.000000000   -0.000111130
    6          6          -0.004072099    0.000000000    0.001626244
    7          7           0.010083356    0.000000000    0.004709457
    8          1           0.001574235    0.000000000   -0.000714767
    9          7          -0.006516649    0.000000000   -0.004145401
 -------------------------------------------------------------------
 Cartesian Forces:  Max     0.010083356 RMS     0.002927360

 GradGradGradGradGradGradGradGradGradGradGradGradGradGradGradGradGradGrad
 Berny optimization.
 Internal  Forces:  Max     0.006711593 RMS     0.001821433
 Search for a local minimum.
 Step number   4 out of a maximum of  48
 All quantities printed in internal units (Hartrees-Bohrs-Radians)
 Update second derivatives using information from points  2  3  4
 Trust test= 9.92D-01 RLast= 5.27D-02 DXMaxT set to 4.24D-01
     Eigenvalues ---    0.03203   0.03247   0.03251   0.03273   0.03341
     Eigenvalues ---    0.03372   0.15069   0.15954   0.16001   0.16097
     Eigenvalues ---    0.22054   0.35755   0.40780   0.47098   0.49566
     Eigenvalues ---    0.49761   0.57861   0.59982   0.61496   0.71087
     Eigenvalues ---    0.739561000.000001000.000001000.000001000.00000
     Eigenvalues --- 1000.000001000.000001000.000001000.000001000.00000
     Eigenvalues --- 1000.000001000.000001000.000001000.000001000.00000
     Eigenvalues --- 1000.000001000.000001000.00000
 RFO step:  Lambda=-2.92813815D-04.
 Quartic linear search produced a step of  0.01047.
 Iteration  1 RMS(Cart)=  0.00487513 RMS(Int)=  0.00001770
 Iteration  2 RMS(Cart)=  0.00002138 RMS(Int)=  0.00000694
 Iteration  3 RMS(Cart)=  0.00000000 RMS(Int)=  0.00000694
 Variable       Old X    -DE/DX   Delta X   Delta X   Delta X     New X
                                 (Linear)    (Quad)   (Total)
    R1        2.04656  -0.00134  -0.00008  -0.00431  -0.00439   2.04216
    R2        2.65740  -0.00468  -0.00006  -0.00949  -0.00956   2.64783
    R3        2.61797  -0.00013  -0.00001   0.00077   0.00074   2.61871
    R4        2.04554  -0.00139  -0.00010  -0.00476  -0.00486   2.04069
    R5        2.71028   0.00055  -0.00003   0.00025   0.00023   2.71051
    R6        2.04731  -0.00173  -0.00008  -0.00496  -0.00504   2.04227
    R7        2.58179  -0.00252  -0.00001  -0.00291  -0.00291   2.57888
    R8        2.60817   0.00671   0.00021   0.01584   0.01605   2.62421
    R9        1.91120  -0.00165  -0.00005  -0.00371  -0.00377   1.90743
    A1        2.29847  -0.00030  -0.00004  -0.00185  -0.00188   2.29659
    A2        2.13222   0.00029  -0.00003   0.00108   0.00106   2.13329
    A3        1.85249   0.00001   0.00007   0.00077   0.00082   1.85331
    A4        2.21485  -0.00013  -0.00004   0.00059   0.00056   2.21541
    A5        1.83851   0.00013   0.00013  -0.00049  -0.00037   1.83814
    A6        2.22982   0.00000  -0.00009  -0.00010  -0.00019   2.22963
    A7        2.25936  -0.00172  -0.00004  -0.00750  -0.00755   2.25181
    A8        1.94188   0.00346  -0.00016   0.00910   0.00895   1.95083
    A9        2.08195  -0.00174   0.00021  -0.00160  -0.00140   2.08054
   A10        1.82363  -0.00473   0.00017  -0.01184  -0.01166   1.81197
   A11        1.96826   0.00112  -0.00020   0.00247   0.00226   1.97052
   A12        2.23555  -0.00006  -0.00005  -0.00180  -0.00184   2.23371
   A13        2.07937  -0.00106   0.00025  -0.00067  -0.00042   2.07895
    D1        0.00000   0.00000   0.00000   0.00000   0.00000   0.00000
    D2        3.14159   0.00000   0.00000   0.00000   0.00000   3.14159
    D3        3.14159   0.00000   0.00000   0.00000   0.00000   3.14159
    D4        0.00000   0.00000   0.00000   0.00000   0.00000   0.00000
    D5        3.14159   0.00000   0.00000   0.00000   0.00000   3.14159
    D6        0.00000   0.00000   0.00000   0.00000   0.00000   0.00000
    D7        0.00000   0.00000   0.00000   0.00000   0.00000   0.00000
    D8        3.14159   0.00000   0.00000   0.00000   0.00000   3.14159
    D9        3.14159   0.00000   0.00000   0.00000   0.00000   3.14159
   D10        0.00000   0.00000   0.00000   0.00000   0.00000   0.00000
   D11        0.00000   0.00000   0.00000   0.00000   0.00000   0.00000
   D12        3.14159   0.00000   0.00000   0.00000   0.00000   3.14159
   D13        0.00000   0.00000   0.00000   0.00000   0.00000   0.00000
   D14        3.14159   0.00000   0.00000   0.00000   0.00000   3.14159
   D15        0.00000   0.00000   0.00000   0.00000   0.00000   0.00000
   D16        3.14159   0.00000   0.00000   0.00000   0.00000   3.14159
         Item               Value     Threshold  Converged?
 Maximum Force            0.006712     0.000450     NO 
 RMS     Force            0.001821     0.000300     NO 
 Maximum Displacement     0.012808     0.001800     NO 
 RMS     Displacement     0.004876     0.001200     NO 
 Predicted change in Energy=-1.463447D-04
 GradGradGradGradGradGradGradGradGradGradGradGradGradGradGradGradGradGrad

                          Input orientation:                          
 ---------------------------------------------------------------------
 Center     Atomic     Atomic              Coordinates (Angstroms)
 Number     Number      Type              X           Y           Z
 ---------------------------------------------------------------------
    1          1             0       -1.893248    0.000000   -1.198220
    2          6             0       -0.943599    0.000000   -0.682462
    3          1             0        0.690016    0.000000   -2.192146
    4          6             0        0.373837    0.000000   -1.159586
    5          1             0        2.279536    0.000000    0.083587
    6          6             0        1.201178    0.000000    0.012099
    7          7             0        0.457935    0.000000    1.156631
    8          1             0       -1.607233    0.000000    1.371897
    9          7             0       -0.853648    0.000000    0.700379
 ---------------------------------------------------------------------
                    Distance matrix (angstroms):
                    1          2          3          4          5
     1  H    0.000000
     2  C    1.080666   0.000000
     3  H    2.767877   2.224376   0.000000
     4  C    2.267414   1.401173   1.079884   0.000000
     5  H    4.365221   3.312918   2.775884   2.275339   0.000000
     6  C    3.322701   2.254436   2.262738   1.434343   1.080725
     7  N    3.327670   2.312263   3.356810   2.317744   2.114155
     8  H    2.585983   2.158888   4.240255   3.214505   4.094717
     9  N    2.164590   1.385763   3.278659   2.228495   3.193316
                    6          7          8          9
     6  C    0.000000
     7  N    1.364685   0.000000
     8  H    3.120292   2.076357   0.000000
     9  N    2.167034   1.388674   1.009369   0.000000
 Stoichiometry    C3H4N2
 Framework group  CS[SG(C3H4N2)]
 Deg. of freedom   15
 Full point group                 CS      NOp   2
 Largest Abelian subgroup         CS      NOp   2
 Largest concise Abelian subgroup C1      NOp   1
                         Standard orientation:                         
 ---------------------------------------------------------------------
 Center     Atomic     Atomic              Coordinates (Angstroms)
 Number     Number      Type              X           Y           Z
 ---------------------------------------------------------------------
    1          1             0        2.127676    0.705884    0.000000
    2          6             0        1.127072    0.297679    0.000000
    3          1             0        1.260626   -1.922684    0.000000
    4          6             0        0.661852   -1.024008    0.000000
    5          1             0       -1.507199   -1.711313    0.000000
    6          6             0       -0.768867   -0.922115    0.000000
    7          7             0       -1.183797    0.377960    0.000000
    8          1             0       -0.042341    2.112416    0.000000
    9          7             0        0.000000    1.103935    0.000000
 ---------------------------------------------------------------------
 Rotational constants (GHZ):      9.2698251      9.0805276      4.5871000
 Isotopes: H-1,C-12,H-1,C-12,H-1,C-12,N-14,H-1,N-14
 Standard basis: CEP-121G (6D, 10F)
 There are    57 symmetry adapted basis functions of A'  symmetry.
 There are    15 symmetry adapted basis functions of A"  symmetry.
 Crude estimate of integral set expansion from redundant integrals=1.000.
 Integral buffers will be    262144 words long.
 Raffenetti 2 integral format.
 Two-electron integral symmetry is turned on.
    72 basis functions      100 primitive gaussians
    13 alpha electrons       13 beta electrons
       nuclear repulsion energy        83.1687749815 Hartrees.
 One-electron integrals computed using PRISM.
   1 Symmetry operations used in ECPInt.
 ECPInt:  NShTT=     378 NPrTT=     837 LenC2=     379 LenP2D=     773.
 LDataN:  DoStor=F MaxTD1= 2 Len=   12
 LDataN:  DoStor=T MaxTD1= 2 Len=   12
 NBasis=    72 RedAO= T  NBF=    57    15
 NBsUse=    72 1.00D-04 NBFU=    57    15
 Initial guess read from the read-write file:
 Initial guess orbital symmetries:
       Occupied  (A') (A') (A') (A') (A') (A') (A') (A') (A") (A')
                 (A') (A") (A")
       Virtual   (A") (A') (A") (A') (A') (A') (A') (A') (A') (A')
                 (A") (A') (A') (A") (A') (A') (A") (A') (A') (A')
                 (A') (A") (A') (A') (A') (A") (A') (A') (A') (A')
                 (A') (A') (A') (A') (A') (A') (A') (A') (A') (A")
                 (A") (A') (A') (A") (A') (A') (A') (A') (A") (A')
                 (A") (A') (A') (A') (A') (A') (A') (A') (A')
 Requested convergence on RMS density matrix=1.00D-08 within  64 cycles.
 Requested convergence on MAX density matrix=1.00D-06.
 Keep R1 and R2 integrals in memory in canonical form, NReq=     7330835.
 SCF Done:  E(RB+HF-LYP) =  -39.0701611966     A.U. after   11 cycles
             Convg  =    0.1494D-08             -V/T =  2.3110
             S**2   =   0.0000
   2 Symmetry operations used in ECPInt.
 ECPInt:  NShTT=     378 NPrTT=     837 LenC2=     379 LenP2D=     773.
 LDataN:  DoStor=F MaxTD1= 3 Len=   28
 LDataN:  DoStor=T MaxTD1= 3 Len=   28
 ***** Axes restored to original set *****
 -------------------------------------------------------------------
 Center     Atomic                   Forces (Hartrees/Bohr)
 Number     Number              X              Y              Z
 -------------------------------------------------------------------
    1          1          -0.000268608    0.000000000   -0.000097546
    2          6           0.001388579    0.000000000    0.001366690
    3          1           0.000270716    0.000000000   -0.000278650
    4          6          -0.000156292    0.000000000   -0.000418518
    5          1           0.000329786    0.000000000    0.000162688
    6          6          -0.001984754    0.000000000    0.000804820
    7          7           0.003465026    0.000000000    0.000292795
    8          1           0.000312746    0.000000000    0.000639667
    9          7          -0.003357200    0.000000000   -0.002471945
 -------------------------------------------------------------------
 Cartesian Forces:  Max     0.003465026 RMS     0.001200784

 GradGradGradGradGradGradGradGradGradGradGradGradGradGradGradGradGradGrad
 Berny optimization.
 Internal  Forces:  Max     0.002394644 RMS     0.000547051
 Search for a local minimum.
 Step number   5 out of a maximum of  48
 All quantities printed in internal units (Hartrees-Bohrs-Radians)
 Update second derivatives using information from points  2  3  4  5
 Trust test= 1.17D+00 RLast= 2.70D-02 DXMaxT set to 4.24D-01
     Eigenvalues ---    0.03203   0.03247   0.03251   0.03273   0.03341
     Eigenvalues ---    0.03372   0.15335   0.15782   0.16010   0.16557
     Eigenvalues ---    0.20618   0.34940   0.36379   0.46932   0.49552
     Eigenvalues ---    0.49728   0.57977   0.60234   0.61964   0.70416
     Eigenvalues ---    0.740971000.000001000.000001000.000001000.00000
     Eigenvalues --- 1000.000001000.000001000.000001000.000001000.00000
     Eigenvalues --- 1000.000001000.000001000.000001000.000001000.00000
     Eigenvalues --- 1000.000001000.000001000.00000
 RFO step:  Lambda=-2.70280686D-05.
 Quartic linear search produced a step of  0.21223.
 Iteration  1 RMS(Cart)=  0.00145144 RMS(Int)=  0.00000271
 Iteration  2 RMS(Cart)=  0.00000275 RMS(Int)=  0.00000138
 Iteration  3 RMS(Cart)=  0.00000000 RMS(Int)=  0.00000138
 Variable       Old X    -DE/DX   Delta X   Delta X   Delta X     New X
                                 (Linear)    (Quad)   (Total)
    R1        2.04216   0.00028  -0.00093   0.00102   0.00009   2.04225
    R2        2.64783  -0.00011  -0.00203   0.00053  -0.00150   2.64633
    R3        2.61871  -0.00090   0.00016  -0.00097  -0.00081   2.61790
    R4        2.04069   0.00035  -0.00103   0.00113   0.00010   2.04078
    R5        2.71051   0.00001   0.00005   0.00010   0.00015   2.71066
    R6        2.04227   0.00034  -0.00107   0.00128   0.00021   2.04248
    R7        2.57888  -0.00127  -0.00062  -0.00147  -0.00208   2.57680
    R8        2.62421   0.00239   0.00341   0.00426   0.00767   2.63188
    R9        1.90743   0.00019  -0.00080   0.00073  -0.00007   1.90736
    A1        2.29659  -0.00019  -0.00040  -0.00069  -0.00108   2.29551
    A2        2.13329  -0.00029   0.00023  -0.00235  -0.00212   2.13117
    A3        1.85331   0.00048   0.00017   0.00304   0.00321   1.85651
    A4        2.21541   0.00033   0.00012   0.00245   0.00257   2.21798
    A5        1.83814  -0.00030  -0.00008  -0.00192  -0.00200   1.83614
    A6        2.22963  -0.00003  -0.00004  -0.00053  -0.00057   2.22906
    A7        2.25181  -0.00024  -0.00160   0.00006  -0.00154   2.25027
    A8        1.95083   0.00076   0.00190   0.00142   0.00333   1.95416
    A9        2.08054  -0.00052  -0.00030  -0.00148  -0.00178   2.07876
   A10        1.81197  -0.00051  -0.00247   0.00049  -0.00198   1.80999
   A11        1.97052  -0.00043   0.00048  -0.00303  -0.00255   1.96797
   A12        2.23371   0.00087  -0.00039   0.00583   0.00544   2.23915
   A13        2.07895  -0.00044  -0.00009  -0.00280  -0.00289   2.07606
    D1        0.00000   0.00000   0.00000   0.00000   0.00000   0.00000
    D2        3.14159   0.00000   0.00000   0.00000   0.00000   3.14159
    D3        3.14159   0.00000   0.00000   0.00000   0.00000   3.14159
    D4        0.00000   0.00000   0.00000   0.00000   0.00000   0.00000
    D5        3.14159   0.00000   0.00000   0.00000   0.00000   3.14159
    D6        0.00000   0.00000   0.00000   0.00000   0.00000   0.00000
    D7        0.00000   0.00000   0.00000   0.00000   0.00000   0.00000
    D8        3.14159   0.00000   0.00000   0.00000   0.00000   3.14159
    D9        3.14159   0.00000   0.00000   0.00000   0.00000   3.14159
   D10        0.00000   0.00000   0.00000   0.00000   0.00000   0.00000
   D11        0.00000   0.00000   0.00000   0.00000   0.00000   0.00000
   D12        3.14159   0.00000   0.00000   0.00000   0.00000   3.14159
   D13        0.00000   0.00000   0.00000   0.00000   0.00000   0.00000
   D14        3.14159   0.00000   0.00000   0.00000   0.00000   3.14159
   D15        0.00000   0.00000   0.00000   0.00000   0.00000   0.00000
   D16        3.14159   0.00000   0.00000   0.00000   0.00000   3.14159
         Item               Value     Threshold  Converged?
 Maximum Force            0.002395     0.000450     NO 
 RMS     Force            0.000547     0.000300     NO 
 Maximum Displacement     0.004159     0.001800     NO 
 RMS     Displacement     0.001450     0.001200     NO 
 Predicted change in Energy=-1.896269D-05
 GradGradGradGradGradGradGradGradGradGradGradGradGradGradGradGradGradGrad

                          Input orientation:                          
 ---------------------------------------------------------------------
 Center     Atomic     Atomic              Coordinates (Angstroms)
 Number     Number      Type              X           Y           Z
 ---------------------------------------------------------------------
    1          1             0       -1.892871    0.000000   -1.199602
    2          6             0       -0.943257    0.000000   -0.683682
    3          1             0        0.690866    0.000000   -2.193860
    4          6             0        0.372984    0.000000   -1.161769
    5          1             0        2.277626    0.000000    0.081837
    6          6             0        1.199123    0.000000    0.010859
    7          7             0        0.459073    0.000000    1.156145
    8          1             0       -1.607897    0.000000    1.372807
    9          7             0       -0.856470    0.000000    0.698930
 ---------------------------------------------------------------------
                    Distance matrix (angstroms):
                    1          2          3          4          5
     1  H    0.000000
     2  C    1.080713   0.000000
     3  H    2.768437   2.225084   0.000000
     4  C    2.266170   1.400378   1.079936   0.000000
     5  H    4.362927   3.310605   2.774275   2.274690   0.000000
     6  C    3.320489   2.252150   2.262545   1.434421   1.080836
     7  N    3.328842   2.313329   3.358015   2.319512   2.112173
     8  H    2.588146   2.161224   4.243280   3.216825   4.094373
     9  N    2.162996   1.385333   3.280623   2.230192   3.194270
                    6          7          8          9
     6  C    0.000000
     7  N    1.363582   0.000000
     8  H    3.119978   2.078294   0.000000
     9  N    2.167697   1.392731   1.009332   0.000000
 Stoichiometry    C3H4N2
 Framework group  CS[SG(C3H4N2)]
 Deg. of freedom   15
 Full point group                 CS      NOp   2
 Largest Abelian subgroup         CS      NOp   2
 Largest concise Abelian subgroup C1      NOp   1
                         Standard orientation:                         
 ---------------------------------------------------------------------
 Center     Atomic     Atomic              Coordinates (Angstroms)
 Number     Number      Type              X           Y           Z
 ---------------------------------------------------------------------
    1          1             0        2.126125    0.707720    0.000000
    2          6             0        1.125959    0.298320    0.000000
    3          1             0        1.262515   -1.922570    0.000000
    4          6             0        0.663991   -1.023664    0.000000
    5          1             0       -1.503814   -1.712749    0.000000
    6          6             0       -0.766832   -0.922139    0.000000
    7          7             0       -1.186086    0.375390    0.000000
    8          1             0       -0.046869    2.113634    0.000000
    9          7             0        0.000000    1.105390    0.000000
 ---------------------------------------------------------------------
 Rotational constants (GHZ):      9.2673323      9.0734835      4.5846917
 Isotopes: H-1,C-12,H-1,C-12,H-1,C-12,N-14,H-1,N-14
 Standard basis: CEP-121G (6D, 10F)
 There are    57 symmetry adapted basis functions of A'  symmetry.
 There are    15 symmetry adapted basis functions of A"  symmetry.
 Crude estimate of integral set expansion from redundant integrals=1.000.
 Integral buffers will be    262144 words long.
 Raffenetti 2 integral format.
 Two-electron integral symmetry is turned on.
    72 basis functions      100 primitive gaussians
    13 alpha electrons       13 beta electrons
       nuclear repulsion energy        83.1450509437 Hartrees.
 One-electron integrals computed using PRISM.
   1 Symmetry operations used in ECPInt.
 ECPInt:  NShTT=     378 NPrTT=     837 LenC2=     379 LenP2D=     773.
 LDataN:  DoStor=F MaxTD1= 2 Len=   12
 LDataN:  DoStor=T MaxTD1= 2 Len=   12
 NBasis=    72 RedAO= T  NBF=    57    15
 NBsUse=    72 1.00D-04 NBFU=    57    15
 Initial guess read from the read-write file:
 Initial guess orbital symmetries:
       Occupied  (A') (A') (A') (A') (A') (A') (A') (A') (A") (A')
                 (A') (A") (A")
       Virtual   (A") (A') (A") (A') (A') (A') (A') (A') (A') (A')
                 (A") (A') (A') (A") (A') (A') (A") (A') (A') (A')
                 (A') (A") (A') (A') (A') (A") (A') (A') (A') (A')
                 (A') (A') (A') (A') (A') (A') (A') (A') (A') (A")
                 (A") (A') (A') (A") (A') (A') (A') (A') (A") (A')
                 (A") (A') (A') (A') (A') (A') (A') (A') (A')
 Requested convergence on RMS density matrix=1.00D-08 within  64 cycles.
 Requested convergence on MAX density matrix=1.00D-06.
 Keep R1 and R2 integrals in memory in canonical form, NReq=     7330835.
 SCF Done:  E(RB+HF-LYP) =  -39.0701831877     A.U. after    9 cycles
             Convg  =    0.7277D-08             -V/T =  2.3113
             S**2   =   0.0000
   2 Symmetry operations used in ECPInt.
 ECPInt:  NShTT=     378 NPrTT=     837 LenC2=     379 LenP2D=     773.
 LDataN:  DoStor=F MaxTD1= 3 Len=   28
 LDataN:  DoStor=T MaxTD1= 3 Len=   28
 ***** Axes restored to original set *****
 -------------------------------------------------------------------
 Center     Atomic                   Forces (Hartrees/Bohr)
 Number     Number              X              Y              Z
 -------------------------------------------------------------------
    1          1          -0.000264451    0.000000000   -0.000188334
    2          6          -0.000143515    0.000000000    0.001145979
    3          1           0.000102609    0.000000000   -0.000228435
    4          6           0.000200374    0.000000000    0.000169783
    5          1           0.000347860    0.000000000    0.000104954
    6          6          -0.000703121    0.000000000    0.000523604
    7          7           0.000864521    0.000000000   -0.000274017
    8          1           0.000035480    0.000000000    0.000299645
    9          7          -0.000439758    0.000000000   -0.001553179
 -------------------------------------------------------------------
 Cartesian Forces:  Max     0.001553179 RMS     0.000471043

 GradGradGradGradGradGradGradGradGradGradGradGradGradGradGradGradGradGrad
 Berny optimization.
 Internal  Forces:  Max     0.000901097 RMS     0.000246876
 Search for a local minimum.
 Step number   6 out of a maximum of  48
 All quantities printed in internal units (Hartrees-Bohrs-Radians)
 Update second derivatives using information from points  2  3  4  5  6

 Trust test= 1.16D+00 RLast= 1.26D-02 DXMaxT set to 4.24D-01
     Eigenvalues ---    0.03203   0.03247   0.03251   0.03273   0.03341
     Eigenvalues ---    0.03372   0.14342   0.15459   0.16000   0.16102
     Eigenvalues ---    0.22915   0.31476   0.36092   0.46574   0.49564
     Eigenvalues ---    0.49778   0.58027   0.60197   0.61608   0.68075
     Eigenvalues ---    0.742761000.000001000.000001000.000001000.00000
     Eigenvalues --- 1000.000001000.000001000.000001000.000001000.00000
     Eigenvalues --- 1000.000001000.000001000.000001000.000001000.00000
     Eigenvalues --- 1000.000001000.000001000.00000
 RFO step:  Lambda=-4.16469401D-06.
 Quartic linear search produced a step of  0.21779.
 Iteration  1 RMS(Cart)=  0.00063079 RMS(Int)=  0.00000066
 Iteration  2 RMS(Cart)=  0.00000065 RMS(Int)=  0.00000005
 Variable       Old X    -DE/DX   Delta X   Delta X   Delta X     New X
                                 (Linear)    (Quad)   (Total)
    R1        2.04225   0.00032   0.00002   0.00064   0.00066   2.04291
    R2        2.64633   0.00037  -0.00033   0.00066   0.00034   2.64667
    R3        2.61790  -0.00090  -0.00018  -0.00125  -0.00143   2.61647
    R4        2.04078   0.00025   0.00002   0.00044   0.00046   2.04125
    R5        2.71066   0.00005   0.00003   0.00015   0.00018   2.71084
    R6        2.04248   0.00035   0.00005   0.00070   0.00075   2.04323
    R7        2.57680  -0.00075  -0.00045  -0.00100  -0.00145   2.57535
    R8        2.63188   0.00053   0.00167   0.00058   0.00225   2.63413
    R9        1.90736   0.00017  -0.00002   0.00025   0.00024   1.90760
    A1        2.29551   0.00004  -0.00024   0.00022  -0.00001   2.29549
    A2        2.13117   0.00011  -0.00046   0.00075   0.00029   2.13146
    A3        1.85651  -0.00015   0.00070  -0.00097  -0.00028   1.85624
    A4        2.21798   0.00002   0.00056  -0.00024   0.00032   2.21830
    A5        1.83614   0.00002  -0.00044   0.00062   0.00018   1.83633
    A6        2.22906  -0.00004  -0.00012  -0.00038  -0.00051   2.22856
    A7        2.25027   0.00009  -0.00034   0.00063   0.00029   2.25056
    A8        1.95416  -0.00002   0.00072  -0.00038   0.00034   1.95450
    A9        2.07876  -0.00007  -0.00039  -0.00024  -0.00063   2.07813
   A10        1.80999  -0.00001  -0.00043  -0.00009  -0.00053   1.80946
   A11        1.96797   0.00015  -0.00056   0.00083   0.00027   1.96825
   A12        2.23915   0.00016   0.00118   0.00080   0.00199   2.24114
   A13        2.07606  -0.00032  -0.00063  -0.00163  -0.00226   2.07380
    D1        0.00000   0.00000   0.00000   0.00000   0.00000   0.00000
    D2        3.14159   0.00000   0.00000   0.00000   0.00000   3.14159
    D3        3.14159   0.00000   0.00000   0.00000   0.00000   3.14159
    D4        0.00000   0.00000   0.00000   0.00000   0.00000   0.00000
    D5        3.14159   0.00000   0.00000   0.00000   0.00000   3.14159
    D6        0.00000   0.00000   0.00000   0.00000   0.00000   0.00000
    D7        0.00000   0.00000   0.00000   0.00000   0.00000   0.00000
    D8        3.14159   0.00000   0.00000   0.00000   0.00000   3.14159
    D9        3.14159   0.00000   0.00000   0.00000   0.00000   3.14159
   D10        0.00000   0.00000   0.00000   0.00000   0.00000   0.00000
   D11        0.00000   0.00000   0.00000   0.00000   0.00000   0.00000
   D12        3.14159   0.00000   0.00000   0.00000   0.00000   3.14159
   D13        0.00000   0.00000   0.00000   0.00000   0.00000   0.00000
   D14        3.14159   0.00000   0.00000   0.00000   0.00000   3.14159
   D15        0.00000   0.00000   0.00000   0.00000   0.00000   0.00000
   D16        3.14159   0.00000   0.00000   0.00000   0.00000   3.14159
         Item               Value     Threshold  Converged?
 Maximum Force            0.000901     0.000450     NO 
 RMS     Force            0.000247     0.000300     YES
 Maximum Displacement     0.001642     0.001800     YES
 RMS     Displacement     0.000631     0.001200     YES
 Predicted change in Energy=-2.823159D-06
 GradGradGradGradGradGradGradGradGradGradGradGradGradGradGradGradGradGrad

                          Input orientation:                          
 ---------------------------------------------------------------------
 Center     Atomic     Atomic              Coordinates (Angstroms)
 Number     Number      Type              X           Y           Z
 ---------------------------------------------------------------------
    1          1             0       -1.893402    0.000000   -1.200022
    2          6             0       -0.943595    0.000000   -0.683722
    3          1             0        0.691415    0.000000   -2.193751
    4          6             0        0.372913    0.000000   -1.161594
    5          1             0        2.277956    0.000000    0.082475
    6          6             0        1.199080    0.000000    0.011133
    7          7             0        0.459810    0.000000    1.156010
    8          1             0       -1.606899    0.000000    1.373632
    9          7             0       -0.856764    0.000000    0.698131
 ---------------------------------------------------------------------
                    Distance matrix (angstroms):
                    1          2          3          4          5
     1  H    0.000000
     2  C    1.081063   0.000000
[...]
 IR Inten    --     8.4645                 3.0123                56.7376
 Raman Activ --     0.0000                 0.0000                 0.0000
 Depolar     --     0.0000                 0.0000                 0.0000
 Atom AN      X      Y      Z        X      Y      Z        X      Y      Z
   1   1     0.60   0.25   0.00    -0.48  -0.20   0.00     0.02   0.00   0.00
   2   6    -0.05  -0.02   0.00     0.05   0.02   0.00     0.00   0.00   0.00
   3   1    -0.04   0.05   0.00    -0.42   0.63   0.00     0.00   0.00   0.00
   4   6     0.01   0.00   0.00     0.04  -0.06   0.00     0.00   0.00   0.00
   5   1     0.51   0.55   0.00     0.26   0.28   0.00     0.00   0.00   0.00
   6   6    -0.05  -0.05   0.00    -0.03  -0.03   0.00     0.00   0.00   0.00
   7   7     0.00   0.00   0.00     0.00   0.00   0.00     0.00   0.00   0.00
   8   1     0.00  -0.01   0.00     0.00   0.02   0.00    -0.05   1.00   0.00
   9   7     0.00   0.00   0.00     0.00   0.00   0.00     0.00  -0.08   0.00

 -------------------
 - Thermochemistry -
 -------------------
 Temperature   298.150 Kelvin.  Pressure   1.00000 Atm.
 Atom  1 has atomic number  1 and mass   1.00783
 Atom  2 has atomic number  6 and mass  12.00000
 Atom  3 has atomic number  1 and mass   1.00783
 Atom  4 has atomic number  6 and mass  12.00000
 Atom  5 has atomic number  1 and mass   1.00783
 Atom  6 has atomic number  6 and mass  12.00000
 Atom  7 has atomic number  7 and mass  14.00307
 Atom  8 has atomic number  1 and mass   1.00783
 Atom  9 has atomic number  7 and mass  14.00307
 Molecular mass:    68.03745 amu.
 Principal axes and moments of inertia in atomic units:
                           1         2         3
     EIGENVALUES --   194.72159 198.93222 393.65381
           X            0.97061   0.24065   0.00000
           Y           -0.24065   0.97061   0.00000
           Z            0.00000   0.00000   1.00000
 THIS MOLECULE IS AN ASYMMETRIC TOP.
 ROTATIONAL SYMMETRY NUMBER  1.
 ROTATIONAL TEMPERATURES (KELVIN)      0.44481     0.43539     0.22002
 ROTATIONAL CONSTANTS (GHZ)            9.26832     9.07214     4.58459
 Zero-point vibrational energy     185403.6 (Joules/Mol)
                                   44.31254 (Kcal/Mol)
 WARNING-- EXPLICIT CONSIDERATION OF   1 DEGREES OF FREEDOM AS
           VIBRATIONS MAY CAUSE SIGNIFICANT ERROR
 VIBRATIONAL TEMPERATURES:    838.31   911.31   963.73  1105.05  1237.73
          (KELVIN)           1298.83  1314.00  1329.54  1456.73  1516.16
                             1618.29  1650.85  1805.79  1952.33  2012.81
                             2076.39  2209.73  4653.41  4666.47  4697.73
                             5282.41
 
 Zero-point correction=                           0.070617 (Hartree/Particle)
 Thermal correction to Energy=                    0.074340
 Thermal correction to Enthalpy=                  0.075284
 Thermal correction to Gibbs Free Energy=         0.044309
 Sum of electronic and zero-point Energies=            -38.999570
 Sum of electronic and thermal Energies=               -38.995846
 Sum of electronic and thermal Enthalpies=             -38.994902
 Sum of electronic and thermal Free Energies=          -39.025877
 
                     E (Thermal)             CV                S
                      KCAL/MOL        CAL/MOL-KELVIN    CAL/MOL-KELVIN
 TOTAL                   46.649             13.333             65.193
 ELECTRONIC               0.000              0.000              0.000
 TRANSLATIONAL            0.889              2.981             38.570
 ROTATIONAL               0.889              2.981             24.237
 VIBRATIONAL             44.872              7.371              2.385
 VIBRATION  1             0.939              1.069              0.480
                       Q            LOG10(Q)             LN(Q)
 TOTAL BOT       0.416272D-20        -20.380623        -46.928119
 TOTAL V=0       0.126038D+13         12.100501         27.862433
 VIB (BOT)       0.426902D-32        -32.369672        -74.533923
 VIB (BOT)  1    0.260833D+00         -0.583638         -1.343876
 VIB (V=0)       0.129256D+01          0.111452          0.256629
 VIB (V=0)  1    0.106394D+01          0.026919          0.061983
 ELECTRONIC      0.100000D+01          0.000000          0.000000
 TRANSLATIONAL   0.220588D+08          7.343582         16.909224
 ROTATIONAL      0.442045D+05          4.645466         10.696581
 ***** Axes restored to original set *****
 -------------------------------------------------------------------
 Center     Atomic                   Forces (Hartrees/Bohr)
 Number     Number              X              Y              Z
 -------------------------------------------------------------------
    1          1          -0.000038255    0.000000000   -0.000077399
    2          6          -0.000107507    0.000000000    0.000651699
    3          1           0.000013458    0.000000000   -0.000080532
    4          6           0.000289511    0.000000000   -0.000119504
    5          1           0.000094816    0.000000000   -0.000001651
    6          6          -0.000154110    0.000000000    0.000091382
    7          7          -0.000107342    0.000000000   -0.000161853
    8          1          -0.000025241    0.000000000    0.000059484
    9          7           0.000034670    0.000000000   -0.000361626
 -------------------------------------------------------------------
 Cartesian Forces:  Max     0.000651699 RMS     0.000168155

 GradGradGradGradGradGradGradGradGradGradGradGradGradGradGradGradGradGrad
 Berny optimization.
 Internal  Forces:  Max     0.000368960 RMS     0.000090170
 Search for a local minimum.
 Step number   1 out of a maximum of  48
 All quantities printed in internal units (Hartrees-Bohrs-Radians)
 Second derivative matrix not updated -- analytic derivatives used.
     Eigenvalues ---    0.00891   0.01250   0.01704   0.02814   0.05693
     Eigenvalues ---    0.06095   0.09395   0.10326   0.10916   0.11900
     Eigenvalues ---    0.21906   0.25483   0.31817   0.35830   0.36776
     Eigenvalues ---    0.37035   0.37421   0.40988   0.46766   0.48126
     Eigenvalues ---    0.528961000.000001000.000001000.000001000.00000
     Eigenvalues --- 1000.000001000.000001000.000001000.000001000.00000
     Eigenvalues --- 1000.000001000.000001000.000001000.000001000.00000
     Eigenvalues --- 1000.000001000.000001000.00000
 Angle between quadratic step and forces=  29.65 degrees.
 Linear search not attempted -- first point.
 Iteration  1 RMS(Cart)=  0.00023102 RMS(Int)=  0.00000007
 Iteration  2 RMS(Cart)=  0.00000008 RMS(Int)=  0.00000002
 Variable       Old X    -DE/DX   Delta X   Delta X   Delta X     New X
                                 (Linear)    (Quad)   (Total)
    R1        2.04291   0.00007   0.00000   0.00021   0.00021   2.04312
    R2        2.64667   0.00028   0.00000   0.00077   0.00077   2.64744
    R3        2.61647  -0.00037   0.00000  -0.00111  -0.00111   2.61536
    R4        2.04125   0.00008   0.00000   0.00020   0.00020   2.04145
    R5        2.71084  -0.00006   0.00000  -0.00009  -0.00009   2.71076
    R6        2.04323   0.00009   0.00000   0.00026   0.00026   2.04349
    R7        2.57535  -0.00007   0.00000  -0.00013  -0.00013   2.57522
    R8        2.63413  -0.00010   0.00000  -0.00022  -0.00022   2.63391
    R9        1.90760   0.00006   0.00000   0.00011   0.00011   1.90771
    A1        2.29549  -0.00009   0.00000  -0.00085  -0.00085   2.29465
    A2        2.13146   0.00001   0.00000   0.00054   0.00054   2.13199
    A3        1.85624   0.00008   0.00000   0.00031   0.00031   1.85655
    A4        2.21830   0.00005   0.00000  -0.00008  -0.00008   2.21822
    A5        1.83633  -0.00013   0.00000  -0.00049  -0.00049   1.83584
    A6        2.22856   0.00008   0.00000   0.00057   0.00057   2.22912
    A7        2.25056   0.00001   0.00000  -0.00006  -0.00006   2.25050
    A8        1.95450  -0.00004   0.00000   0.00001   0.00001   1.95451
    A9        2.07813   0.00003   0.00000   0.00005   0.00005   2.07817
   A10        1.80946   0.00010   0.00000   0.00016   0.00016   1.80962
   A11        1.96825  -0.00001   0.00000   0.00000   0.00000   1.96825
   A12        2.24114   0.00004   0.00000   0.00032   0.00032   2.24146
   A13        2.07380  -0.00002   0.00000  -0.00032  -0.00032   2.07348
    D1        0.00000   0.00000   0.00000   0.00000   0.00000   0.00000
    D2        3.14159   0.00000   0.00000   0.00000   0.00000   3.14159
    D3        3.14159   0.00000   0.00000   0.00000   0.00000   3.14159
    D4        0.00000   0.00000   0.00000   0.00000   0.00000   0.00000
    D5        3.14159   0.00000   0.00000   0.00000   0.00000   3.14159
    D6        0.00000   0.00000   0.00000   0.00000   0.00000   0.00000
    D7        0.00000   0.00000   0.00000   0.00000   0.00000   0.00000
    D8        3.14159   0.00000   0.00000   0.00000   0.00000   3.14159
    D9        3.14159   0.00000   0.00000   0.00000   0.00000   3.14159
   D10        0.00000   0.00000   0.00000   0.00000   0.00000   0.00000
   D11        0.00000   0.00000   0.00000   0.00000   0.00000   0.00000
   D12       -3.14159   0.00000   0.00000   0.00000   0.00000  -3.14159
   D13        0.00000   0.00000   0.00000   0.00000   0.00000   0.00000
   D14        3.14159   0.00000   0.00000   0.00000   0.00000   3.14159
   D15        0.00000   0.00000   0.00000   0.00000   0.00000   0.00000
   D16        3.14159   0.00000   0.00000   0.00000   0.00000   3.14159
         Item               Value     Threshold  Converged?
 Maximum Force            0.000369     0.000450     YES
 RMS     Force            0.000090     0.000300     YES
 Maximum Displacement     0.000857     0.001800     YES
 RMS     Displacement     0.000231     0.001200     YES
 Predicted change in Energy=-4.809938D-07
 Optimization completed.
    -- Stationary point found.
                         ----------------------------
                         !   Optimized Parameters   !
                         ! (Angstroms and Degrees)  !
 ------------------------                            -------------------------
 ! Name  Definition              Value          Derivative Info.             !
 -----------------------------------------------------------------------------
 ! R1    R(1,2)                  1.0811         -DE/DX =    0.0001           !
 ! R2    R(2,4)                  1.4006         -DE/DX =    0.0003           !
 ! R3    R(2,9)                  1.3846         -DE/DX =   -0.0004           !
 ! R4    R(3,4)                  1.0802         -DE/DX =    0.0001           !
 ! R5    R(4,6)                  1.4345         -DE/DX =   -0.0001           !
 ! R6    R(5,6)                  1.0812         -DE/DX =    0.0001           !
 ! R7    R(6,7)                  1.3628         -DE/DX =   -0.0001           !
 ! R8    R(7,9)                  1.3939         -DE/DX =   -0.0001           !
 ! R9    R(8,9)                  1.0095         -DE/DX =    0.0001           !
 ! A1    A(1,2,4)              131.522          -DE/DX =   -0.0001           !
 ! A2    A(1,2,9)              122.1234         -DE/DX =    0.               !
 ! A3    A(4,2,9)              106.3546         -DE/DX =    0.0001           !
 ! A4    A(2,4,3)              127.0992         -DE/DX =    0.               !
 ! A5    A(2,4,6)              105.2139         -DE/DX =   -0.0001           !
 ! A6    A(3,4,6)              127.6868         -DE/DX =    0.0001           !
 ! A7    A(4,6,5)              128.9473         -DE/DX =    0.               !
 ! A8    A(4,6,7)              111.9848         -DE/DX =    0.               !
 ! A9    A(5,6,7)              119.0678         -DE/DX =    0.               !
 ! A10   A(6,7,9)              103.6744         -DE/DX =    0.0001           !
 ! A11   A(2,9,7)              112.7723         -DE/DX =    0.               !
 ! A12   A(2,9,8)              128.4076         -DE/DX =    0.               !
 ! A13   A(7,9,8)              118.8201         -DE/DX =    0.               !
 ! D1    D(1,2,4,3)              0.             -DE/DX =    0.               !
 ! D2    D(1,2,4,6)            180.             -DE/DX =    0.               !
 ! D3    D(9,2,4,3)            180.             -DE/DX =    0.               !
 ! D4    D(9,2,4,6)              0.             -DE/DX =    0.               !
 ! D5    D(1,2,9,7)            180.             -DE/DX =    0.               !
 ! D6    D(1,2,9,8)              0.             -DE/DX =    0.               !
 ! D7    D(4,2,9,7)              0.             -DE/DX =    0.               !
 ! D8    D(4,2,9,8)            180.             -DE/DX =    0.               !
 ! D9    D(2,4,6,5)            180.             -DE/DX =    0.               !
 ! D10   D(2,4,6,7)              0.             -DE/DX =    0.               !
 ! D11   D(3,4,6,5)              0.             -DE/DX =    0.               !
 ! D12   D(3,4,6,7)           -180.             -DE/DX =    0.               !
 ! D13   D(4,6,7,9)              0.             -DE/DX =    0.               !
 ! D14   D(5,6,7,9)            180.             -DE/DX =    0.               !
 ! D15   D(6,7,9,2)              0.             -DE/DX =    0.               !
 ! D16   D(6,7,9,8)            180.             -DE/DX =    0.               !
 -----------------------------------------------------------------------------
 GradGradGradGradGradGradGradGradGradGradGradGradGradGradGradGradGradGrad

 1\1\GINC-QCHEM6\Freq\RB3LYP\CEP-121G\C3H4N2\RDJ3\06-Oct-2000\0\\#N GEO
 M=ALLCHECK GUESS=TCHECK RB3LYP/CEP-121G FREQ\\1H pyrazole C3H4N2 casno
 =288131\\0,1\H,-1.8933204713,0.,-1.1998801663\C,-0.9435142956,0.,-0.68
 35794901\H,0.6914959809,0.,-2.1936087178\C,0.3729944874,0.,-1.16145208
 08\H,2.2780369113,0.,0.0826174401\C,1.1991608584,0.,0.0112747384\N,0.4
 598910108,0.,1.1561522725\H,-1.6068180254,0.,1.3737738703\N,-0.8566827
 301,0.,0.6982727082\\Version=x86-Linux-G98RevA.4\State=1-A'\HF=-39.070
 1862\RMSD=7.177e-09\RMSF=1.682e-04\Dipole=-0.8309908,0.,-0.5361971\Dip
 oleDeriv=-0.020034,0.0000041,-0.0664296,-0.000061,0.2171356,-0.0000555
 ,-0.0560363,0.0000163,0.0694471,0.1404069,0.0000379,-0.1452645,0.00013
 21,-0.1252087,0.0007375,-0.3320838,-0.0001827,0.2470165,0.1019,0.00006
 05,0.0413392,0.0000422,0.1946946,0.0000379,0.0392972,-0.0001354,-0.060
 5435,-0.2618421,-0.0001062,-0.0021827,-0.0002635,-0.2090737,-0.0002023
 ,-0.0424899,0.0001409,-0.0101395,-0.0627289,0.0000047,-0.0092683,0.000
 2307,0.1749228,-0.0002853,-0.0247106,0.0000122,0.0931487,0.2207647,-0.
 0002726,0.0942897,-0.0001426,-0.1308404,0.0007188,0.2108007,0.0002701,
 0.160374,0.0880758,0.0005301,-0.169985,0.0003298,-0.2114672,-0.0010183
 ,-0.0657817,-0.0001702,-0.4900149,0.1850228,-0.0000738,-0.0136994,-0.0
 000375,0.36192,0.0000156,-0.0126402,0.0000441,0.2019254,-0.3915655,-0.
 0001845,0.2712003,-0.0002304,-0.2720827,0.0000517,0.2836442,0.0000046,
 -0.2112135\Polar=53.0861517,-0.004604,23.5501111,0.0361019,0.0034927,4
 9.032573\PG=CS [SG(C3H4N2)]\NImag=0\\0.29510304,0.00000145,0.02093072,
 0.13429374,0.00000088,0.12427090,-0.29476933,-0.00000003,-0.11975985,0
 .83492996,0.00000287,-0.02689818,0.00000191,-0.00000281,0.11855150,-0.
 12849401,0.00000024,-0.12097954,0.10377321,-0.00000528,0.60501025,0.00
 011252,0.00000034,-0.00080137,0.00199397,-0.00000226,0.02615980,0.0764
 4219,0.00000136,-0.00277532,0.00000122,0.00000344,-0.00085845,-0.00000
 122,-0.00000108,0.02286977,0.00071771,-0.00000110,-0.00010891,-0.00745
 767,0.00000265,0.00135622,-0.09168206,0.00000334,0.34147278,-0.0033555
 0,-0.00000185,0.01171701,-0.32954521,-0.00000281,0.06990066,-0.0817483
 6,-0.00000068,0.08796799,0.59255983,-0.00000383,0.00144350,-0.00000295
 ,-0.00000339,-0.06261178,0.00001349,0.00000198,-0.02857914,-0.00000360
 ,0.00000439,0.11923448,-0.01616915,0.00000232,0.01141983,0.09172023,-0
 .00000523,-0.13598800,0.08499440,-0.00000055,-0.33413941,-0.12053637,-
 0.00000533,0.80980522,-0.00034670,-0.00000043,0.00019991,-0.00001286,-
 0.00000461,-0.00056195,-0.00017069,-0.00000168,-0.00059082,-0.00175302
 ,0.00001059,0.00706367,0.36765416,0.00000020,0.00063326,0.00000055,0.0
 0000482,0.00489555,-0.00000769,0.00000035,-0.00173814,0.00000027,0.000
 00002,0.00077335,0.00000890,-0.00000517,0.02446502,-0.00105397,0.00000
 010,0.00103629,-0.00294980,-0.00000166,-0.00596789,0.00084398,0.000000
 48,0.00008482,-0.02142320,0.00000093,0.00664485,0.01911920,0.00000051,
 0.05530993,-0.00379504,0.00000461,0.00479176,-0.05728130,-0.00000853,-
 0.00553516,0.01154277,-0.00000259,0.01373811,-0.17285637,0.00000016,-0
 .09559982,-0.35441164,-0.00000013,-0.03092419,0.85696174,0.00000263,0.
 00575289,0.00000199,-0.00000352,0.00955357,-0.00001062,-0.00000111,-0.
 00205761,-0.00000095,-0.00000943,-0.06438022,-0.00000960,-0.00000329,-
 0.03085961,-0.00000166,-0.00000707,0.13481373,0.00089319,-0.00000502,-
 0.00219609,-0.06178639,0.00003125,0.03197436,-0.01743118,-0.00000096,-
 0.00660958,-0.06700777,-0.00001002,-0.21812158,-0.02179709,-0.00000948
 ,-0.05830941,0.00097887,0.00004277,0.55462141,0.00101528,-0.00000324,0
 .00127482,-0.05194252,-0.00000733,-0.04395445,-0.00220271,0.00000089,-
 0.00101085,0.02228887,0.00000076,0.03092546,-0.01154115,0.00000871,0.0
 2852459,-0.16386067,-0.00000038,0.13237702,0.44033655,-0.00000010,0.00
 539711,0.00000050,0.00001112,0.01603517,-0.00000283,-0.00000064,0.0060
 5537,0.00000656,0.00000498,0.01995287,0.00001349,-0.00000539,-0.006802
 13,0.00000210,0.00001061,-0.06710412,-0.00004899,0.00000911,0.09491116
 ,0.00293962,0.00000384,-0.00430643,-0.01906164,-0.00003052,-0.06492224
 ,-0.00563152,-0.00000438,-0.00260823,-0.03012696,0.00001701,-0.0763265
 4,-0.00535403,0.00000316,0.00503341,0.08691771,-0.00003282,-0.26541634
 ,-0.05012966,0.00003169,0.50095629,-0.00018483,-0.00000103,0.00058789,
 0.01023711,-0.00000293,-0.00980761,0.00067650,-0.00000072,0.00007486,0
 .00170545,0.00001145,-0.00356759,-0.00046063,-0.00000554,0.00157046,-0
 .00715948,-0.00000875,-0.00562806,-0.01582044,-0.00000358,0.02617518,0
 .29378304,-0.00000103,-0.00125746,-0.00000056,-0.00000144,-0.00629310,
 -0.00000016,0.00000046,0.00197872,-0.00000095,-0.00000073,0.00349339,-
 0.00000410,0.00000174,0.00200472,-0.00000018,-0.00000383,0.00395964,0.
 00000925,0.00000670,-0.00986739,-0.00000346,0.00000007,0.01432338,-0.0
 0086588,0.00000103,-0.00005668,0.02590177,0.00000193,-0.00402376,0.001
 24441,0.00000044,-0.00002609,-0.00272508,-0.00000852,-0.00620406,-0.00
 036105,0.00000414,0.00111738,-0.00719060,0.00000581,0.00046248,-0.0142
 7285,0.00000327,0.01396049,-0.20490113,-0.00000038,0.25065849,0.006220
 56,0.00000017,-0.03230392,-0.11360983,0.00002841,-0.01148050,-0.006646
 18,0.00000105,-0.00175727,-0.02729570,-0.00002211,0.02116919,0.0010425
 1,-0.00000326,0.00629293,-0.10914002,0.00003092,0.03940140,-0.21827321
 ,-0.00002610,-0.00572871,-0.28277673,-0.00000194,0.20317041,0.75047859
 ,-0.00000355,-0.00322650,-0.00000354,-0.00000819,-0.05237428,0.0000140
 5,0.00000195,0.00510481,-0.00000620,0.00000610,0.01067355,0.00000009,0
 .00000825,0.00662797,-0.00000061,0.00000677,0.01032173,-0.00000879,-0.
 00001521,-0.05857804,0.00001549,0.00001102,-0.00834190,-0.00000771,-0.
 00000713,0.08979267,0.00773873,-0.00000229,-0.00907938,-0.01037986,0.0
 0000496,-0.30645940,0.00230354,0.00000163,0.00057840,0.07223371,-0.000
 00101,-0.05709032,0.00228216,-0.00000035,-0.00494938,0.03282333,0.0000
 0507,-0.03640526,-0.08373408,-0.00000580,-0.10637040,0.19549600,0.0000
 0055,-0.25588826,-0.21876353,-0.00000276,0.77566401\\0.00003826,0.,0.0
 0007740,0.00010751,0.,-0.00065170,-0.00001346,0.,0.00008053,-0.0002895
 1,0.,0.00011950,-0.00009482,0.,0.00000165,0.00015411,0.,-0.00009138,0.
 00010734,0.,0.00016185,0.00002524,0.,-0.00005948,-0.00003467,0.,0.0003
 6163\\\@


 ERROR IS THE FORCE THAT WELDS MEN TOGETHER....
 TRUTH IS COMMUNICATED TO MEN ONLY BY DEEDS OF TRUTH.
           TOLSTOI,MY RELIGION
 Job cpu time:  0 days  0 hours 20 minutes 54.3 seconds.
 File lengths (MBytes):  RWF=   17 Int=    0 D2E=    0 Chk=    8 Scr=    1
 Normal termination of Gaussian 98.
