 Entering Gaussian System, Link 0=g98
 Initial command:
 /usr/local/apps/g98a6/g98/l1.exe /wrk/rdj3/Gau-11138.inp -scrdir=/wrk/rdj3/
 Entering Link 1 = /usr/local/apps/g98a6/g98/l1.exe PID=     18056.
  
 Copyright (c) 1988,1990,1992,1993,1995,1998 Gaussian, Inc.
                  All Rights Reserved.
  
 This is part of the Gaussian(R) 98 program.  It is based on
 the Gaussian 94(TM) system (copyright 1995 Gaussian, Inc.),
 the Gaussian 92(TM) system (copyright 1992 Gaussian, Inc.),
 the Gaussian 90(TM) system (copyright 1990 Gaussian, Inc.),
 the Gaussian 88(TM) system (copyright 1988 Gaussian, Inc.),
 the Gaussian 86(TM) system (copyright 1986 Carnegie Mellon
 University), and the Gaussian 82(TM) system (copyright 1983
 Carnegie Mellon University). Gaussian is a federally registered
 trademark of Gaussian, Inc.
  
 This software contains proprietary and confidential information,
 including trade secrets, belonging to Gaussian, Inc.
  
 This software is provided under written license and may be
 used, copied, transmitted, or stored only in accord with that
 written license.
  
 The following legend is applicable only to US Government
 contracts under DFARS:
  
                    RESTRICTED RIGHTS LEGEND
  
 Use, duplication or disclosure by the US Government is subject
 to restrictions as set forth in subparagraph (c)(1)(ii) of the
 Rights in Technical Data and Computer Software clause at DFARS
 252.227-7013.
  
 Gaussian, Inc.
 Carnegie Office Park, Building 6, Pittsburgh, PA 15106 USA
  
 The following legend is applicable only to US Government
 contracts under FAR:
  
                    RESTRICTED RIGHTS LEGEND
  
 Use, reproduction and disclosure by the US Government is subject
 to restrictions as set forth in subparagraph (c) of the
 Commercial Computer Software - Restricted Rights clause at FAR
 52.227-19.
  
 Gaussian, Inc.
 Carnegie Office Park, Building 6, Pittsburgh, PA 15106 USA
  
  
 ---------------------------------------------------------------
 Warning -- This program may not be used in any manner that
 competes with the business of Gaussian, Inc. or will provide
 assistance to any competitor of Gaussian, Inc.  The licensee
 of this program is prohibited from giving any competitor of
 Gaussian, Inc. access to this program.  By using this program,
 the user acknowledges that Gaussian, Inc. is engaged in the
 business of creating and licensing software in the field of
 computational chemistry and represents and warrants to the
 licensee that it is not a competitor of Gaussian, Inc. and that
 it will not use this program in any manner prohibited above.
 ---------------------------------------------------------------
  

 Cite this work as:
 Gaussian 98, Revision A.6,
 M. J. Frisch, G. W. Trucks, H. B. Schlegel, G. E. Scuseria, 
 M. A. Robb, J. R. Cheeseman, V. G. Zakrzewski, J. A. Montgomery, Jr., 
 R. E. Stratmann, J. C. Burant, S. Dapprich, J. M. Millam, 
 A. D. Daniels, K. N. Kudin, M. C. Strain, O. Farkas, J. Tomasi, 
 V. Barone, M. Cossi, R. Cammi, B. Mennucci, C. Pomelli, C. Adamo, 
 S. Clifford, J. Ochterski, G. A. Petersson, P. Y. Ayala, Q. Cui, 
 K. Morokuma, D. K. Malick, A. D. Rabuck, K. Raghavachari, 
 J. B. Foresman, J. Cioslowski, J. V. Ortiz, B. B. Stefanov, G. Liu, 
 A. Liashenko, P. Piskorz, I. Komaromi, R. Gomperts, R. L. Martin, 
 D. J. Fox, T. Keith, M. A. Al-Laham, C. Y. Peng, A. Nanayakkara, 
 C. Gonzalez, M. Challacombe, P. M. W. Gill, B. Johnson, W. Chen, 
 M. W. Wong, J. L. Andres, C. Gonzalez, M. Head-Gordon, 
 E. S. Replogle, and J. A. Pople, 
 Gaussian, Inc., Pittsburgh PA, 1998.

 **********************************************
 Gaussian 98:  IBM-RS6000-G98RevA.6 19-Oct-1998
                  18-Oct-2000 
 **********************************************
 %mem=24000000
 -------------------------
 #B3LYP/CEP-121G* opt freq
 -------------------------
 1/14=-1,18=20,26=3,38=1/1,3;
 2/9=110,17=6,18=5/2;
 3/5=9,6=2,7=1,11=2,16=1,25=1,30=1/1,2,3;
 4/11=1/1;
 5/5=2,38=4,42=-5/2;
 6/7=2,8=2,9=2,10=2,28=1/1;
 7//1,2,3,16;
 1/14=-1,18=20/3(1);
 99//99;
 2/9=110/2;
 3/5=9,6=2,7=1,11=2,16=1,25=1,30=1/1,2,3;
 4/5=5,11=1,16=2/1;
 5/5=2,38=4,42=-5/2;
 7//1,2,3,16;
 1/14=-1,18=20/3(-5);
 2/9=110/2;
 6/7=2,8=2,9=2,10=2,19=2,28=1/1;
 99/9=1/99;
 -------------------------------
 1H pyrazole C3H4N2 casno=288131
 -------------------------------
 Symbolic Z-matrix:
 Charge =  0 Multiplicity = 1
 H                    -1.9125    0.       -0.75938 
 C                    -1.08438   0.       -0.21875 
 H                     0.43438   0.       -1.63125 
 C                     0.15      0.       -0.68438 
 H                     1.9125    0.        0.37188 
 C                     0.92188   0.        0.375 
 N                     0.18125   0.        1.41875 
 H                    -1.74063   0.        1.63125 
 N                    -1.00313   0.        1.05313 

 GradGradGradGradGradGradGradGradGradGradGradGradGradGradGradGradGradGrad
 Berny optimization.
 Initialization pass.
                         ----------------------------
                         !    Initial Parameters    !
                         ! (Angstroms and Degrees)  !
 ------------------------                            -------------------------
 ! Name  Definition              Value          Derivative Info.             !
 -----------------------------------------------------------------------------
 ! R1    R(1,2)                  0.989          estimate D2E/DX2             !
 ! R2    R(2,4)                  1.3193         estimate D2E/DX2             !
 ! R3    R(2,9)                  1.2745         estimate D2E/DX2             !
 ! R4    R(3,4)                  0.9887         estimate D2E/DX2             !
 ! R5    R(4,6)                  1.3108         estimate D2E/DX2             !
 ! R6    R(5,6)                  0.9906         estimate D2E/DX2             !
 ! R7    R(6,7)                  1.2798         estimate D2E/DX2             !
 ! R8    R(7,9)                  1.2395         estimate D2E/DX2             !
 ! R9    R(8,9)                  0.9371         estimate D2E/DX2             !
 ! A1    A(1,2,4)              126.195          estimate D2E/DX2             !
 ! A2    A(1,2,9)              126.7929         estimate D2E/DX2             !
 ! A3    A(4,2,9)              107.012          estimate D2E/DX2             !
 ! A4    A(2,4,3)              127.3838         estimate D2E/DX2             !
 ! A5    A(2,4,6)              105.4104         estimate D2E/DX2             !
 ! A6    A(3,4,6)              127.2058         estimate D2E/DX2             !
 ! A7    A(4,6,5)              125.8968         estimate D2E/DX2             !
 ! A8    A(4,6,7)              108.5636         estimate D2E/DX2             !
 ! A9    A(5,6,7)              125.5395         estimate D2E/DX2             !
 ! A10   A(6,7,9)              108.203          estimate D2E/DX2             !
 ! A11   A(2,9,7)              110.811          estimate D2E/DX2             !
 ! A12   A(2,9,8)              124.4376         estimate D2E/DX2             !
 ! A13   A(7,9,8)              124.7513         estimate D2E/DX2             !
 ! D1    D(1,2,4,3)              0.             estimate D2E/DX2             !
 ! D2    D(1,2,4,6)            180.             estimate D2E/DX2             !
 ! D3    D(9,2,4,3)            180.             estimate D2E/DX2             !
 ! D4    D(9,2,4,6)              0.             estimate D2E/DX2             !
 ! D5    D(1,2,9,7)            180.             estimate D2E/DX2             !
 ! D6    D(1,2,9,8)              0.             estimate D2E/DX2             !
 ! D7    D(4,2,9,7)              0.             estimate D2E/DX2             !
 ! D8    D(4,2,9,8)            180.             estimate D2E/DX2             !
 ! D9    D(2,4,6,5)            180.             estimate D2E/DX2             !
 ! D10   D(2,4,6,7)              0.             estimate D2E/DX2             !
 ! D11   D(3,4,6,5)              0.             estimate D2E/DX2             !
 ! D12   D(3,4,6,7)            180.             estimate D2E/DX2             !
 ! D13   D(4,6,7,9)              0.             estimate D2E/DX2             !
 ! D14   D(5,6,7,9)            180.             estimate D2E/DX2             !
 ! D15   D(6,7,9,2)              0.             estimate D2E/DX2             !
 ! D16   D(6,7,9,8)            180.             estimate D2E/DX2             !
 -----------------------------------------------------------------------------
 Trust Radius=3.00D-01 FncErr=1.00D-07 GrdErr=1.00D-06
 Number of steps in this run=  48 maximum allowed number of steps= 100.
 GradGradGradGradGradGradGradGradGradGradGradGradGradGradGradGradGradGrad

                          Input orientation:                          
 ---------------------------------------------------------------------
 Center     Atomic     Atomic              Coordinates (Angstroms)
 Number     Number      Type              X           Y           Z
 ---------------------------------------------------------------------
    1          1             0       -1.912500    0.000000   -0.759375
    2          6             0       -1.084375    0.000000   -0.218750
    3          1             0        0.434375    0.000000   -1.631250
    4          6             0        0.150000    0.000000   -0.684375
    5          1             0        1.912500    0.000000    0.371875
    6          6             0        0.921875    0.000000    0.375000
    7          7             0        0.181250    0.000000    1.418750
    8          1             0       -1.740625    0.000000    1.631250
    9          7             0       -1.003125    0.000000    1.053125
 ---------------------------------------------------------------------
                    Distance matrix (angstroms):
                    1          2          3          4          5
     1  H    0.000000
     2  C    0.988972   0.000000
     3  H    2.503595   2.074068   0.000000
     4  C    2.063863   1.319276   0.988656   0.000000
     5  H    3.988778   3.054521   2.489450   2.054768   0.000000
     6  C    3.052947   2.092266   2.064630   1.310750   0.990630
     7  N    3.021261   2.069592   3.060486   2.103357   2.023159
     8  H    2.396796   1.962948   3.921037   2.989412   3.864110
     9  N    2.027836   1.274468   3.045041   2.085331   2.994156
                    6          7          8          9
     6  C    0.000000
     7  N    1.279820   0.000000
     8  H    2.943989   1.933587   0.000000
     9  N    2.040950   1.239526   0.937088   0.000000
 Stoichiometry    C3H4N2
 Framework group  CS[SG(C3H4N2)]
 Deg. of freedom   15
 Full point group                 CS      NOp   2
 Largest Abelian subgroup         CS      NOp   2
 Largest concise Abelian subgroup C1      NOp   1
                         Standard orientation:                         
 ---------------------------------------------------------------------
 Center     Atomic     Atomic              Coordinates (Angstroms)
 Number     Number      Type              X           Y           Z
 ---------------------------------------------------------------------
    1          1             0        1.974407    0.585689    0.000000
    2          6             0        1.028833    0.295936    0.000000
    3          1             0        1.140941   -1.775099    0.000000
    4          6             0        0.595873   -0.950271    0.000000
    5          1             0       -1.344123   -1.627388    0.000000
    6          6             0       -0.712074   -0.864589    0.000000
    7          7             0       -1.039336    0.372682    0.000000
    8          1             0        0.028336    1.984773    0.000000
    9          7             0        0.000000    1.048113    0.000000
 ---------------------------------------------------------------------
 Rotational constants (GHZ):     11.1878032     10.4520048      5.4036973
 Isotopes: H-1,C-12,H-1,C-12,H-1,C-12,N-14,H-1,N-14
 Standard basis: CEP-121G(d) (6D, 10F)
 There are    77 symmetry adapted basis functions of A'  symmetry.
 There are    25 symmetry adapted basis functions of A"  symmetry.
 Crude estimate of integral set expansion from redundant integrals=1.000.
 Integral buffers will be    262144 words long.
 Raffenetti 2 integral format.
 Two-electron integral symmetry is turned on.
   102 basis functions      130 primitive gaussians
    13 alpha electrons       13 beta electrons
       nuclear repulsion energy        90.3352096667 Hartrees.
 One-electron integrals computed using PRISM.
   1 Symmetry operations used in ECPInt.
 ECPInt:  NShTT=     528 NPrTT=    1052 LenC2=     529 LenP2D=     991.
 LDataN:  DoStor=F MaxTD1= 4 Len=   56
 LDataN:  DoStor=T MaxTD1= 4 Len=   56
 NBasis=   102 RedAO= T  NBF=    77    25
 NBsUse=   102 1.00D-04 NBFU=    77    25
 Projected Huckel Guess.
 Initial guess orbital symmetries:
       Occupied  (A') (A') (A') (A') (A') (A') (A") (A') (A') (A')
                 (A') (A") (A")
       Virtual   (A") (A") (A') (A') (A') (A') (A') (A') (A') (A')
                 (A') (A') (A') (A') (A') (A') (A') (A') (A') (A')
                 (A') (A') (A') (A') (A') (A') (A') (A') (A') (A')
                 (A') (A') (A') (A') (A') (A') (A') (A') (A') (A')
                 (A') (A') (A') (A') (A') (A') (A') (A') (A') (A')
                 (A') (A') (A') (A') (A') (A') (A') (A') (A') (A')
                 (A') (A') (A') (A') (A') (A') (A') (A') (A') (A")
                 (A") (A") (A") (A") (A") (A") (A") (A") (A") (A")
                 (A") (A") (A") (A") (A") (A") (A") (A") (A")
 Requested convergence on RMS density matrix=1.00D-08 within  64 cycles.
 Requested convergence on MAX density matrix=1.00D-06.
 Integral accuracy reduced to 1.0D-05 until final iterations.
 Initial convergence to 1.0D-05 achieved.  Increase integral accuracy.
 SCF Done:  E(RB+HF-LYP) =  -39.0605426717     A.U. after   16 cycles
             Convg  =    0.4405D-08             -V/T =  2.2320
             S**2   =   0.0000

 **********************************************************************

            Population analysis using the SCF density.

 **********************************************************************

 Orbital Symmetries:
       Occupied  (A') (A') (A') (A') (A') (A') (A') (A") (A') (A')
                 (A') (A") (A")
       Virtual   (A') (A") (A') (A") (A') (A') (A') (A') (A') (A')
                 (A") (A') (A") (A') (A") (A') (A') (A') (A') (A')
                 (A") (A') (A') (A') (A") (A') (A') (A') (A') (A')
                 (A') (A') (A') (A') (A') (A") (A") (A') (A") (A")
                 (A") (A') (A') (A') (A') (A') (A') (A') (A") (A")
                 (A') (A') (A") (A") (A') (A') (A') (A') (A") (A')
                 (A') (A') (A') (A') (A') (A') (A') (A') (A') (A")
                 (A") (A') (A') (A") (A') (A') (A') (A') (A") (A')
                 (A") (A') (A') (A') (A') (A') (A') (A') (A')
  The electronic state is 1-A'.
 Alpha  occ. eigenvalues --   -1.12453  -0.85524  -0.81414  -0.65550  -0.62707
 Alpha  occ. eigenvalues --   -0.57335  -0.48302  -0.48005  -0.44479  -0.40652
 Alpha  occ. eigenvalues --   -0.27600  -0.27308  -0.24922
 Alpha virt. eigenvalues --    0.03989   0.04262   0.08125   0.09026   0.09277
 Alpha virt. eigenvalues --    0.12056   0.17714   0.19360   0.21352   0.23845
 Alpha virt. eigenvalues --    0.28871   0.33345   0.34458   0.36166   0.40590
 Alpha virt. eigenvalues --    0.41925   0.42819   0.44926   0.48995   0.49889
 Alpha virt. eigenvalues --    0.52479   0.52576   0.53724   0.56564   0.60771
 Alpha virt. eigenvalues --    0.61338   0.66129   0.66494   0.69702   0.78015
 Alpha virt. eigenvalues --    0.79144   0.86401   0.87255   0.95520   1.01110
 Alpha virt. eigenvalues --    1.21861   1.31882   1.32180   1.34619   1.52538
 Alpha virt. eigenvalues --    1.56059   1.74188   1.77064   1.79914   1.87211
 Alpha virt. eigenvalues --    1.90562   2.04937   2.08286   2.17980   2.19032
 Alpha virt. eigenvalues --    2.19257   2.24043   2.26471   2.38975   2.49903
 Alpha virt. eigenvalues --    2.56335   2.61098   2.63846   2.67131   2.71032
 Alpha virt. eigenvalues --    2.85061   2.91377   3.41943   3.55973   3.91102
 Alpha virt. eigenvalues --    4.00247   4.18186   4.22280   4.25901   5.38679
 Alpha virt. eigenvalues --    5.60857   5.77185   5.86389   5.88281   6.27455
 Alpha virt. eigenvalues --    6.31864   7.61919   7.93655   7.99843   8.19828
 Alpha virt. eigenvalues --    8.33065   9.59621   9.71953  10.60732  42.92789
 Alpha virt. eigenvalues --   42.96833  43.16763  57.15732  57.28337
          Condensed to atoms (all electrons):
              1          2          3          4          5          6
  1  H    0.466031   0.313699   0.006768  -0.005459  -0.001128   0.000778
  2  C    0.313699   3.729124  -0.116036   0.372944   0.014011   0.209316
  3  H    0.006768  -0.116036   0.542866   0.348045   0.001367  -0.066754
  4  C   -0.005459   0.372944   0.348045   2.807990  -0.062861   0.477843
  5  H   -0.001128   0.014011   0.001367  -0.062861   0.496075   0.369152
  6  C    0.000778   0.209316  -0.066754   0.477843   0.369152   3.095766
  7  N    0.013272  -0.101775   0.016335  -0.102074  -0.027901   0.692291
  8  H   -0.002113  -0.115153   0.000630   0.028566  -0.000669  -0.000545
  9  N   -0.014789   0.362460   0.015187  -0.102236   0.013396  -0.146215
              7          8          9
  1  H    0.013272  -0.002113  -0.014789
  2  C   -0.101775  -0.115153   0.362460
  3  H    0.016335   0.000630   0.015187
  4  C   -0.102074   0.028566  -0.102236
  5  H   -0.027901  -0.000669   0.013396
  6  C    0.692291  -0.000545  -0.146215
  7  N    4.158458  -0.049094   0.410472
  8  H   -0.049094   0.401892   0.361935
  9  N    0.410472   0.361935   4.074471
 Total atomic charges:
              1
  1  H    0.222942
  2  C   -0.668590
  3  H    0.251590
  4  C    0.237241
  5  H    0.198557
  6  C   -0.631630
  7  N   -0.009983
  8  H    0.374553
  9  N    0.025320
 Sum of Mulliken charges=   0.00000
 Atomic charges with hydrogens summed into heavy atoms:
              1
  1  H    0.000000
  2  C   -0.445648
  3  H    0.000000
  4  C    0.488832
  5  H    0.000000
  6  C   -0.433073
  7  N   -0.009983
  8  H    0.000000
  9  N    0.399873
 Sum of Mulliken charges=   0.00000
 Electronic spatial extent (au):  <R**2>=   215.7698
 Charge=     0.0000 electrons
 Dipole moment (Debye):
    X=     2.0470    Y=     1.0620    Z=     0.0000  Tot=     2.3061
 Quadrupole moment (Debye-Ang):
   XX=   -29.8003   YY=   -21.6450   ZZ=   -30.7350
   XY=     2.4719   XZ=     0.0000   YZ=     0.0000
 Octapole moment (Debye-Ang**2):
  XXX=     8.2700  YYY=    11.4791  ZZZ=     0.0000  XYY=     0.3889
  XXY=    -2.2407  XXZ=     0.0000  XZZ=    -0.9103  YZZ=     2.2651
  YYZ=     0.0000  XYZ=     0.0000
 Hexadecapole moment (Debye-Ang**3):
 XXXX=  -154.4557 YYYY=  -122.3393 ZZZZ=   -32.7828 XXXY=     7.0933
 XXXZ=     0.0000 YYYX=    -0.1683 YYYZ=     0.0000 ZZZX=     0.0000
 ZZZY=     0.0000 XXYY=   -47.8394 XXZZ=   -34.0236 YYZZ=   -33.5534
 XXYZ=     0.0000 YYXZ=     0.0000 ZZXY=    -0.2876
 N-N= 9.033520966671D+01 E-N=-2.690180622881D+02  KE= 3.170532256703D+01
 Symmetry A'   KE= 2.355776422975D+01
 Symmetry A"   KE= 8.147558337284D+00
   2 Symmetry operations used in ECPInt.
 ECPInt:  NShTT=     528 NPrTT=    1052 LenC2=     529 LenP2D=     991.
 LDataN:  DoStor=F MaxTD1= 5 Len=  102
 LDataN:  DoStor=T MaxTD1= 5 Len=  102
 ***** Axes restored to original set *****
 -------------------------------------------------------------------
 Center     Atomic                   Forces (Hartrees/Bohr)
 Number     Number              X              Y              Z
 -------------------------------------------------------------------
    1          1          -0.078560452    0.000000000   -0.040523821
    2          6          -0.026062850    0.000000000   -0.061960985
    3          1           0.022518794    0.000000000   -0.084962101
    4          6          -0.008994876    0.000000000   -0.051724452
    5          1           0.085975495    0.000000000    0.011226394
    6          6           0.017330995    0.000000000    0.018645294
    7          7           0.098521847    0.000000000    0.150345459
    8          1          -0.061983188    0.000000000    0.062576047
    9          7          -0.048745765    0.000000000   -0.003621836
 -------------------------------------------------------------------
 Cartesian Forces:  Max     0.150345459 RMS     0.052152705

 GradGradGradGradGradGradGradGradGradGradGradGradGradGradGradGradGradGrad
 Berny optimization.
 Internal  Forces:  Max     0.139840060 RMS     0.051901946
 Search for a local minimum.
 Step number   1 out of a maximum of  48
 All quantities printed in internal units (Hartrees-Bohrs-Radians)
 Second derivative matrix not updated -- first step.
     Eigenvalues ---    0.03204   0.03245   0.03263   0.03273   0.03342
     Eigenvalues ---    0.03375   0.16000   0.16000   0.16000   0.16000
     Eigenvalues ---    0.22000   0.22938   0.49374   0.49681   0.49740
     Eigenvalues ---    0.56490   0.56686   0.60708   0.68179   0.73042
     Eigenvalues ---    0.827791000.000001000.000001000.000001000.00000
     Eigenvalues --- 1000.000001000.000001000.000001000.000001000.00000
     Eigenvalues --- 1000.000001000.000001000.000001000.000001000.00000
     Eigenvalues --- 1000.000001000.000001000.00000
 RFO step:  Lambda=-1.33657761D-01.
 Linear search not attempted -- first point.
 Maximum step size (   0.300) exceeded in Quadratic search.
    -- Step size scaled by   0.698
 Iteration  1 RMS(Cart)=  0.06367894 RMS(Int)=  0.00065353
 Iteration  2 RMS(Cart)=  0.00080807 RMS(Int)=  0.00001148
 Iteration  3 RMS(Cart)=  0.00000046 RMS(Int)=  0.00001147
 Variable       Old X    -DE/DX   Delta X   Delta X   Delta X     New X
                                 (Linear)    (Quad)   (Total)
    R1        1.86889   0.08794   0.00000   0.09739   0.09739   1.96628
    R2        2.49307   0.09080   0.00000   0.08204   0.08205   2.57512
    R3        2.40839   0.12453   0.00000   0.10055   0.10054   2.50893
    R4        1.86829   0.08785   0.00000   0.09720   0.09720   1.96549
    R5        2.47696   0.13771   0.00000   0.12052   0.12054   2.59750
    R6        1.87202   0.08594   0.00000   0.09565   0.09565   1.96766
    R7        2.41851   0.08584   0.00000   0.06927   0.06927   2.48778
    R8        2.34237   0.13984   0.00000   0.09960   0.09958   2.44195
    R9        1.77084   0.08739   0.00000   0.08237   0.08237   1.85321
    A1        2.20252   0.01327   0.00000   0.02997   0.02997   2.23249
    A2        2.21295  -0.00358   0.00000  -0.01010  -0.01010   2.20285
    A3        1.86771  -0.00969   0.00000  -0.01987  -0.01987   1.84784
    A4        2.22327  -0.00368   0.00000  -0.00269  -0.00271   2.22056
    A5        1.83976   0.00198   0.00000  -0.00739  -0.00736   1.83240
    A6        2.22016   0.00170   0.00000   0.01008   0.01007   2.23023
    A7        2.19731   0.00136   0.00000   0.01071   0.01070   2.20802
    A8        1.89479   0.01880   0.00000   0.02972   0.02974   1.92453
    A9        2.19108  -0.02016   0.00000  -0.04044  -0.04045   2.15063
   A10        1.88850  -0.02587   0.00000  -0.04034  -0.04037   1.84813
   A11        1.93402   0.01478   0.00000   0.03788   0.03785   1.97187
   A12        2.17185   0.00236   0.00000   0.00425   0.00426   2.17611
   A13        2.17732  -0.01714   0.00000  -0.04213  -0.04211   2.13521
    D1        0.00000   0.00000   0.00000   0.00000   0.00000   0.00000
    D2        3.14159   0.00000   0.00000   0.00000   0.00000   3.14159
    D3        3.14159   0.00000   0.00000   0.00000   0.00000   3.14159
    D4        0.00000   0.00000   0.00000   0.00000   0.00000   0.00000
    D5        3.14159   0.00000   0.00000   0.00000   0.00000   3.14159
    D6        0.00000   0.00000   0.00000   0.00000   0.00000   0.00000
    D7        0.00000   0.00000   0.00000   0.00000   0.00000   0.00000
    D8        3.14159   0.00000   0.00000   0.00000   0.00000   3.14159
    D9        3.14159   0.00000   0.00000   0.00000   0.00000   3.14159
   D10        0.00000   0.00000   0.00000   0.00000   0.00000   0.00000
   D11        0.00000   0.00000   0.00000   0.00000   0.00000   0.00000
   D12        3.14159   0.00000   0.00000   0.00000   0.00000   3.14159
   D13        0.00000   0.00000   0.00000   0.00000   0.00000   0.00000
   D14        3.14159   0.00000   0.00000   0.00000   0.00000   3.14159
   D15        0.00000   0.00000   0.00000   0.00000   0.00000   0.00000
   D16        3.14159   0.00000   0.00000   0.00000   0.00000   3.14159
         Item               Value     Threshold  Converged?
 Maximum Force            0.139840     0.000450     NO 
 RMS     Force            0.051902     0.000300     NO 
 Maximum Displacement     0.175244     0.001800     NO 
 RMS     Displacement     0.063632     0.001200     NO 
 Predicted change in Energy=-2.656811D-02
 GradGradGradGradGradGradGradGradGradGradGradGradGradGradGradGradGradGrad

                          Input orientation:                          
 ---------------------------------------------------------------------
 Center     Atomic     Atomic              Coordinates (Angstroms)
 Number     Number      Type              X           Y           Z
 ---------------------------------------------------------------------
    1          1             0       -1.807058    0.000000   -1.179842
    2          6             0       -0.921665    0.000000   -0.633273
    3          1             0        0.656681    0.000000   -2.103821
    4          6             0        0.355564    0.000000   -1.108269
    5          1             0        2.192631    0.000000    0.032693
    6          6             0        1.151587    0.000000    0.012313
    7          7             0        0.408889    0.000000    1.099289
    8          1             0       -1.576771    0.000000    1.310184
    9          7             0       -0.816888    0.000000    0.690257
 ---------------------------------------------------------------------
                    Distance matrix (angstroms):
                    1          2          3          4          5
     1  H    0.000000
     2  C    1.040509   0.000000
     3  H    2.631301   2.157241   0.000000
     4  C    2.163806   1.362693   1.040095   0.000000
     5  H    4.179444   3.184705   2.631318   2.162547   0.000000
     6  C    3.189798   2.171440   2.173237   1.374539   1.041244
     7  N    3.178815   2.184524   3.212681   2.208202   2.078307
     8  H    2.500652   2.050900   4.079674   3.095615   3.979997
     9  N    2.116059   1.327671   3.158842   2.146937   3.080519
                    6          7          8          9
     6  C    0.000000
     7  N    1.316478   0.000000
     8  H    3.021325   1.996829   0.000000
     9  N    2.081947   1.292222   0.980679   0.000000
 Stoichiometry    C3H4N2
 Framework group  CS[SG(C3H4N2)]
 Deg. of freedom   15
 Full point group                 CS      NOp   2
 Largest Abelian subgroup         CS      NOp   2
 Largest concise Abelian subgroup C1      NOp   1
                         Standard orientation:                         
 ---------------------------------------------------------------------
 Center     Atomic     Atomic              Coordinates (Angstroms)
 Number     Number      Type              X           Y           Z
 ---------------------------------------------------------------------
    1          1             0        2.066170    0.603624    0.000000
    2          6             0        1.076284    0.283023    0.000000
    3          1             0        1.174474   -1.871982    0.000000
    4          6             0        0.610968   -0.997763    0.000000
    5          1             0       -1.448169   -1.658492    0.000000
    6          6             0       -0.758387   -0.878500    0.000000
    7          7             0       -1.105551    0.391379    0.000000
    8          1             0        0.019820    2.040884    0.000000
    9          7             0        0.000000    1.060405    0.000000
 ---------------------------------------------------------------------
 Rotational constants (GHZ):     10.0953838      9.9137230      5.0018644
 Isotopes: H-1,C-12,H-1,C-12,H-1,C-12,N-14,H-1,N-14
 Standard basis: CEP-121G(d) (6D, 10F)
 There are    77 symmetry adapted basis functions of A'  symmetry.
 There are    25 symmetry adapted basis functions of A"  symmetry.
 Crude estimate of integral set expansion from redundant integrals=1.000.
 Integral buffers will be    262144 words long.
 Raffenetti 2 integral format.
 Two-electron integral symmetry is turned on.
   102 basis functions      130 primitive gaussians
    13 alpha electrons       13 beta electrons
       nuclear repulsion energy        86.8328059610 Hartrees.
 One-electron integrals computed using PRISM.
   1 Symmetry operations used in ECPInt.
 ECPInt:  NShTT=     528 NPrTT=    1052 LenC2=     529 LenP2D=     988.
 LDataN:  DoStor=F MaxTD1= 4 Len=   56
 LDataN:  DoStor=T MaxTD1= 4 Len=   56
 NBasis=   102 RedAO= T  NBF=    77    25
 NBsUse=   102 1.00D-04 NBFU=    77    25
 Initial guess read from the read-write file:
 Initial guess orbital symmetries:
       Occupied  (A') (A') (A') (A') (A') (A') (A') (A") (A') (A')
                 (A') (A") (A")
       Virtual   (A') (A") (A') (A") (A') (A') (A') (A') (A') (A')
                 (A") (A') (A") (A') (A") (A') (A') (A') (A') (A')
                 (A") (A') (A') (A') (A") (A') (A') (A') (A') (A')
                 (A') (A') (A') (A') (A') (A") (A") (A') (A") (A")
                 (A") (A') (A') (A') (A') (A') (A') (A') (A") (A")
                 (A') (A') (A") (A") (A') (A') (A') (A') (A") (A')
                 (A') (A') (A') (A') (A') (A') (A') (A') (A') (A")
                 (A") (A') (A') (A") (A') (A') (A') (A') (A") (A')
                 (A") (A') (A') (A') (A') (A') (A') (A') (A')
 Requested convergence on RMS density matrix=1.00D-08 within  64 cycles.
 Requested convergence on MAX density matrix=1.00D-06.
 Integral accuracy reduced to 1.0D-05 until final iterations.
 Initial convergence to 1.0D-05 achieved.  Increase integral accuracy.
 SCF Done:  E(RB+HF-LYP) =  -39.1241731969     A.U. after   13 cycles
             Convg  =    0.9663D-08             -V/T =  2.2756
             S**2   =   0.0000
   2 Symmetry operations used in ECPInt.
 ECPInt:  NShTT=     528 NPrTT=    1052 LenC2=     529 LenP2D=     988.
 LDataN:  DoStor=F MaxTD1= 5 Len=  102
 LDataN:  DoStor=T MaxTD1= 5 Len=  102
 ***** Axes restored to original set *****
 -------------------------------------------------------------------
 Center     Atomic                   Forces (Hartrees/Bohr)
 Number     Number              X              Y              Z
 -------------------------------------------------------------------
    1          1          -0.033009484    0.000000000   -0.011739855
    2          6          -0.001197516    0.000000000   -0.027074818
    3          1           0.009042299    0.000000000   -0.033333789
    4          6          -0.002729357    0.000000000   -0.016663942
    5          1           0.034033788    0.000000000    0.007570110
    6          6           0.003162608    0.000000000    0.000905665
    7          7           0.048159212    0.000000000    0.060975346
    8          1          -0.020512641    0.000000000    0.025877920
    9          7          -0.036948910    0.000000000   -0.006516637
 -------------------------------------------------------------------
 Cartesian Forces:  Max     0.060975346 RMS     0.022112360

 GradGradGradGradGradGradGradGradGradGradGradGradGradGradGradGradGradGrad
 Berny optimization.
 Internal  Forces:  Max     0.062962219 RMS     0.020556784
 Search for a local minimum.
 Step number   2 out of a maximum of  48
 All quantities printed in internal units (Hartrees-Bohrs-Radians)
 Update second derivatives using information from points  1  2
 Trust test= 2.39D+00 RLast= 3.00D-01 DXMaxT set to 4.24D-01
     Eigenvalues ---    0.03204   0.03247   0.03260   0.03273   0.03342
     Eigenvalues ---    0.03375   0.15907   0.16000   0.16000   0.16016
     Eigenvalues ---    0.22015   0.23434   0.49454   0.49711   0.50993
     Eigenvalues ---    0.57162   0.58118   0.61734   0.68478   0.73552
     Eigenvalues ---    0.808471000.000001000.000001000.000001000.00000
     Eigenvalues --- 1000.000001000.000001000.000001000.000001000.00000
     Eigenvalues --- 1000.000001000.000001000.000001000.000001000.00000
     Eigenvalues --- 1000.000001000.000001000.00000
 RFO step:  Lambda=-2.73173530D-03.
 Quartic linear search produced a step of  0.85999.
 Iteration  1 RMS(Cart)=  0.06217201 RMS(Int)=  0.00155786
 Iteration  2 RMS(Cart)=  0.00187414 RMS(Int)=  0.00004091
 Iteration  3 RMS(Cart)=  0.00000350 RMS(Int)=  0.00004080
 Iteration  4 RMS(Cart)=  0.00000000 RMS(Int)=  0.00004080
 Variable       Old X    -DE/DX   Delta X   Delta X   Delta X     New X
                                 (Linear)    (Quad)   (Total)
    R1        1.96628   0.03426   0.08375   0.00369   0.08744   2.05372
    R2        2.57512   0.03497   0.07056  -0.00332   0.06718   2.64230
    R3        2.50893   0.04648   0.08646  -0.00737   0.07903   2.58796
    R4        1.96549   0.03452   0.08359   0.00478   0.08837   2.05387
    R5        2.59750   0.05064   0.10366  -0.01232   0.09138   2.68888
    R6        1.96766   0.03418   0.08225   0.00636   0.08862   2.05628
    R7        2.48778   0.03296   0.05957  -0.00324   0.05641   2.54419
    R8        2.44195   0.06296   0.08564   0.01426   0.09991   2.54186
    R9        1.85321   0.03225   0.07084  -0.00560   0.06525   1.91846
    A1        2.23249   0.00778   0.02577   0.04757   0.07340   2.30589
    A2        2.20285  -0.00668  -0.00869  -0.06228  -0.07090   2.13195
    A3        1.84784  -0.00109  -0.01709   0.01471  -0.00250   1.84535
    A4        2.22056  -0.00169  -0.00233   0.00157  -0.00075   2.21981
    A5        1.83240   0.00142  -0.00633  -0.00789  -0.01425   1.81815
    A6        2.23023   0.00027   0.00866   0.00632   0.01500   2.24523
    A7        2.20802   0.00282   0.00921   0.03805   0.04721   2.25523
    A8        1.92453   0.00793   0.02558   0.00838   0.03405   1.95858
    A9        2.15063  -0.01075  -0.03478  -0.04643  -0.08126   2.06937
   A10        1.84813  -0.00989  -0.03471  -0.00088  -0.03548   1.81265
   A11        1.97187   0.00164   0.03255  -0.01431   0.01819   1.99006
   A12        2.17611   0.00575   0.00367   0.05017   0.05386   2.22997
   A13        2.13521  -0.00739  -0.03622  -0.03585  -0.07205   2.06316
    D1        0.00000   0.00000   0.00000   0.00000   0.00000   0.00000
    D2        3.14159   0.00000   0.00000   0.00000   0.00000   3.14159
    D3        3.14159   0.00000   0.00000   0.00000   0.00000   3.14159
    D4        0.00000   0.00000   0.00000   0.00000   0.00000   0.00000
    D5        3.14159   0.00000   0.00000   0.00000   0.00000   3.14159
    D6        0.00000   0.00000   0.00000   0.00000   0.00000   0.00000
    D7        0.00000   0.00000   0.00000   0.00000   0.00000   0.00000
    D8        3.14159   0.00000   0.00000   0.00000   0.00000   3.14159
    D9        3.14159   0.00000   0.00000   0.00000   0.00000   3.14159
   D10        0.00000   0.00000   0.00000   0.00000   0.00000   0.00000
   D11        0.00000   0.00000   0.00000   0.00000   0.00000   0.00000
   D12        3.14159   0.00000   0.00000   0.00000   0.00000   3.14159
   D13        0.00000   0.00000   0.00000   0.00000   0.00000   0.00000
   D14        3.14159   0.00000   0.00000   0.00000   0.00000   3.14159
   D15        0.00000   0.00000   0.00000   0.00000   0.00000   0.00000
   D16        3.14159   0.00000   0.00000   0.00000   0.00000   3.14159
         Item               Value     Threshold  Converged?
 Maximum Force            0.062962     0.000450     NO 
 RMS     Force            0.020557     0.000300     NO 
 Maximum Displacement     0.185936     0.001800     NO 
 RMS     Displacement     0.062130     0.001200     NO 
 Predicted change in Energy=-2.229791D-02
 GradGradGradGradGradGradGradGradGradGradGradGradGradGradGradGradGradGrad

                          Input orientation:                          
 ---------------------------------------------------------------------
 Center     Atomic     Atomic              Coordinates (Angstroms)
 Number     Number      Type              X           Y           Z
 ---------------------------------------------------------------------
    1          1             0       -1.896506    0.000000   -1.183362
    2          6             0       -0.934148    0.000000   -0.678425
    3          1             0        0.695691    0.000000   -2.200592
    4          6             0        0.378122    0.000000   -1.161161
    5          1             0        2.265621    0.000000    0.105254
    6          6             0        1.181373    0.000000    0.013323
    7          7             0        0.439997    0.000000    1.137137
    8          1             0       -1.579170    0.000000    1.369286
    9          7             0       -0.827506    0.000000    0.686906
 ---------------------------------------------------------------------
                    Distance matrix (angstroms):
                    1          2          3          4          5
     1  H    0.000000
     2  C    1.086781   0.000000
     3  H    2.784644   2.230105   0.000000
     4  C    2.274736   1.398244   1.086861   0.000000
     5  H    4.357044   3.294340   2.789553   2.272984   0.000000
     6  C    3.302332   2.225746   2.266562   1.422893   1.088138
     7  N    3.293018   2.276959   3.347508   2.299131   2.097065
     8  H    2.572298   2.146899   4.233087   3.199087   4.047245
     9  N    2.154220   1.369489   3.264624   2.206556   3.147340
                    6          7          8          9
     6  C    0.000000
     7  N    1.346327   0.000000
     8  H    3.075587   2.032469   0.000000
     9  N    2.118799   1.345092   1.015206   0.000000
 Stoichiometry    C3H4N2
 Framework group  CS[SG(C3H4N2)]
 Deg. of freedom   15
 Full point group                 CS      NOp   2
 Largest Abelian subgroup         CS      NOp   2
 Largest concise Abelian subgroup C1      NOp   1
                         Standard orientation:                         
 ---------------------------------------------------------------------
 Center     Atomic     Atomic              Coordinates (Angstroms)
 Number     Number      Type              X           Y           Z
 ---------------------------------------------------------------------
    1          1             0        2.121309    0.704120    0.000000
    2          6             0        1.117510    0.287610    0.000000
    3          1             0        1.244492   -1.938877    0.000000
    4          6             0        0.648865   -1.029759    0.000000
    5          1             0       -1.532076   -1.670035    0.000000
    6          6             0       -0.767688   -0.895596    0.000000
    7          7             0       -1.156999    0.393215    0.000000
    8          1             0       -0.043480    2.093511    0.000000
    9          7             0        0.000000    1.079237    0.000000
 ---------------------------------------------------------------------
 Rotational constants (GHZ):      9.5465792      9.2511053      4.6982600
 Isotopes: H-1,C-12,H-1,C-12,H-1,C-12,N-14,H-1,N-14
 Standard basis: CEP-121G(d) (6D, 10F)
 There are    77 symmetry adapted basis functions of A'  symmetry.
 There are    25 symmetry adapted basis functions of A"  symmetry.
 Crude estimate of integral set expansion from redundant integrals=1.000.
 Integral buffers will be    262144 words long.
 Raffenetti 2 integral format.
 Two-electron integral symmetry is turned on.
   102 basis functions      130 primitive gaussians
    13 alpha electrons       13 beta electrons
       nuclear repulsion energy        84.0875044930 Hartrees.
 One-electron integrals computed using PRISM.
   1 Symmetry operations used in ECPInt.
 ECPInt:  NShTT=     528 NPrTT=    1052 LenC2=     529 LenP2D=     988.
 LDataN:  DoStor=F MaxTD1= 4 Len=   56
 LDataN:  DoStor=T MaxTD1= 4 Len=   56
 NBasis=   102 RedAO= T  NBF=    77    25
 NBsUse=   102 1.00D-04 NBFU=    77    25
 Initial guess read from the read-write file:
 Initial guess orbital symmetries:
       Occupied  (A') (A') (A') (A') (A') (A') (A') (A") (A') (A')
                 (A') (A") (A")
       Virtual   (A") (A') (A") (A') (A') (A') (A') (A') (A') (A')
                 (A") (A') (A') (A") (A') (A") (A') (A') (A') (A')
                 (A') (A') (A") (A') (A') (A") (A') (A') (A') (A')
                 (A') (A') (A') (A') (A') (A") (A") (A") (A') (A")
                 (A") (A') (A') (A') (A') (A') (A') (A') (A') (A")
                 (A") (A') (A") (A") (A') (A') (A') (A') (A") (A')
                 (A') (A') (A') (A') (A') (A') (A') (A') (A') (A")
                 (A") (A') (A') (A") (A') (A') (A') (A') (A") (A')
                 (A") (A') (A') (A') (A') (A') (A') (A') (A')
 Requested convergence on RMS density matrix=1.00D-08 within  64 cycles.
 Requested convergence on MAX density matrix=1.00D-06.
 Integral accuracy reduced to 1.0D-05 until final iterations.
 Initial convergence to 1.0D-05 achieved.  Increase integral accuracy.
 SCF Done:  E(RB+HF-LYP) =  -39.1399906495     A.U. after   14 cycles
             Convg  =    0.4517D-08             -V/T =  2.3096
             S**2   =   0.0000
   2 Symmetry operations used in ECPInt.
 ECPInt:  NShTT=     528 NPrTT=    1052 LenC2=     529 LenP2D=     988.
 LDataN:  DoStor=F MaxTD1= 5 Len=  102
 LDataN:  DoStor=T MaxTD1= 5 Len=  102
 ***** Axes restored to original set *****
 -------------------------------------------------------------------
 Center     Atomic                   Forces (Hartrees/Bohr)
 Number     Number              X              Y              Z
 -------------------------------------------------------------------
    1          1           0.001860410    0.000000000    0.001310644
    2          6           0.003429569    0.000000000   -0.002914783
    3          1          -0.000568544    0.000000000    0.002750963
    4          6          -0.004367390    0.000000000    0.000309889
    5          1          -0.001969917    0.000000000   -0.001460523
    6          6           0.004355958    0.000000000    0.003830193
    7          7           0.012612435    0.000000000   -0.002023639
    8          1           0.000659673    0.000000000   -0.002431304
    9          7          -0.016012193    0.000000000    0.000628560
 -------------------------------------------------------------------
 Cartesian Forces:  Max     0.016012193 RMS     0.004382021

 GradGradGradGradGradGradGradGradGradGradGradGradGradGradGradGradGradGrad
 Berny optimization.
 Internal  Forces:  Max     0.012277171 RMS     0.002546210
 Search for a local minimum.
 Step number   3 out of a maximum of  48
 All quantities printed in internal units (Hartrees-Bohrs-Radians)
 Update second derivatives using information from points  1  2  3
 Trust test= 7.09D-01 RLast= 3.01D-01 DXMaxT set to 4.24D-01
     Eigenvalues ---    0.03203   0.03248   0.03251   0.03273   0.03342
     Eigenvalues ---    0.03372   0.15417   0.16000   0.16002   0.16027
     Eigenvalues ---    0.22052   0.23375   0.46555   0.49517   0.49716
     Eigenvalues ---    0.57355   0.58216   0.59831   0.65836   0.68862
     Eigenvalues ---    0.808591000.000001000.000001000.000001000.00000
     Eigenvalues --- 1000.000001000.000001000.000001000.000001000.00000
     Eigenvalues --- 1000.000001000.000001000.000001000.000001000.00000
     Eigenvalues --- 1000.000001000.000001000.00000
 RFO step:  Lambda=-4.40720051D-04.
 Quartic linear search produced a step of -0.01662.
 Iteration  1 RMS(Cart)=  0.00688196 RMS(Int)=  0.00002576
 Iteration  2 RMS(Cart)=  0.00002725 RMS(Int)=  0.00000511
 Iteration  3 RMS(Cart)=  0.00000000 RMS(Int)=  0.00000511
 Variable       Old X    -DE/DX   Delta X   Delta X   Delta X     New X
                                 (Linear)    (Quad)   (Total)
    R1        2.05372  -0.00226  -0.00145  -0.00214  -0.00359   2.05013
    R2        2.64230  -0.00320  -0.00112  -0.00438  -0.00549   2.63681
    R3        2.58796  -0.00090  -0.00131   0.00171   0.00041   2.58837
    R4        2.05387  -0.00280  -0.00147  -0.00319  -0.00466   2.04921
    R5        2.68888   0.00070  -0.00152   0.00244   0.00091   2.68979
    R6        2.05628  -0.00209  -0.00147  -0.00184  -0.00331   2.05297
    R7        2.54419  -0.00261  -0.00094  -0.00165  -0.00259   2.54160
    R8        2.54186   0.01228  -0.00166   0.01752   0.01586   2.55771
    R9        1.91846  -0.00212  -0.00108  -0.00157  -0.00265   1.91581
    A1        2.30589  -0.00032  -0.00122   0.00100  -0.00023   2.30567
    A2        2.13195  -0.00094   0.00118  -0.00460  -0.00343   2.12852
    A3        1.84535   0.00126   0.00004   0.00360   0.00366   1.84900
    A4        2.21981  -0.00146   0.00001  -0.00252  -0.00251   2.21730
    A5        1.81815   0.00345   0.00024   0.00797   0.00820   1.82635
    A6        2.24523  -0.00199  -0.00025  -0.00544  -0.00569   2.23953
    A7        2.25523  -0.00056  -0.00078  -0.00282  -0.00360   2.25163
    A8        1.95858  -0.00154  -0.00057  -0.00874  -0.00932   1.94926
    A9        2.06937   0.00210   0.00135   0.01156   0.01292   2.08229
   A10        1.81265   0.00081   0.00059   0.00884   0.00942   1.82207
   A11        1.99006  -0.00398  -0.00030  -0.01167  -0.01196   1.97810
   A12        2.22997   0.00069  -0.00089  -0.00124  -0.00214   2.22783
   A13        2.06316   0.00329   0.00120   0.01290   0.01409   2.07726
    D1        0.00000   0.00000   0.00000   0.00000   0.00000   0.00000
    D2        3.14159   0.00000   0.00000   0.00000   0.00000   3.14159
    D3        3.14159   0.00000   0.00000   0.00000   0.00000   3.14159
    D4        0.00000   0.00000   0.00000   0.00000   0.00000   0.00000
    D5        3.14159   0.00000   0.00000   0.00000   0.00000   3.14159
    D6        0.00000   0.00000   0.00000   0.00000   0.00000   0.00000
    D7        0.00000   0.00000   0.00000   0.00000   0.00000   0.00000
    D8        3.14159   0.00000   0.00000   0.00000   0.00000   3.14159
    D9        3.14159   0.00000   0.00000   0.00000   0.00000   3.14159
   D10        0.00000   0.00000   0.00000   0.00000   0.00000   0.00000
   D11        0.00000   0.00000   0.00000   0.00000   0.00000   0.00000
   D12        3.14159   0.00000   0.00000   0.00000   0.00000   3.14159
   D13        0.00000   0.00000   0.00000   0.00000   0.00000   0.00000
   D14        3.14159   0.00000   0.00000   0.00000   0.00000   3.14159
   D15        0.00000   0.00000   0.00000   0.00000   0.00000   0.00000
   D16        3.14159   0.00000   0.00000   0.00000   0.00000   3.14159
         Item               Value     Threshold  Converged?
 Maximum Force            0.012277     0.000450     NO 
 RMS     Force            0.002546     0.000300     NO 
 Maximum Displacement     0.020872     0.001800     NO 
 RMS     Displacement     0.006877     0.001200     NO 
 Predicted change in Energy=-2.248390D-04
 GradGradGradGradGradGradGradGradGradGradGradGradGradGradGradGradGradGrad

                          Input orientation:                          
 ---------------------------------------------------------------------
 Center     Atomic     Atomic              Coordinates (Angstroms)
 Number     Number      Type              X           Y           Z
 ---------------------------------------------------------------------
    1          1             0       -1.894735    0.000000   -1.179382
    2          6             0       -0.935175    0.000000   -0.673208
    3          1             0        0.691624    0.000000   -2.189581
    4          6             0        0.375320    0.000000   -1.152342
    5          1             0        2.269483    0.000000    0.098677
    6          6             0        1.186132    0.000000    0.017523
    7          7             0        0.442032    0.000000    1.137889
    8          1             0       -1.592118    0.000000    1.368499
    9          7             0       -0.836217    0.000000    0.692918
 ---------------------------------------------------------------------
                    Distance matrix (angstroms):
                    1          2          3          4          5
     1  H    0.000000
     2  C    1.084881   0.000000
     3  H    2.776644   2.223929   0.000000
     4  C    2.270216   1.395338   1.084395   0.000000
     5  H    4.355933   3.296307   2.779526   2.270001   0.000000
     6  C    3.305196   2.230931   2.261823   1.423377   1.086387
     7  N    3.290930   2.275252   3.336817   2.291203   2.102270
     8  H    2.565789   2.144794   4.227932   3.197726   4.065023
     9  N    2.150806   1.369705   3.262376   2.207443   3.162040
                    6          7          8          9
     6  C    0.000000
     7  N    1.344955   0.000000
     8  H    3.089306   2.047180   0.000000
     9  N    2.132147   1.353484   1.013803   0.000000
 Stoichiometry    C3H4N2
 Framework group  CS[SG(C3H4N2)]
 Deg. of freedom   15
 Full point group                 CS      NOp   2
 Largest Abelian subgroup         CS      NOp   2
 Largest concise Abelian subgroup C1      NOp   1
                         Standard orientation:                         
 ---------------------------------------------------------------------
 Center     Atomic     Atomic              Coordinates (Angstroms)
 Number     Number      Type              X           Y           Z
 ---------------------------------------------------------------------
    1          1             0        2.117331    0.707763    0.000000
    2          6             0        1.115642    0.291126    0.000000
    3          1             0        1.246915   -1.928926    0.000000
    4          6             0        0.649391   -1.024008    0.000000
    5          1             0       -1.521967   -1.685907    0.000000
    6          6             0       -0.768829   -0.902952    0.000000
    7          7             0       -1.157690    0.384562    0.000000
    8          1             0       -0.038645    2.098821    0.000000
    9          7             0        0.000000    1.085755    0.000000
 ---------------------------------------------------------------------
 Rotational constants (GHZ):      9.4743643      9.2951518      4.6919512
 Isotopes: H-1,C-12,H-1,C-12,H-1,C-12,N-14,H-1,N-14
 Standard basis: CEP-121G(d) (6D, 10F)
 There are    77 symmetry adapted basis functions of A'  symmetry.
 There are    25 symmetry adapted basis functions of A"  symmetry.
 Crude estimate of integral set expansion from redundant integrals=1.000.
 Integral buffers will be    262144 words long.
 Raffenetti 2 integral format.
 Two-electron integral symmetry is turned on.
   102 basis functions      130 primitive gaussians
    13 alpha electrons       13 beta electrons
       nuclear repulsion energy        84.0313242457 Hartrees.
 One-electron integrals computed using PRISM.
   1 Symmetry operations used in ECPInt.
 ECPInt:  NShTT=     528 NPrTT=    1052 LenC2=     529 LenP2D=     988.
 LDataN:  DoStor=F MaxTD1= 4 Len=   56
 LDataN:  DoStor=T MaxTD1= 4 Len=   56
 NBasis=   102 RedAO= T  NBF=    77    25
 NBsUse=   102 1.00D-04 NBFU=    77    25
 Initial guess read from the read-write file:
 Initial guess orbital symmetries:
       Occupied  (A') (A') (A') (A') (A') (A') (A') (A") (A') (A')
                 (A') (A") (A")
       Virtual   (A") (A') (A") (A') (A') (A') (A') (A') (A') (A')
                 (A") (A') (A') (A") (A') (A') (A") (A') (A') (A')
                 (A') (A') (A") (A') (A') (A') (A") (A') (A') (A')
                 (A') (A') (A') (A') (A') (A") (A") (A") (A') (A")
                 (A") (A') (A') (A') (A') (A') (A') (A') (A') (A")
                 (A") (A') (A") (A") (A') (A') (A') (A") (A') (A')
                 (A') (A') (A') (A') (A') (A') (A') (A') (A') (A")
                 (A") (A') (A') (A") (A') (A') (A') (A') (A") (A')
                 (A") (A') (A') (A') (A') (A') (A') (A') (A')
 Requested convergence on RMS density matrix=1.00D-08 within  64 cycles.
 Requested convergence on MAX density matrix=1.00D-06.
 Integral accuracy reduced to 1.0D-05 until final iterations.
 Initial convergence to 1.0D-05 achieved.  Increase integral accuracy.
 SCF Done:  E(RB+HF-LYP) =  -39.1402454099     A.U. after   11 cycles
             Convg  =    0.9852D-08             -V/T =  2.3097
             S**2   =   0.0000
   2 Symmetry operations used in ECPInt.
 ECPInt:  NShTT=     528 NPrTT=    1052 LenC2=     529 LenP2D=     988.
 LDataN:  DoStor=F MaxTD1= 5 Len=  102
 LDataN:  DoStor=T MaxTD1= 5 Len=  102
 ***** Axes restored to original set *****
 -------------------------------------------------------------------
 Center     Atomic                   Forces (Hartrees/Bohr)
 Number     Number              X              Y              Z
 -------------------------------------------------------------------
    1          1           0.000793431    0.000000000    0.000308086
    2          6           0.002562232    0.000000000   -0.001466039
    3          1          -0.000253430    0.000000000    0.000850862
    4          6          -0.002602777    0.000000000   -0.001293577
    5          1          -0.001101763    0.000000000   -0.000226174
    6          6          -0.002653635    0.000000000    0.002657558
    7          7           0.007822035    0.000000000    0.002025698
    8          1           0.001132607    0.000000000   -0.000614297
    9          7          -0.005698700    0.000000000   -0.002242116
 -------------------------------------------------------------------
 Cartesian Forces:  Max     0.007822035 RMS     0.002264822

 GradGradGradGradGradGradGradGradGradGradGradGradGradGradGradGradGradGrad
 Berny optimization.
 Internal  Forces:  Max     0.005184593 RMS     0.001315222
 Search for a local minimum.
 Step number   4 out of a maximum of  48
 All quantities printed in internal units (Hartrees-Bohrs-Radians)
 Update second derivatives using information from points  1  2  3  4
 Trust test= 1.13D+00 RLast= 3.43D-02 DXMaxT set to 4.24D-01
     Eigenvalues ---    0.03203   0.03248   0.03250   0.03273   0.03342
     Eigenvalues ---    0.03373   0.15121   0.15729   0.16002   0.16122
     Eigenvalues ---    0.21989   0.34438   0.39100   0.46757   0.49575
     Eigenvalues ---    0.49776   0.57520   0.60132   0.60449   0.71037
     Eigenvalues ---    0.745461000.000001000.000001000.000001000.00000
     Eigenvalues --- 1000.000001000.000001000.000001000.000001000.00000
     Eigenvalues --- 1000.000001000.000001000.000001000.000001000.00000
     Eigenvalues --- 1000.000001000.000001000.00000
 RFO step:  Lambda=-1.59213560D-04.
 Quartic linear search produced a step of  0.16889.
 Iteration  1 RMS(Cart)=  0.00358342 RMS(Int)=  0.00000967
 Iteration  2 RMS(Cart)=  0.00001079 RMS(Int)=  0.00000247
 Iteration  3 RMS(Cart)=  0.00000000 RMS(Int)=  0.00000247
 Variable       Old X    -DE/DX   Delta X   Delta X   Delta X     New X
                                 (Linear)    (Quad)   (Total)
    R1        2.05013  -0.00085  -0.00061  -0.00201  -0.00262   2.04751
    R2        2.63681  -0.00343  -0.00093  -0.00756  -0.00849   2.62832
    R3        2.58837   0.00007   0.00007   0.00121   0.00127   2.58964
    R4        2.04921  -0.00089  -0.00079  -0.00231  -0.00310   2.04611
    R5        2.68979   0.00102   0.00015   0.00203   0.00219   2.69198
    R6        2.05297  -0.00112  -0.00056  -0.00261  -0.00317   2.04980
    R7        2.54160  -0.00261  -0.00044  -0.00422  -0.00466   2.53694
    R8        2.55771   0.00518   0.00268   0.01136   0.01404   2.57175
    R9        1.91581  -0.00125  -0.00045  -0.00242  -0.00287   1.91294
    A1        2.30567  -0.00022  -0.00004  -0.00057  -0.00060   2.30506
    A2        2.12852  -0.00002  -0.00058  -0.00068  -0.00126   2.12726
    A3        1.84900   0.00024   0.00062   0.00125   0.00186   1.85086
    A4        2.21730  -0.00006  -0.00042   0.00117   0.00074   2.21805
    A5        1.82635   0.00012   0.00138  -0.00179  -0.00040   1.82595
    A6        2.23953  -0.00006  -0.00096   0.00062  -0.00034   2.23919
    A7        2.25163  -0.00123  -0.00061  -0.00622  -0.00683   2.24480
    A8        1.94926   0.00217  -0.00157   0.00783   0.00626   1.95552
    A9        2.08229  -0.00093   0.00218  -0.00161   0.00057   2.08286
   A10        1.82207  -0.00273   0.00159  -0.00886  -0.00726   1.81481
   A11        1.97810   0.00020  -0.00202   0.00157  -0.00045   1.97764
   A12        2.22783   0.00019  -0.00036   0.00013  -0.00023   2.22761
   A13        2.07726  -0.00039   0.00238  -0.00170   0.00068   2.07794
    D1        0.00000   0.00000   0.00000   0.00000   0.00000   0.00000
    D2        3.14159   0.00000   0.00000   0.00000   0.00000   3.14159
    D3        3.14159   0.00000   0.00000   0.00000   0.00000   3.14159
    D4        0.00000   0.00000   0.00000   0.00000   0.00000   0.00000
    D5        3.14159   0.00000   0.00000   0.00000   0.00000   3.14159
    D6        0.00000   0.00000   0.00000   0.00000   0.00000   0.00000
    D7        0.00000   0.00000   0.00000   0.00000   0.00000   0.00000
    D8        3.14159   0.00000   0.00000   0.00000   0.00000   3.14159
    D9        3.14159   0.00000   0.00000   0.00000   0.00000   3.14159
   D10        0.00000   0.00000   0.00000   0.00000   0.00000   0.00000
   D11        0.00000   0.00000   0.00000   0.00000   0.00000   0.00000
   D12        3.14159   0.00000   0.00000   0.00000   0.00000   3.14159
   D13        0.00000   0.00000   0.00000   0.00000   0.00000   0.00000
   D14        3.14159   0.00000   0.00000   0.00000   0.00000   3.14159
   D15        0.00000   0.00000   0.00000   0.00000   0.00000   0.00000
   D16        3.14159   0.00000   0.00000   0.00000   0.00000   3.14159
         Item               Value     Threshold  Converged?
 Maximum Force            0.005185     0.000450     NO 
 RMS     Force            0.001315     0.000300     NO 
 Maximum Displacement     0.010449     0.001800     NO 
 RMS     Displacement     0.003583     0.001200     NO 
 Predicted change in Energy=-8.503910D-05
 GradGradGradGradGradGradGradGradGradGradGradGradGradGradGradGradGradGrad

                          Input orientation:                          
 ---------------------------------------------------------------------
 Center     Atomic     Atomic              Coordinates (Angstroms)
 Number     Number      Type              X           Y           Z
 ---------------------------------------------------------------------
    1          1             0       -1.891416    0.000000   -1.181329
    2          6             0       -0.933493    0.000000   -0.675027
    3          1             0        0.689691    0.000000   -2.187720
    4          6             0        0.372883    0.000000   -1.152351
    5          1             0        2.265806    0.000000    0.093258
    6          6             0        1.183643    0.000000    0.018960
    7          7             0        0.447237    0.000000    1.141452
    8          1             0       -1.593618    0.000000    1.364809
    9          7             0       -0.837307    0.000000    0.691971
 ---------------------------------------------------------------------
                    Distance matrix (angstroms):
                    1          2          3          4          5
     1  H    0.000000
     2  C    1.083494   0.000000
     3  H    2.770368   2.218776   0.000000
     4  C    2.264485   1.390847   1.082754   0.000000
     5  H    4.348226   3.290254   2.772543   2.265987   0.000000
     6  C    3.301013   2.227977   2.261289   1.424536   1.084710
     7  N    3.296151   2.281668   3.337989   2.295008   2.099025
     8  H    2.563494   2.143991   4.223028   3.194249   4.063495
     9  N    2.149511   1.370378   3.259500   2.205920   3.160343
                    6          7          8          9
     6  C    0.000000
     7  N    1.342492   0.000000
     8  H    3.086177   2.053041   0.000000
     9  N    2.130067   1.360914   1.012283   0.000000
 Stoichiometry    C3H4N2
 Framework group  CS[SG(C3H4N2)]
 Deg. of freedom   15
 Full point group                 CS      NOp   2
 Largest Abelian subgroup         CS      NOp   2
 Largest concise Abelian subgroup C1      NOp   1
                         Standard orientation:                         
 ---------------------------------------------------------------------
 Center     Atomic     Atomic              Coordinates (Angstroms)
 Number     Number      Type              X           Y           Z
 ---------------------------------------------------------------------
    1          1             0        2.115847    0.707114    0.000000
    2          6             0        1.115710    0.290357    0.000000
    3          1             0        1.249689   -1.924370    0.000000
    4          6             0        0.652606   -1.021128    0.000000
    5          1             0       -1.512819   -1.688685    0.000000
    6          6             0       -0.766871   -0.901184    0.000000
    7          7             0       -1.164150    0.381179    0.000000
    8          1             0       -0.037749    2.097628    0.000000
    9          7             0        0.000000    1.086048    0.000000
 ---------------------------------------------------------------------
 Rotational constants (GHZ):      9.4999171      9.2636291      4.6901426
 Isotopes: H-1,C-12,H-1,C-12,H-1,C-12,N-14,H-1,N-14
 Standard basis: CEP-121G(d) (6D, 10F)
 There are    77 symmetry adapted basis functions of A'  symmetry.
 There are    25 symmetry adapted basis functions of A"  symmetry.
 Crude estimate of integral set expansion from redundant integrals=1.000.
 Integral buffers will be    262144 words long.
 Raffenetti 2 integral format.
 Two-electron integral symmetry is turned on.
   102 basis functions      130 primitive gaussians
    13 alpha electrons       13 beta electrons
       nuclear repulsion energy        84.0185318475 Hartrees.
 One-electron integrals computed using PRISM.
   1 Symmetry operations used in ECPInt.
 ECPInt:  NShTT=     528 NPrTT=    1052 LenC2=     529 LenP2D=     988.
 LDataN:  DoStor=F MaxTD1= 4 Len=   56
 LDataN:  DoStor=T MaxTD1= 4 Len=   56
 NBasis=   102 RedAO= T  NBF=    77    25
 NBsUse=   102 1.00D-04 NBFU=    77    25
 Initial guess read from the read-write file:
 Initial guess orbital symmetries:
       Occupied  (A') (A') (A') (A') (A') (A') (A') (A") (A') (A')
                 (A') (A") (A")
       Virtual   (A") (A') (A") (A') (A') (A') (A') (A') (A') (A')
                 (A") (A') (A') (A") (A') (A') (A") (A') (A') (A')
                 (A') (A') (A") (A') (A') (A") (A') (A') (A') (A')
                 (A') (A') (A') (A') (A') (A") (A") (A") (A') (A")
                 (A") (A') (A') (A') (A') (A') (A') (A') (A') (A")
                 (A") (A') (A") (A") (A') (A') (A') (A") (A') (A')
                 (A') (A') (A') (A') (A') (A') (A') (A') (A') (A")
                 (A") (A') (A') (A") (A') (A') (A') (A') (A") (A')
                 (A") (A') (A') (A') (A') (A') (A') (A') (A')
 Requested convergence on RMS density matrix=1.00D-08 within  64 cycles.
 Requested convergence on MAX density matrix=1.00D-06.
 SCF Done:  E(RB+HF-LYP) =  -39.1403397602     A.U. after   10 cycles
             Convg  =    0.4923D-08             -V/T =  2.3097
             S**2   =   0.0000
   2 Symmetry operations used in ECPInt.
 ECPInt:  NShTT=     528 NPrTT=    1052 LenC2=     529 LenP2D=     988.
 LDataN:  DoStor=F MaxTD1= 5 Len=  102
 LDataN:  DoStor=T MaxTD1= 5 Len=  102
 ***** Axes restored to original set *****
 -------------------------------------------------------------------
 Center     Atomic                   Forces (Hartrees/Bohr)
 Number     Number              X              Y              Z
 -------------------------------------------------------------------
    1          1          -0.000146207    0.000000000   -0.000095315
    2          6           0.000749965    0.000000000    0.001134461
    3          1           0.000211170    0.000000000   -0.000173645
    4          6          -0.000068843    0.000000000   -0.000743214
    5          1           0.000209309    0.000000000    0.000098997
    6          6          -0.001148955    0.000000000    0.000986070
    7          7           0.001688280    0.000000000   -0.000343938
    8          1           0.000315205    0.000000000    0.000339481
    9          7          -0.001809924    0.000000000   -0.001202896
 -------------------------------------------------------------------
 Cartesian Forces:  Max     0.001809924 RMS     0.000687555

 GradGradGradGradGradGradGradGradGradGradGradGradGradGradGradGradGradGrad
 Berny optimization.
 Internal  Forces:  Max     0.000994196 RMS     0.000312720
 Search for a local minimum.
 Step number   5 out of a maximum of  48
 All quantities printed in internal units (Hartrees-Bohrs-Radians)
 Update second derivatives using information from points  1  2  3  4  5

 Trust test= 1.11D+00 RLast= 2.19D-02 DXMaxT set to 4.24D-01
     Eigenvalues ---    0.03203   0.03248   0.03250   0.03273   0.03342
     Eigenvalues ---    0.03373   0.15097   0.15427   0.16017   0.16567
     Eigenvalues ---    0.20393   0.34517   0.37677   0.47013   0.49567
     Eigenvalues ---    0.49750   0.57497   0.60241   0.60505   0.71144
     Eigenvalues ---    0.742131000.000001000.000001000.000001000.00000
     Eigenvalues --- 1000.000001000.000001000.000001000.000001000.00000
     Eigenvalues --- 1000.000001000.000001000.000001000.000001000.00000
     Eigenvalues --- 1000.000001000.000001000.00000
 RFO step:  Lambda=-1.03209450D-05.
 Quartic linear search produced a step of  0.13090.
 Iteration  1 RMS(Cart)=  0.00097006 RMS(Int)=  0.00000109
 Iteration  2 RMS(Cart)=  0.00000119 RMS(Int)=  0.00000028
 Iteration  3 RMS(Cart)=  0.00000000 RMS(Int)=  0.00000028
 Variable       Old X    -DE/DX   Delta X   Delta X   Delta X     New X
                                 (Linear)    (Quad)   (Total)
    R1        2.04751   0.00017  -0.00034   0.00058   0.00024   2.04774
    R2        2.62832   0.00016  -0.00111   0.00066  -0.00045   2.62787
    R3        2.58964  -0.00057   0.00017  -0.00065  -0.00048   2.58916
    R4        2.04611   0.00023  -0.00041   0.00067   0.00026   2.04637
    R5        2.69198   0.00024   0.00029   0.00053   0.00082   2.69280
    R6        2.04980   0.00022  -0.00041   0.00073   0.00031   2.05012
    R7        2.53694  -0.00099  -0.00061  -0.00130  -0.00191   2.53504
    R8        2.57175   0.00097   0.00184   0.00162   0.00346   2.57522
    R9        1.91294  -0.00001  -0.00038   0.00017  -0.00020   1.91274
    A1        2.30506  -0.00019  -0.00008  -0.00085  -0.00093   2.30413
    A2        2.12726  -0.00016  -0.00016  -0.00120  -0.00137   2.12589
    A3        1.85086   0.00035   0.00024   0.00206   0.00230   1.85316
    A4        2.21805   0.00035   0.00010   0.00197   0.00207   2.22011
    A5        1.82595  -0.00040  -0.00005  -0.00173  -0.00178   1.82416
    A6        2.23919   0.00005  -0.00004  -0.00024  -0.00028   2.23891
    A7        2.24480  -0.00012  -0.00089   0.00002  -0.00088   2.24393
    A8        1.95552   0.00040   0.00082   0.00090   0.00172   1.95724
    A9        2.08286  -0.00028   0.00007  -0.00092  -0.00085   2.08201
   A10        1.81481  -0.00004  -0.00095   0.00068  -0.00027   1.81454
   A11        1.97764  -0.00030  -0.00006  -0.00191  -0.00197   1.97567
   A12        2.22761   0.00060  -0.00003   0.00380   0.00377   2.23137
   A13        2.07794  -0.00029   0.00009  -0.00188  -0.00180   2.07614
    D1        0.00000   0.00000   0.00000   0.00000   0.00000   0.00000
    D2        3.14159   0.00000   0.00000   0.00000   0.00000   3.14159
    D3        3.14159   0.00000   0.00000   0.00000   0.00000   3.14159
    D4        0.00000   0.00000   0.00000   0.00000   0.00000   0.00000
    D5        3.14159   0.00000   0.00000   0.00000   0.00000   3.14159
    D6        0.00000   0.00000   0.00000   0.00000   0.00000   0.00000
    D7        0.00000   0.00000   0.00000   0.00000   0.00000   0.00000
    D8        3.14159   0.00000   0.00000   0.00000   0.00000   3.14159
    D9        3.14159   0.00000   0.00000   0.00000   0.00000   3.14159
   D10        0.00000   0.00000   0.00000   0.00000   0.00000   0.00000
   D11        0.00000   0.00000   0.00000   0.00000   0.00000   0.00000
   D12        3.14159   0.00000   0.00000   0.00000   0.00000   3.14159
   D13        0.00000   0.00000   0.00000   0.00000   0.00000   0.00000
   D14        3.14159   0.00000   0.00000   0.00000   0.00000   3.14159
   D15        0.00000   0.00000   0.00000   0.00000   0.00000   0.00000
   D16        3.14159   0.00000   0.00000   0.00000   0.00000   3.14159
         Item               Value     Threshold  Converged?
 Maximum Force            0.000994     0.000450     NO 
 RMS     Force            0.000313     0.000300     NO 
 Maximum Displacement     0.003174     0.001800     NO 
 RMS     Displacement     0.000970     0.001200     YES
 Predicted change in Energy=-6.449496D-06
 GradGradGradGradGradGradGradGradGradGradGradGradGradGradGradGradGradGrad

                          Input orientation:                          
 ---------------------------------------------------------------------
 Center     Atomic     Atomic              Coordinates (Angstroms)
 Number     Number      Type              X           Y           Z
 ---------------------------------------------------------------------
    1          1             0       -1.891417    0.000000   -1.182203
    2          6             0       -0.933404    0.000000   -0.675804
    3          1             0        0.690386    0.000000   -2.189341
    4          6             0        0.372323    0.000000   -1.154213
    5          1             0        2.264613    0.000000    0.092499
    6          6             0        1.182285    0.000000    0.018174
    7          7             0        0.447366    0.000000    1.140436
    8          1             0       -1.593803    0.000000    1.365625
    9          7             0       -0.839161    0.000000    0.691075
 ---------------------------------------------------------------------
                    Distance matrix (angstroms):
                    1          2          3          4          5
     1  H    0.000000
     2  C    1.083618   0.000000
     3  H    2.771288   2.219795   0.000000
     4  C    2.263913   1.390611   1.082892   0.000000
     5  H    4.347120   3.289012   2.772180   2.266065   0.000000
     6  C    3.299781   2.226600   2.261657   1.424967   1.084876
     7  N    3.296143   2.281502   3.338633   2.295875   2.097751
     8  H    2.565151   2.145590   4.225553   3.196128   4.063031
     9  N    2.148584   1.370124   3.261336   2.207438   3.160966
                    6          7          8          9
     6  C    0.000000
     7  N    1.341483   0.000000
     8  H    3.085821   2.053553   0.000000
     9  N    2.130503   1.362746   1.012177   0.000000
 Stoichiometry    C3H4N2
 Framework group  CS[SG(C3H4N2)]
 Deg. of freedom   15
 Full point group                 CS      NOp   2
 Largest Abelian subgroup         CS      NOp   2
 Largest concise Abelian subgroup C1      NOp   1
                         Standard orientation:                         
 ---------------------------------------------------------------------
 Center     Atomic     Atomic              Coordinates (Angstroms)
 Number     Number      Type              X           Y           Z
 ---------------------------------------------------------------------
    1          1             0        2.114896    0.708059    0.000000
    2          6             0        1.114897    0.290649    0.000000
    3          1             0        1.250571   -1.924995    0.000000
    4          6             0        0.653888   -1.021323    0.000000
    5          1             0       -1.511554   -1.689088    0.000000
    6          6             0       -0.765989   -0.900995    0.000000
    7          7             0       -1.164862    0.379816    0.000000
    8          1             0       -0.040784    2.098399    0.000000
    9          7             0        0.000000    1.087044    0.000000
 ---------------------------------------------------------------------
 Rotational constants (GHZ):      9.4978960      9.2609415      4.6889611
 Isotopes: H-1,C-12,H-1,C-12,H-1,C-12,N-14,H-1,N-14
 Standard basis: CEP-121G(d) (6D, 10F)
 There are    77 symmetry adapted basis functions of A'  symmetry.
 There are    25 symmetry adapted basis functions of A"  symmetry.
 Crude estimate of integral set expansion from redundant integrals=1.000.
 Integral buffers will be    262144 words long.
 Raffenetti 2 integral format.
 Two-electron integral symmetry is turned on.
   102 basis functions      130 primitive gaussians
    13 alpha electrons       13 beta electrons
       nuclear repulsion energy        84.0072399853 Hartrees.
 One-electron integrals computed using PRISM.
   1 Symmetry operations used in ECPInt.
 ECPInt:  NShTT=     528 NPrTT=    1052 LenC2=     529 LenP2D=     988.
 LDataN:  DoStor=F MaxTD1= 4 Len=   56
 LDataN:  DoStor=T MaxTD1= 4 Len=   56
 NBasis=   102 RedAO= T  NBF=    77    25
 NBsUse=   102 1.00D-04 NBFU=    77    25
 Initial guess read from the read-write file:
 Initial guess orbital symmetries:
       Occupied  (A') (A') (A') (A') (A') (A') (A') (A") (A') (A')
                 (A') (A") (A")
       Virtual   (A") (A') (A") (A') (A') (A') (A') (A') (A') (A')
                 (A") (A') (A') (A") (A') (A') (A") (A') (A') (A')
                 (A') (A') (A") (A') (A') (A") (A') (A') (A') (A')
                 (A') (A') (A') (A') (A') (A") (A") (A") (A') (A")
                 (A") (A') (A') (A') (A') (A') (A') (A') (A') (A")
                 (A") (A') (A") (A") (A') (A') (A') (A") (A') (A')
                 (A') (A') (A') (A') (A') (A') (A') (A') (A') (A")
                 (A") (A') (A') (A") (A') (A') (A') (A') (A") (A')
                 (A") (A') (A') (A') (A') (A') (A') (A') (A')
 Requested convergence on RMS density matrix=1.00D-08 within  64 cycles.
 Requested convergence on MAX density matrix=1.00D-06.
 SCF Done:  E(RB+HF-LYP) =  -39.1403470852     A.U. after    9 cycles
             Convg  =    0.1967D-08             -V/T =  2.3098
             S**2   =   0.0000
   2 Symmetry operations used in ECPInt.
 ECPInt:  NShTT=     528 NPrTT=    1052 LenC2=     529 LenP2D=     988.
 LDataN:  DoStor=F MaxTD1= 5 Len=  102
 LDataN:  DoStor=T MaxTD1= 5 Len=  102
 ***** Axes restored to original set *****
 -------------------------------------------------------------------
 Center     Atomic                   Forces (Hartrees/Bohr)
 Number     Number              X              Y              Z
 -------------------------------------------------------------------
    1          1          -0.000095277    0.000000000   -0.000124167
    2          6          -0.000172133    0.000000000    0.000725511
    3          1           0.000054312    0.000000000   -0.000072444
    4          6           0.000064192    0.000000000   -0.000098644
    5          1           0.000151390    0.000000000    0.000066196
    6          6          -0.000389983    0.000000000    0.000433246
    7          7           0.000358065    0.000000000   -0.000185597
    8          1           0.000088386    0.000000000    0.000132576
    9          7          -0.000058952    0.000000000   -0.000876678
 -------------------------------------------------------------------
 Cartesian Forces:  Max     0.000876678 RMS     0.000267341

 GradGradGradGradGradGradGradGradGradGradGradGradGradGradGradGradGradGrad
 Berny optimization.
 Internal  Forces:  Max     0.000530068 RMS     0.000142492
 Search for a local minimum.
 Step number   6 out of a maximum of  48
 All quantities printed in internal units (Hartrees-Bohrs-Radians)
 Update second derivatives using information from points  1  2  3  4  5
                                                        6
 Trust test= 1.14D+00 RLast= 7.64D-03 DXMaxT set to 4.24D-01
     Eigenvalues ---    0.03203   0.03248   0.03250   0.03273   0.03341
     Eigenvalues ---    0.03372   0.13881   0.15238   0.15941   0.16060
     Eigenvalues ---    0.23381   0.33808   0.35792   0.46624   0.49572
     Eigenvalues ---    0.49834   0.57718   0.59202   0.60207   0.67043
     Eigenvalues ---    0.738191000.000001000.000001000.000001000.00000
     Eigenvalues --- 1000.000001000.000001000.000001000.000001000.00000
     Eigenvalues --- 1000.000001000.000001000.000001000.000001000.00000
     Eigenvalues --- 1000.000001000.000001000.00000
 RFO step:  Lambda=-1.57660912D-06.
 Quartic linear search produced a step of  0.18162.
 Iteration  1 RMS(Cart)=  0.00044336 RMS(Int)=  0.00000029
 Iteration  2 RMS(Cart)=  0.00000028 RMS(Int)=  0.00000003
 Variable       Old X    -DE/DX   Delta X   Delta X   Delta X     New X
                                 (Linear)    (Quad)   (Total)
    R1        2.04774   0.00014   0.00004   0.00028   0.00032   2.04806
    R2        2.62787   0.00019  -0.00008   0.00035   0.00027   2.62815
    R3        2.58916  -0.00053  -0.00009  -0.00079  -0.00088   2.58828
    R4        2.04637   0.00009   0.00005   0.00013   0.00017   2.04654
    R5        2.69280   0.00012   0.00015   0.00023   0.00038   2.69318
    R6        2.05012   0.00016   0.00006   0.00031   0.00037   2.05049
    R7        2.53504  -0.00049  -0.00035  -0.00068  -0.00103   2.53401
    R8        2.57522   0.00012   0.00063   0.00014   0.00077   2.57599
    R9        1.91274   0.00002  -0.00004   0.00002  -0.00001   1.91272
    A1        2.30413  -0.00001  -0.00017  -0.00010  -0.00027   2.30386
    A2        2.12589   0.00012  -0.00025   0.00070   0.00045   2.12634
    A3        1.85316  -0.00011   0.00042  -0.00060  -0.00018   1.85298
    A4        2.22011   0.00006   0.00038   0.00004   0.00041   2.22052
    A5        1.82416  -0.00005  -0.00032   0.00021  -0.00011   1.82405
    A6        2.23891   0.00000  -0.00005  -0.00025  -0.00030   2.23861
    A7        2.24393   0.00005  -0.00016   0.00034   0.00018   2.24411
    A8        1.95724   0.00001   0.00031  -0.00009   0.00022   1.95746
    A9        2.08201  -0.00006  -0.00015  -0.00025  -0.00040   2.08162
   A10        1.81454  -0.00002  -0.00005  -0.00020  -0.00024   1.81430
   A11        1.97567   0.00018  -0.00036   0.00068   0.00032   1.97599
   A12        2.23137   0.00007   0.00068   0.00050   0.00119   2.23256
   A13        2.07614  -0.00024  -0.00033  -0.00118  -0.00151   2.07464
    D1        0.00000   0.00000   0.00000   0.00000   0.00000   0.00000
    D2        3.14159   0.00000   0.00000   0.00000   0.00000   3.14159
    D3        3.14159   0.00000   0.00000   0.00000   0.00000   3.14159
    D4        0.00000   0.00000   0.00000   0.00000   0.00000   0.00000
    D5        3.14159   0.00000   0.00000   0.00000   0.00000   3.14159
    D6        0.00000   0.00000   0.00000   0.00000   0.00000   0.00000
    D7        0.00000   0.00000   0.00000   0.00000   0.00000   0.00000
    D8        3.14159   0.00000   0.00000   0.00000   0.00000   3.14159
    D9        3.14159   0.00000   0.00000   0.00000   0.00000   3.14159
   D10        0.00000   0.00000   0.00000   0.00000   0.00000   0.00000
   D11        0.00000   0.00000   0.00000   0.00000   0.00000   0.00000
   D12        3.14159   0.00000   0.00000   0.00000   0.00000   3.14159
   D13        0.00000   0.00000   0.00000   0.00000   0.00000   0.00000
   D14        3.14159   0.00000   0.00000   0.00000   0.00000   3.14159
   D15        0.00000   0.00000   0.00000   0.00000   0.00000   0.00000
   D16        3.14159   0.00000   0.00000   0.00000   0.00000   3.14159
         Item               Value     Threshold  Converged?
[...]
 IR Inten    --     6.2364                 3.4671                59.6980
 Raman Activ --     0.0000                 0.0000                 0.0000
 Depolar     --     0.0000                 0.0000                 0.0000
 Atom AN      X      Y      Z        X      Y      Z        X      Y      Z
   1   1     0.76   0.31   0.00    -0.50  -0.21   0.00     0.01   0.00   0.00
   2   6    -0.07  -0.03   0.00     0.05   0.02   0.00     0.00   0.00   0.00
   3   1    -0.26   0.39   0.00    -0.44   0.67   0.00     0.00   0.00   0.00
   4   6     0.03  -0.03   0.00     0.04  -0.06   0.00     0.00   0.00   0.00
   5   1     0.21   0.22   0.00     0.16   0.16   0.00     0.00   0.00   0.00
   6   6    -0.02  -0.02   0.00    -0.02  -0.01   0.00     0.00   0.00   0.00
   7   7     0.00   0.00   0.00     0.00   0.00   0.00     0.00   0.00   0.00
   8   1    -0.01  -0.01   0.00     0.00   0.01   0.00    -0.05   1.00   0.00
   9   7     0.00   0.00   0.00     0.00   0.00   0.00     0.00  -0.08   0.00

 -------------------
 - Thermochemistry -
 -------------------
 Temperature   298.150 Kelvin.  Pressure   1.00000 Atm.
 Atom  1 has atomic number  1 and mass   1.00783
 Atom  2 has atomic number  6 and mass  12.00000
 Atom  3 has atomic number  1 and mass   1.00783
 Atom  4 has atomic number  6 and mass  12.00000
 Atom  5 has atomic number  1 and mass   1.00783
 Atom  6 has atomic number  6 and mass  12.00000
 Atom  7 has atomic number  7 and mass  14.00307
 Atom  8 has atomic number  1 and mass   1.00783
 Atom  9 has atomic number  7 and mass  14.00307
 Molecular mass:    68.03745 amu.
 Principal axes and moments of inertia in atomic units:
                           1         2         3
     EIGENVALUES --   189.98805 194.88105 384.86910
           X            0.93542   0.35353   0.00000
           Y           -0.35353   0.93542   0.00000
           Z            0.00000   0.00000   1.00000
 THIS MOLECULE IS AN ASYMMETRIC TOP.
 ROTATIONAL SYMMETRY NUMBER  1.
 ROTATIONAL TEMPERATURES (KELVIN)      0.45589     0.44444     0.22505
 ROTATIONAL CONSTANTS (GHZ)            9.49923     9.26073     4.68923
 Zero-point vibrational energy     184336.9 (Joules/Mol)
                                   44.05758 (Kcal/Mol)
 WARNING-- EXPLICIT CONSIDERATION OF   1 DEGREES OF FREEDOM AS
           VIBRATIONS MAY CAUSE SIGNIFICANT ERROR
 VIBRATIONAL TEMPERATURES:    675.99   897.37   971.24  1074.04  1194.59
          (KELVIN)           1265.02  1305.70  1324.56  1487.62  1497.14
                             1620.17  1667.97  1815.98  1967.38  2022.67
                             2105.13  2229.39  4637.13  4654.45  4680.41
                             5247.04
 
 Zero-point correction=                           0.070210 (Hartree/Particle)
 Thermal correction to Energy=                    0.074031
 Thermal correction to Enthalpy=                  0.074976
 Thermal correction to Gibbs Free Energy=         0.043883
 Sum of electronic and zero-point Energies=            -39.070138
 Sum of electronic and thermal Energies=               -39.066317
 Sum of electronic and thermal Enthalpies=             -39.065373
 Sum of electronic and thermal Free Energies=          -39.096465
 
                     E (Thermal)             CV                S
                      KCAL/MOL        CAL/MOL-KELVIN    CAL/MOL-KELVIN
 TOTAL                   46.455             13.680             65.441
 ELECTRONIC               0.000              0.000              0.000
 TRANSLATIONAL            0.889              2.981             38.570
 ROTATIONAL               0.889              2.981             24.170
 VIBRATIONAL             44.678              7.719              2.700
 VIBRATION  1             0.827              1.317              0.738
                       Q            LOG10(Q)             LN(Q)
 TOTAL BOT       0.653902D-20        -20.184487        -46.476499
 TOTAL V=0       0.128752D+13         12.109756         27.883743
 VIB (BOT)       0.693708D-32        -32.158823        -74.048427
 VIB (BOT)  1    0.359055D+00         -0.444840         -1.024281
 VIB (V=0)       0.136590D+01          0.135419          0.311815
 VIB (V=0)  1    0.111556D+01          0.047495          0.109361
 ELECTRONIC      0.100000D+01          0.000000          0.000000
 TRANSLATIONAL   0.220588D+08          7.343582         16.909224
 ROTATIONAL      0.427321D+05          4.630754         10.662705
 ***** Axes restored to original set *****
 -------------------------------------------------------------------
 Center     Atomic                   Forces (Hartrees/Bohr)
 Number     Number              X              Y              Z
 -------------------------------------------------------------------
    1          1           0.000000587    0.000000000   -0.000043878
    2          6          -0.000084481    0.000000000    0.000342032
    3          1           0.000002679    0.000000000   -0.000017909
    4          6           0.000127482    0.000000000   -0.000090426
    5          1           0.000035967    0.000000000   -0.000002058
    6          6          -0.000033065    0.000000000    0.000032043
    7          7          -0.000106322    0.000000000   -0.000048862
    8          1          -0.000016335    0.000000000    0.000020986
    9          7           0.000073489    0.000000000   -0.000191928
 -------------------------------------------------------------------
 Cartesian Forces:  Max     0.000342032 RMS     0.000088372

 GradGradGradGradGradGradGradGradGradGradGradGradGradGradGradGradGradGrad
 Berny optimization.
 Internal  Forces:  Max     0.000195761 RMS     0.000045393
 Search for a local minimum.
 Step number   1 out of a maximum of  48
 All quantities printed in internal units (Hartrees-Bohrs-Radians)
 Second derivative matrix not updated -- analytic derivatives used.
     Eigenvalues ---    0.00591   0.01120   0.01567   0.02734   0.05620
     Eigenvalues ---    0.05991   0.09210   0.10216   0.10913   0.11739
     Eigenvalues ---    0.21691   0.25350   0.33015   0.36060   0.36811
     Eigenvalues ---    0.36994   0.38557   0.40883   0.46781   0.47672
     Eigenvalues ---    0.542191000.000001000.000001000.000001000.00000
     Eigenvalues --- 1000.000001000.000001000.000001000.000001000.00000
     Eigenvalues --- 1000.000001000.000001000.000001000.000001000.00000
     Eigenvalues --- 1000.000001000.000001000.00000
 Angle between quadratic step and forces=  30.09 degrees.
 Linear search not attempted -- first point.
 Iteration  1 RMS(Cart)=  0.00011703 RMS(Int)=  0.00000002
 Iteration  2 RMS(Cart)=  0.00000003 RMS(Int)=  0.00000000
 Variable       Old X    -DE/DX   Delta X   Delta X   Delta X     New X
                                 (Linear)    (Quad)   (Total)
    R1        2.04806   0.00002   0.00000   0.00006   0.00006   2.04812
    R2        2.62815   0.00013   0.00000   0.00038   0.00038   2.62853
    R3        2.58828  -0.00020   0.00000  -0.00058  -0.00058   2.58770
    R4        2.04654   0.00002   0.00000   0.00004   0.00004   2.04658
    R5        2.69318  -0.00001   0.00000  -0.00002  -0.00002   2.69316
    R6        2.05049   0.00004   0.00000   0.00010   0.00010   2.05059
    R7        2.53401   0.00000   0.00000   0.00004   0.00004   2.53405
    R8        2.57599  -0.00008   0.00000  -0.00020  -0.00020   2.57579
    R9        1.91272   0.00003   0.00000   0.00006   0.00006   1.91278
    A1        2.30386  -0.00005   0.00000  -0.00052  -0.00052   2.30335
    A2        2.12634   0.00002   0.00000   0.00039   0.00039   2.12673
    A3        1.85298   0.00003   0.00000   0.00013   0.00013   1.85311
    A4        2.22052   0.00003   0.00000  -0.00002  -0.00002   2.22050
    A5        1.82405  -0.00006   0.00000  -0.00023  -0.00023   1.82383
    A6        2.23861   0.00004   0.00000   0.00025   0.00025   2.23886
    A7        2.24411   0.00001   0.00000  -0.00002  -0.00002   2.24409
    A8        1.95746  -0.00003   0.00000  -0.00003  -0.00003   1.95743
    A9        2.08162   0.00002   0.00000   0.00005   0.00005   2.08167
   A10        1.81430   0.00004   0.00000   0.00006   0.00006   1.81436
   A11        1.97599   0.00002   0.00000   0.00008   0.00008   1.97606
   A12        2.23256   0.00000   0.00000   0.00004   0.00004   2.23260
   A13        2.07464  -0.00002   0.00000  -0.00011  -0.00011   2.07452
    D1        0.00000   0.00000   0.00000   0.00000   0.00000   0.00000
    D2        3.14159   0.00000   0.00000   0.00000   0.00000   3.14159
    D3        3.14159   0.00000   0.00000   0.00000   0.00000   3.14159
    D4        0.00000   0.00000   0.00000   0.00000   0.00000   0.00000
    D5        3.14159   0.00000   0.00000   0.00000   0.00000   3.14159
    D6        0.00000   0.00000   0.00000   0.00000   0.00000   0.00000
    D7        0.00000   0.00000   0.00000   0.00000   0.00000   0.00000
    D8        3.14159   0.00000   0.00000   0.00000   0.00000   3.14159
    D9        3.14159   0.00000   0.00000   0.00000   0.00000   3.14159
   D10        0.00000   0.00000   0.00000   0.00000   0.00000   0.00000
   D11        0.00000   0.00000   0.00000   0.00000   0.00000   0.00000
   D12        3.14159   0.00000   0.00000   0.00000   0.00000   3.14159
   D13        0.00000   0.00000   0.00000   0.00000   0.00000   0.00000
   D14        3.14159   0.00000   0.00000   0.00000   0.00000   3.14159
   D15        0.00000   0.00000   0.00000   0.00000   0.00000   0.00000
   D16        3.14159   0.00000   0.00000   0.00000   0.00000   3.14159
         Item               Value     Threshold  Converged?
 Maximum Force            0.000196     0.000450     YES
 RMS     Force            0.000045     0.000300     YES
 Maximum Displacement     0.000481     0.001800     YES
 RMS     Displacement     0.000117     0.001200     YES
 Predicted change in Energy=-1.277889D-07
 Optimization completed.
    -- Stationary point found.
                         ----------------------------
                         !   Optimized Parameters   !
                         ! (Angstroms and Degrees)  !
 ------------------------                            -------------------------
 ! Name  Definition              Value          Derivative Info.             !
 -----------------------------------------------------------------------------
 ! R1    R(1,2)                  1.0838         -DE/DX =    0.               !
 ! R2    R(2,4)                  1.3908         -DE/DX =    0.0001           !
 ! R3    R(2,9)                  1.3697         -DE/DX =   -0.0002           !
 ! R4    R(3,4)                  1.083          -DE/DX =    0.               !
 ! R5    R(4,6)                  1.4252         -DE/DX =    0.               !
 ! R6    R(5,6)                  1.0851         -DE/DX =    0.               !
 ! R7    R(6,7)                  1.3409         -DE/DX =    0.               !
 ! R8    R(7,9)                  1.3632         -DE/DX =   -0.0001           !
 ! R9    R(8,9)                  1.0122         -DE/DX =    0.               !
 ! A1    A(1,2,4)              132.0017         -DE/DX =   -0.0001           !
 ! A2    A(1,2,9)              121.8304         -DE/DX =    0.               !
 ! A3    A(4,2,9)              106.1679         -DE/DX =    0.               !
 ! A4    A(2,4,3)              127.2267         -DE/DX =    0.               !
 ! A5    A(2,4,6)              104.5105         -DE/DX =   -0.0001           !
 ! A6    A(3,4,6)              128.2628         -DE/DX =    0.               !
 ! A7    A(4,6,5)              128.578          -DE/DX =    0.               !
 ! A8    A(4,6,7)              112.1542         -DE/DX =    0.               !
 ! A9    A(5,6,7)              119.2678         -DE/DX =    0.               !
 ! A10   A(6,7,9)              103.9516         -DE/DX =    0.               !
 ! A11   A(2,9,7)              113.2158         -DE/DX =    0.               !
 ! A12   A(2,9,8)              127.9164         -DE/DX =    0.               !
 ! A13   A(7,9,8)              118.8679         -DE/DX =    0.               !
 ! D1    D(1,2,4,3)              0.             -DE/DX =    0.               !
 ! D2    D(1,2,4,6)            180.             -DE/DX =    0.               !
 ! D3    D(9,2,4,3)            180.             -DE/DX =    0.               !
 ! D4    D(9,2,4,6)              0.             -DE/DX =    0.               !
 ! D5    D(1,2,9,7)            180.             -DE/DX =    0.               !
 ! D6    D(1,2,9,8)              0.             -DE/DX =    0.               !
 ! D7    D(4,2,9,7)              0.             -DE/DX =    0.               !
 ! D8    D(4,2,9,8)            180.             -DE/DX =    0.               !
 ! D9    D(2,4,6,5)            180.             -DE/DX =    0.               !
 ! D10   D(2,4,6,7)              0.             -DE/DX =    0.               !
 ! D11   D(3,4,6,5)              0.             -DE/DX =    0.               !
 ! D12   D(3,4,6,7)            180.             -DE/DX =    0.               !
 ! D13   D(4,6,7,9)              0.             -DE/DX =    0.               !
 ! D14   D(5,6,7,9)            180.             -DE/DX =    0.               !
 ! D15   D(6,7,9,2)              0.             -DE/DX =    0.               !
 ! D16   D(6,7,9,8)            180.             -DE/DX =    0.               !
 -----------------------------------------------------------------------------
 GradGradGradGradGradGradGradGradGradGradGradGradGradGradGradGradGradGrad

 1\1\GINC-INDIUM\Freq\RB3LYP\CEP-121G(d)\C3H4N2\RDJ3\18-Oct-2000\0\\#N 
 GEOM=ALLCHECK GUESS=TCHECK RB3LYP/CEP-121G(D) FREQ\\1H pyrazole C3H4N2
  casno=288131\\0,1\H,-1.8915231734,0.,-1.1823435402\C,-0.9334964924,0.
 ,-0.6756085067\H,0.6908859293,0.,-2.1891486322\C,0.3723667969,0.,-1.15
 40646557\H,2.2648121346,0.,0.0932320864\C,1.182312016,0.,0.0185779265\
 N,0.447809662,0.,1.140463591\H,-1.5927536008,0.,1.3663677751\N,-0.8390
 397764,0.,0.6907910599\\Version=IBM-RS6000-G98RevA.6\State=1-A'\HF=-39
 .1403481\RMSD=2.990e-09\RMSF=8.837e-05\Dipole=-0.8104027,0.,-0.4216514
 \DipoleDeriv=-0.0315028,0.0002324,-0.062045,-0.0001161,0.1981092,-0.00
 01632,-0.0489378,0.0001002,0.063879,0.1569206,-0.0005689,-0.1381079,0.
 0000541,-0.1237235,0.0002619,-0.3067396,0.000675,0.2579678,0.0898621,0
 .000465,0.0374301,-0.0002547,0.1854278,-0.0003795,0.0444293,-0.0009096
 ,-0.0592367,-0.2458462,0.0001587,0.000521,0.0000913,-0.2271231,0.00053
 79,-0.0544308,0.0013647,-0.0113664,-0.0762622,-0.0003788,-0.00483,-0.0
 000575,0.1571403,-0.0002348,-0.0311634,0.0000747,0.0784237,0.2457822,0
 .0000836,0.1094507,-0.0000273,-0.1021619,0.0005514,0.201047,-0.0011162
 ,0.22499,0.0292002,-0.000237,-0.2027907,0.0000386,-0.2179798,-0.000569
 7,-0.0984294,0.0001283,-0.5961807,0.1817833,-0.0000931,-0.0318421,0.00
 00923,0.3203631,-0.0000596,-0.0180859,0.0000638,0.1995888,-0.3499374,0
 .0003381,0.2922137,0.0001792,-0.1900519,0.0000558,0.3123106,-0.000381,
 -0.1580653\Polar=53.4562749,0.0117453,24.8542511,0.0312531,0.0145746,4
 9.468081\PG=CS [SG(C3H4N2)]\NImag=0\\0.29760519,0.00000264,0.01975748,
 0.13237462,0.00000155,0.12060232,-0.29338215,-0.00000360,-0.11383275,0
 .82694321,-0.00000504,-0.02388127,-0.00000262,0.00000035,0.11027410,-0
 .12315957,0.00000068,-0.11817218,0.09862712,-0.00000135,0.61206592,0.0
 0021155,0.00000250,-0.00078789,0.00213956,-0.00000016,0.02517558,0.074
 69336,0.00000542,-0.00254052,0.00000229,-0.00000903,-0.00225926,0.0000
 1210,0.00000700,0.02130036,0.00045172,0.00000198,-0.00020886,-0.002842
 90,-0.00000611,0.00042932,-0.09161300,-0.00001392,0.34093601,-0.006056
 42,0.00000185,0.00861982,-0.32561305,-0.00000117,0.06753401,-0.0818597
 8,0.00000258,0.08549438,0.58822396,-0.00000904,0.00043863,-0.00000438,
 0.00000119,-0.05810932,-0.00000485,-0.00000051,-0.02487316,-0.00000670
 ,-0.00000299,0.10923934,-0.01475811,0.00000710,0.01273594,0.09330547,-
 0.00000613,-0.13720002,0.08300329,0.00002302,-0.32912844,-0.11935506,-
 0.00001393,0.80027385,-0.00025097,-0.00000137,0.00025902,-0.00072553,0
 .00000748,-0.00129071,-0.00018670,-0.00001039,-0.00045886,-0.00420986,
 0.00001409,0.00375779,0.36428755,0.00000292,0.00079141,0.00000115,-0.0
 0000014,0.00460046,0.00000449,0.00000235,-0.00172945,-0.00000459,-0.00
 000147,0.00055967,0.00000863,-0.00000614,0.02392176,-0.00110345,-0.000
 00099,0.00112630,-0.00288168,0.00000077,-0.00615354,0.00083438,0.00000
 149,0.00008752,-0.02089151,0.00000039,0.00718844,0.02030458,0.00000124
 ,0.05513468,-0.00452609,-0.00000497,0.00467223,-0.05397102,0.00000110,
 -0.00115289,0.01330091,0.00000689,0.01172271,-0.17224999,-0.00000220,-
 0.09633742,-0.34481843,0.00000388,-0.03212031,0.85394637,-0.00000920,0
 .00514708,-0.00000394,-0.00000314,0.00931602,-0.00000560,-0.00000004,-
 0.00316976,-0.00000211,0.00000188,-0.06106044,-0.00001281,0.00001445,-
 0.02954176,-0.00000119,-0.00000584,0.13232190,0.00107168,-0.00000463,-
 0.00230997,-0.06759799,0.00000763,0.03588365,-0.01458196,-0.00002451,-
 0.00840573,-0.06301200,0.00002081,-0.21723484,-0.02395985,-0.00001261,
 -0.06013181,-0.00851513,0.00002253,0.57493717,0.00051442,-0.00000475,0
 .00083366,-0.05362402,0.00000280,-0.04808015,-0.00218657,-0.00000333,-
 0.00112818,0.02761650,0.00000395,0.03786085,-0.01355371,-0.00000051,0.
 02804331,-0.17207786,-0.00000173,0.13209533,0.47100574,0.00000651,0.00
 618297,0.00000320,0.00000669,0.01523511,0.00000058,-0.00000410,0.00640
 835,0.00001670,0.00000185,0.01913740,0.00000182,-0.00001117,-0.0074044
 5,-0.00000103,0.00000293,-0.06834656,-0.00001748,-0.00000327,0.0984400
 4,0.00219368,-0.00000746,-0.00532141,-0.01680362,0.00000662,-0.0636890
 0,-0.00598168,0.00000740,-0.00404114,-0.03226201,0.00000294,-0.0742775
 9,-0.00085199,0.00000507,0.00640811,0.09886390,-0.00000451,-0.29019074
 ,-0.04590513,-0.00000081,0.53544179,-0.00027918,0.00000029,0.00046739,
 0.01041234,0.00000024,-0.00391620,0.00074930,-0.00000143,-0.00010517,0
 .00190287,0.00000037,-0.00327236,-0.00034627,-0.00000072,0.00158599,-0
 .00755975,0.00000204,-0.00576683,-0.01916089,0.00000104,0.02431618,0.2
 9015777,0.00000129,-0.00137030,0.00000035,-0.00000190,-0.00857269,0.00
 000506,0.00000062,0.00237383,-0.00000474,0.00000305,0.00278374,0.00000
 790,-0.00000125,0.00235274,0.00000058,-0.00000010,0.00372697,-0.000007
 16,0.00000071,-0.01248839,0.00000242,-0.00000089,0.01077696,-0.0006725
 5,-0.00000081,0.00002333,0.02416111,0.00000049,-0.00473959,0.00128280,
 0.00000071,0.00022447,-0.00249110,0.00000079,-0.00688564,-0.00053969,0
 .00000030,0.00103954,-0.00590957,-0.00000058,0.00047683,-0.00975980,-0
 .00000207,0.01642164,-0.20303768,0.00000091,0.24661196,0.00616365,0.00
 000742,-0.03260610,-0.11217933,-0.00000561,-0.01373720,-0.00686163,0.0
 0000227,-0.00152070,-0.02775423,-0.00000486,0.01579555,-0.00019607,-0.
 00000018,0.00622868,-0.11204414,0.00000157,0.05026676,-0.23853362,-0.0
 0000048,-0.02356934,-0.27587618,-0.00000153,0.19696647,0.76728155,0.00
 000450,-0.00452548,0.00000238,0.00000957,-0.04660316,-0.00001110,-0.00
 000768,0.00448963,0.00001951,-0.00000558,0.01188415,-0.00001560,-0.000
 00571,0.00644961,-0.00000125,-0.00000169,0.01160655,0.00001542,0.00000
 612,-0.05716448,-0.00001167,-0.00000093,0.00041713,0.00000027,0.000001
 39,0.07344605,0.00360197,0.00000259,-0.00847547,-0.01213477,0.00000070
 ,-0.31842455,0.00266847,-0.00000858,0.00010685,0.07636348,0.00000494,-
 0.05547170,0.00277970,-0.00000369,-0.00469923,0.02877648,0.00000823,-0
 .03302455,-0.09395989,-0.00000090,-0.12075167,0.18972868,-0.00000532,-
 0.25317254,-0.19782411,0.00000206,0.79391287\\-0.00000059,0.,0.0000438
 8,0.00008448,0.,-0.00034203,-0.00000268,0.,0.00001791,-0.00012748,0.,0
 .00009043,-0.00003597,0.,0.00000206,0.00003307,0.,-0.00003204,0.000106
 32,0.,0.00004886,0.00001634,0.,-0.00002099,-0.00007349,0.,0.00019193\\
 \@


 YOU CANNOT THROW TO THE GROUND THE LETTERS OF
 THE GREEK ALPHABET AND PICK UP THE ILIAD.
        - RUFUS CHOATE, 1799-1859
 Job cpu time:  0 days  0 hours 11 minutes 48.3 seconds.
 File lengths (MBytes):  RWF=   21 Int=    0 D2E=    0 Chk=    8 Scr=    1
 Normal termination of Gaussian 98.
