 Entering Gaussian System, Link 0=g98
 Initial command:
 /usr/local/apps/g98a6/g98/l1.exe /wrk/rdj3/Gau-17586.inp -scrdir=/wrk/rdj3/
 Entering Link 1 = /usr/local/apps/g98a6/g98/l1.exe PID=     15746.
  
 Copyright (c) 1988,1990,1992,1993,1995,1998 Gaussian, Inc.
                  All Rights Reserved.
  
 This is part of the Gaussian(R) 98 program.  It is based on
 the Gaussian 94(TM) system (copyright 1995 Gaussian, Inc.),
 the Gaussian 92(TM) system (copyright 1992 Gaussian, Inc.),
 the Gaussian 90(TM) system (copyright 1990 Gaussian, Inc.),
 the Gaussian 88(TM) system (copyright 1988 Gaussian, Inc.),
 the Gaussian 86(TM) system (copyright 1986 Carnegie Mellon
 University), and the Gaussian 82(TM) system (copyright 1983
 Carnegie Mellon University). Gaussian is a federally registered
 trademark of Gaussian, Inc.
  
 This software contains proprietary and confidential information,
 including trade secrets, belonging to Gaussian, Inc.
  
 This software is provided under written license and may be
 used, copied, transmitted, or stored only in accord with that
 written license.
  
 The following legend is applicable only to US Government
 contracts under DFARS:
  
                    RESTRICTED RIGHTS LEGEND
  
 Use, duplication or disclosure by the US Government is subject
 to restrictions as set forth in subparagraph (c)(1)(ii) of the
 Rights in Technical Data and Computer Software clause at DFARS
 252.227-7013.
  
 Gaussian, Inc.
 Carnegie Office Park, Building 6, Pittsburgh, PA 15106 USA
  
 The following legend is applicable only to US Government
 contracts under FAR:
  
                    RESTRICTED RIGHTS LEGEND
  
 Use, reproduction and disclosure by the US Government is subject
 to restrictions as set forth in subparagraph (c) of the
 Commercial Computer Software - Restricted Rights clause at FAR
 52.227-19.
  
 Gaussian, Inc.
 Carnegie Office Park, Building 6, Pittsburgh, PA 15106 USA
  
  
 ---------------------------------------------------------------
 Warning -- This program may not be used in any manner that
 competes with the business of Gaussian, Inc. or will provide
 assistance to any competitor of Gaussian, Inc.  The licensee
 of this program is prohibited from giving any competitor of
 Gaussian, Inc. access to this program.  By using this program,
 the user acknowledges that Gaussian, Inc. is engaged in the
 business of creating and licensing software in the field of
 computational chemistry and represents and warrants to the
 licensee that it is not a competitor of Gaussian, Inc. and that
 it will not use this program in any manner prohibited above.
 ---------------------------------------------------------------
  

 Cite this work as:
 Gaussian 98, Revision A.6,
 M. J. Frisch, G. W. Trucks, H. B. Schlegel, G. E. Scuseria, 
 M. A. Robb, J. R. Cheeseman, V. G. Zakrzewski, J. A. Montgomery, Jr., 
 R. E. Stratmann, J. C. Burant, S. Dapprich, J. M. Millam, 
 A. D. Daniels, K. N. Kudin, M. C. Strain, O. Farkas, J. Tomasi, 
 V. Barone, M. Cossi, R. Cammi, B. Mennucci, C. Pomelli, C. Adamo, 
 S. Clifford, J. Ochterski, G. A. Petersson, P. Y. Ayala, Q. Cui, 
 K. Morokuma, D. K. Malick, A. D. Rabuck, K. Raghavachari, 
 J. B. Foresman, J. Cioslowski, J. V. Ortiz, B. B. Stefanov, G. Liu, 
 A. Liashenko, P. Piskorz, I. Komaromi, R. Gomperts, R. L. Martin, 
 D. J. Fox, T. Keith, M. A. Al-Laham, C. Y. Peng, A. Nanayakkara, 
 C. Gonzalez, M. Challacombe, P. M. W. Gill, B. Johnson, W. Chen, 
 M. W. Wong, J. L. Andres, C. Gonzalez, M. Head-Gordon, 
 E. S. Replogle, and J. A. Pople, 
 Gaussian, Inc., Pittsburgh PA, 1998.

 **********************************************
 Gaussian 98:  IBM-RS6000-G98RevA.6 19-Oct-1998
                  10-Sep-2000 
 **********************************************
 %mem=24000000
 -----------------------
 #B3LYP/CEP-31G opt freq
 -----------------------
 1/14=-1,18=20,26=3,38=1/1,3;
 2/9=110,17=6,18=5/2;
 3/5=9,6=1,11=2,16=1,25=1,30=1/1,2,3;
 4/11=1/1;
 5/5=2,38=4,42=-5/2;
 6/7=2,8=2,9=2,10=2,28=1/1;
 7//1,2,3,16;
 1/14=-1,18=20/3(1);
 99//99;
 2/9=110/2;
 3/5=9,6=1,11=2,16=1,25=1,30=1/1,2,3;
 4/5=5,11=1,16=2/1;
 5/5=2,38=4,42=-5/2;
 7//1,2,3,16;
 1/14=-1,18=20/3(-5);
 2/9=110/2;
 6/7=2,8=2,9=2,10=2,19=2,28=1/1;
 99/9=1/99;
 -------------------------------
 1H pyrazole C3H4N2 casno=288131
 -------------------------------
 Symbolic Z-matrix:
 Charge =  0 Multiplicity = 1
 H                    -1.9125    0.       -0.75938 
 C                    -1.08438   0.       -0.21875 
 H                     0.43438   0.       -1.63125 
 C                     0.15      0.       -0.68438 
 H                     1.9125    0.        0.37188 
 C                     0.92188   0.        0.375 
 N                     0.18125   0.        1.41875 
 H                    -1.74063   0.        1.63125 
 N                    -1.00313   0.        1.05313 

 GradGradGradGradGradGradGradGradGradGradGradGradGradGradGradGradGradGrad
 Berny optimization.
 Initialization pass.
                         ----------------------------
                         !    Initial Parameters    !
                         ! (Angstroms and Degrees)  !
 ------------------------                            -------------------------
 ! Name  Definition              Value          Derivative Info.             !
 -----------------------------------------------------------------------------
 ! R1    R(1,2)                  0.989          estimate D2E/DX2             !
 ! R2    R(2,4)                  1.3193         estimate D2E/DX2             !
 ! R3    R(2,9)                  1.2745         estimate D2E/DX2             !
 ! R4    R(3,4)                  0.9887         estimate D2E/DX2             !
 ! R5    R(4,6)                  1.3108         estimate D2E/DX2             !
 ! R6    R(5,6)                  0.9906         estimate D2E/DX2             !
 ! R7    R(6,7)                  1.2798         estimate D2E/DX2             !
 ! R8    R(7,9)                  1.2395         estimate D2E/DX2             !
 ! R9    R(8,9)                  0.9371         estimate D2E/DX2             !
 ! A1    A(1,2,4)              126.195          estimate D2E/DX2             !
 ! A2    A(1,2,9)              126.7929         estimate D2E/DX2             !
 ! A3    A(4,2,9)              107.012          estimate D2E/DX2             !
 ! A4    A(2,4,3)              127.3838         estimate D2E/DX2             !
 ! A5    A(2,4,6)              105.4104         estimate D2E/DX2             !
 ! A6    A(3,4,6)              127.2058         estimate D2E/DX2             !
 ! A7    A(4,6,5)              125.8968         estimate D2E/DX2             !
 ! A8    A(4,6,7)              108.5636         estimate D2E/DX2             !
 ! A9    A(5,6,7)              125.5395         estimate D2E/DX2             !
 ! A10   A(6,7,9)              108.203          estimate D2E/DX2             !
 ! A11   A(2,9,7)              110.811          estimate D2E/DX2             !
 ! A12   A(2,9,8)              124.4376         estimate D2E/DX2             !
 ! A13   A(7,9,8)              124.7513         estimate D2E/DX2             !
 ! D1    D(1,2,4,3)              0.             estimate D2E/DX2             !
 ! D2    D(1,2,4,6)            180.             estimate D2E/DX2             !
 ! D3    D(9,2,4,3)            180.             estimate D2E/DX2             !
 ! D4    D(9,2,4,6)              0.             estimate D2E/DX2             !
 ! D5    D(1,2,9,7)            180.             estimate D2E/DX2             !
 ! D6    D(1,2,9,8)              0.             estimate D2E/DX2             !
 ! D7    D(4,2,9,7)              0.             estimate D2E/DX2             !
 ! D8    D(4,2,9,8)            180.             estimate D2E/DX2             !
 ! D9    D(2,4,6,5)            180.             estimate D2E/DX2             !
 ! D10   D(2,4,6,7)              0.             estimate D2E/DX2             !
 ! D11   D(3,4,6,5)              0.             estimate D2E/DX2             !
 ! D12   D(3,4,6,7)            180.             estimate D2E/DX2             !
 ! D13   D(4,6,7,9)              0.             estimate D2E/DX2             !
 ! D14   D(5,6,7,9)            180.             estimate D2E/DX2             !
 ! D15   D(6,7,9,2)              0.             estimate D2E/DX2             !
 ! D16   D(6,7,9,8)            180.             estimate D2E/DX2             !
 -----------------------------------------------------------------------------
 Trust Radius=3.00D-01 FncErr=1.00D-07 GrdErr=1.00D-06
 Number of steps in this run=  48 maximum allowed number of steps= 100.
 GradGradGradGradGradGradGradGradGradGradGradGradGradGradGradGradGradGrad

                          Input orientation:                          
 ---------------------------------------------------------------------
 Center     Atomic     Atomic              Coordinates (Angstroms)
 Number     Number      Type              X           Y           Z
 ---------------------------------------------------------------------
    1          1             0       -1.912500    0.000000   -0.759375
    2          6             0       -1.084375    0.000000   -0.218750
    3          1             0        0.434375    0.000000   -1.631250
    4          6             0        0.150000    0.000000   -0.684375
    5          1             0        1.912500    0.000000    0.371875
    6          6             0        0.921875    0.000000    0.375000
    7          7             0        0.181250    0.000000    1.418750
    8          1             0       -1.740625    0.000000    1.631250
    9          7             0       -1.003125    0.000000    1.053125
 ---------------------------------------------------------------------
                    Distance matrix (angstroms):
                    1          2          3          4          5
     1  H    0.000000
     2  C    0.988972   0.000000
     3  H    2.503595   2.074068   0.000000
     4  C    2.063863   1.319276   0.988656   0.000000
     5  H    3.988778   3.054521   2.489450   2.054768   0.000000
     6  C    3.052947   2.092266   2.064630   1.310750   0.990630
     7  N    3.021261   2.069592   3.060486   2.103357   2.023159
     8  H    2.396796   1.962948   3.921037   2.989412   3.864110
     9  N    2.027836   1.274468   3.045041   2.085331   2.994156
                    6          7          8          9
     6  C    0.000000
     7  N    1.279820   0.000000
     8  H    2.943989   1.933587   0.000000
     9  N    2.040950   1.239526   0.937088   0.000000
 Stoichiometry    C3H4N2
 Framework group  CS[SG(C3H4N2)]
 Deg. of freedom   15
 Full point group                 CS      NOp   2
 Largest Abelian subgroup         CS      NOp   2
 Largest concise Abelian subgroup C1      NOp   1
                         Standard orientation:                         
 ---------------------------------------------------------------------
 Center     Atomic     Atomic              Coordinates (Angstroms)
 Number     Number      Type              X           Y           Z
 ---------------------------------------------------------------------
    1          1             0        1.974407    0.585689    0.000000
    2          6             0        1.028833    0.295936    0.000000
    3          1             0        1.140941   -1.775099    0.000000
    4          6             0        0.595873   -0.950271    0.000000
    5          1             0       -1.344123   -1.627388    0.000000
    6          6             0       -0.712074   -0.864589    0.000000
    7          7             0       -1.039336    0.372682    0.000000
    8          1             0        0.028336    1.984773    0.000000
    9          7             0        0.000000    1.048113    0.000000
 ---------------------------------------------------------------------
 Rotational constants (GHZ):     11.1878032     10.4520048      5.4036973
 Isotopes: H-1,C-12,H-1,C-12,H-1,C-12,N-14,H-1,N-14
 Standard basis: CEP-31G (6D, 10F)
 There are    38 symmetry adapted basis functions of A'  symmetry.
 There are    10 symmetry adapted basis functions of A"  symmetry.
 Crude estimate of integral set expansion from redundant integrals=1.000.
 Integral buffers will be    262144 words long.
 Raffenetti 2 integral format.
 Two-electron integral symmetry is turned on.
    48 basis functions       96 primitive gaussians
    13 alpha electrons       13 beta electrons
       nuclear repulsion energy        90.3352096667 Hartrees.
 One-electron integrals computed using PRISM.
   1 Symmetry operations used in ECPInt.
 ECPInt:  NShTT=     171 NPrTT=     693 LenC2=     172 LenP2D=     644.
 LDataN:  DoStor=F MaxTD1= 2 Len=   12
 LDataN:  DoStor=T MaxTD1= 2 Len=   12
 NBasis=    48 RedAO= T  NBF=    38    10
 NBsUse=    48 1.00D-04 NBFU=    38    10
 Projected Huckel Guess.
 Initial guess orbital symmetries:
       Occupied  (A') (A') (A') (A') (A') (A') (A") (A') (A') (A')
                 (A') (A") (A")
       Virtual   (A") (A") (A') (A') (A') (A') (A') (A') (A') (A')
                 (A') (A') (A') (A') (A') (A') (A') (A') (A') (A')
                 (A') (A') (A') (A') (A') (A') (A') (A') (A') (A')
                 (A") (A") (A") (A") (A")
 Requested convergence on RMS density matrix=1.00D-08 within  64 cycles.
 Requested convergence on MAX density matrix=1.00D-06.
 Keep R1 and R2 integrals in memory in canonical form, NReq=     1796396.
 Integral accuracy reduced to 1.0D-05 until final iterations.
 Initial convergence to 1.0D-05 achieved.  Increase integral accuracy.
 SCF Done:  E(RB+HF-LYP) =  -38.9524659434     A.U. after   16 cycles
             Convg  =    0.8820D-08             -V/T =  2.2344
             S**2   =   0.0000

 **********************************************************************

            Population analysis using the SCF density.

 **********************************************************************

 Orbital Symmetries:
       Occupied  (A') (A') (A') (A') (A') (A') (A") (A') (A') (A')
                 (A") (A') (A")
       Virtual   (A") (A") (A') (A') (A') (A') (A') (A') (A') (A')
                 (A") (A') (A") (A') (A") (A') (A') (A') (A") (A')
                 (A") (A') (A') (A') (A') (A') (A') (A') (A') (A')
                 (A') (A') (A') (A') (A')
  The electronic state is 1-A'.
 Alpha  occ. eigenvalues --   -1.15064  -0.86813  -0.82508  -0.66107  -0.63321
 Alpha  occ. eigenvalues --   -0.57550  -0.48958  -0.48886  -0.44659  -0.41134
 Alpha  occ. eigenvalues --   -0.28076  -0.26223  -0.25398
 Alpha virt. eigenvalues --    0.04098   0.09144   0.09407   0.15200   0.15876
 Alpha virt. eigenvalues --    0.18267   0.20502   0.23277   0.25850   0.28155
 Alpha virt. eigenvalues --    0.29563   0.34107   0.35254   0.38565   0.41428
 Alpha virt. eigenvalues --    0.41661   0.44396   0.52531   0.53173   0.57908
 Alpha virt. eigenvalues --    0.61663   0.69509   0.75296   0.75769   0.82108
 Alpha virt. eigenvalues --    0.84192   1.05549   1.24301   1.34409   1.40483
 Alpha virt. eigenvalues --    1.98353   3.15056   3.50900   4.66038   5.40077
          Condensed to atoms (all electrons):
              1          2          3          4          5          6
  1  H    0.331220   0.301758  -0.001132   0.010171  -0.000065   0.000657
  2  C    0.301758   4.325841  -0.048491   0.389596  -0.012751   0.029737
  3  H   -0.001132  -0.048491   0.359354   0.266342   0.001033  -0.021068
  4  C    0.010171   0.389596   0.266342   3.136398  -0.048030   0.269038
  5  H   -0.000065  -0.012751   0.001033  -0.048030   0.359596   0.336877
  6  C    0.000657   0.029737  -0.021068   0.269038   0.336877   3.895855
  7  N    0.001150  -0.075956   0.006771  -0.034740  -0.025342   0.533921
  8  H   -0.001068  -0.129605   0.000015   0.006428   0.000204   0.025634
  9  N   -0.015507   0.157666   0.008679  -0.152138   0.015627  -0.063863
              7          8          9
  1  H    0.001150  -0.001068  -0.015507
  2  C   -0.075956  -0.129605   0.157666
  3  H    0.006771   0.000015   0.008679
  4  C   -0.034740   0.006428  -0.152138
  5  H   -0.025342   0.000204   0.015627
  6  C    0.533921   0.025634  -0.063863
  7  N    4.240550  -0.072338   0.247939
  8  H   -0.072338   0.517419   0.311640
  9  N    0.247939   0.311640   4.396191
 Total atomic charges:
              1
  1  H    0.372814
  2  C   -0.937794
  3  H    0.428496
  4  C    0.156935
  5  H    0.372851
  6  C   -1.006788
  7  N    0.178046
  8  H    0.341672
  9  N    0.093767
 Sum of Mulliken charges=   0.00000
 Atomic charges with hydrogens summed into heavy atoms:
              1
  1  H    0.000000
  2  C   -0.564980
  3  H    0.000000
  4  C    0.585432
  5  H    0.000000
  6  C   -0.633937
  7  N    0.178046
  8  H    0.000000
  9  N    0.435439
 Sum of Mulliken charges=   0.00000
 Electronic spatial extent (au):  <R**2>=   216.3926
 Charge=     0.0000 electrons
 Dipole moment (Debye):
    X=     2.4373    Y=     0.8959    Z=     0.0000  Tot=     2.5968
 Quadrupole moment (Debye-Ang):
   XX=   -30.5791   YY=   -21.7716   ZZ=   -30.6674
   XY=     2.7610   XZ=     0.0000   YZ=     0.0000
 Octapole moment (Debye-Ang**2):
  XXX=    10.5464  YYY=    10.2290  ZZZ=     0.0000  XYY=     0.6659
  XXY=    -3.0227  XXZ=     0.0000  XZZ=    -0.8025  YZZ=     2.1510
  YYZ=     0.0000  XYZ=     0.0000
 Hexadecapole moment (Debye-Ang**3):
 XXXX=  -153.5455 YYYY=  -118.8150 ZZZZ=   -32.5507 XXXY=     8.4872
 XXXZ=     0.0000 YYYX=     0.0361 YYYZ=     0.0000 ZZZX=     0.0000
 ZZZY=     0.0000 XXYY=   -46.5170 XXZZ=   -33.9293 YYZZ=   -33.2438
 XXYZ=     0.0000 YYXZ=     0.0000 ZZXY=    -0.2545
 N-N= 9.033520966671D+01 E-N=-2.684819081684D+02  KE= 3.155558567494D+01
 Symmetry A'   KE= 2.333349458719D+01
 Symmetry A"   KE= 8.222091087745D+00
   2 Symmetry operations used in ECPInt.
 ECPInt:  NShTT=     171 NPrTT=     693 LenC2=     172 LenP2D=     644.
 LDataN:  DoStor=F MaxTD1= 3 Len=   28
 LDataN:  DoStor=T MaxTD1= 3 Len=   28
 ***** Axes restored to original set *****
 -------------------------------------------------------------------
 Center     Atomic                   Forces (Hartrees/Bohr)
 Number     Number              X              Y              Z
 -------------------------------------------------------------------
    1          1          -0.080416511    0.000000000   -0.042461384
    2          6          -0.054469209    0.000000000   -0.077242282
    3          1           0.023388946    0.000000000   -0.086649978
    4          6          -0.003165622    0.000000000   -0.089188249
    5          1           0.087855241    0.000000000    0.011274202
    6          6           0.055635882    0.000000000    0.025733921
    7          7           0.119566718    0.000000000    0.180641912
    8          1          -0.064225459    0.000000000    0.063781155
    9          7          -0.084169987    0.000000000    0.014110703
 -------------------------------------------------------------------
 Cartesian Forces:  Max     0.180641912 RMS     0.063019826

 GradGradGradGradGradGradGradGradGradGradGradGradGradGradGradGradGradGrad
 Berny optimization.
 Internal  Forces:  Max     0.178999309 RMS     0.062283566
 Search for a local minimum.
 Step number   1 out of a maximum of  48
 All quantities printed in internal units (Hartrees-Bohrs-Radians)
 Second derivative matrix not updated -- first step.
     Eigenvalues ---    0.03204   0.03245   0.03263   0.03273   0.03342
     Eigenvalues ---    0.03375   0.16000   0.16000   0.16000   0.16000
     Eigenvalues ---    0.22000   0.22938   0.49374   0.49681   0.49740
     Eigenvalues ---    0.56490   0.56686   0.60708   0.68179   0.73042
     Eigenvalues ---    0.827791000.000001000.000001000.000001000.00000
     Eigenvalues --- 1000.000001000.000001000.000001000.000001000.00000
     Eigenvalues --- 1000.000001000.000001000.000001000.000001000.00000
     Eigenvalues --- 1000.000001000.000001000.00000
 RFO step:  Lambda=-1.76203619D-01.
 Linear search not attempted -- first point.
 Maximum step size (   0.300) exceeded in Quadratic search.
    -- Step size scaled by   0.642
 Iteration  1 RMS(Cart)=  0.06471755 RMS(Int)=  0.00049702
 Iteration  2 RMS(Cart)=  0.00059530 RMS(Int)=  0.00002052
 Iteration  3 RMS(Cart)=  0.00000025 RMS(Int)=  0.00002052
 Variable       Old X    -DE/DX   Delta X   Delta X   Delta X     New X
                                 (Linear)    (Quad)   (Total)
    R1        1.86889   0.09055   0.00000   0.08632   0.08632   1.95521
    R2        2.49307   0.12270   0.00000   0.09649   0.09652   2.58959
    R3        2.40839   0.15290   0.00000   0.10796   0.10795   2.51634
    R4        1.86829   0.08972   0.00000   0.08545   0.08545   1.95374
    R5        2.47696   0.17396   0.00000   0.13294   0.13297   2.60993
    R6        1.87202   0.08782   0.00000   0.08410   0.08410   1.95612
    R7        2.41851   0.11268   0.00000   0.07987   0.07986   2.49837
    R8        2.34237   0.17900   0.00000   0.11223   0.11219   2.45456
    R9        1.77084   0.08989   0.00000   0.07363   0.07363   1.84447
    A1        2.20252   0.01229   0.00000   0.02282   0.02281   2.22533
    A2        2.21295  -0.00343   0.00000  -0.00717  -0.00718   2.20578
    A3        1.86771  -0.00886   0.00000  -0.01565  -0.01563   1.85208
    A4        2.22327  -0.00413   0.00000  -0.00185  -0.00188   2.22138
    A5        1.83976   0.00354   0.00000  -0.00530  -0.00524   1.83452
    A6        2.22016   0.00059   0.00000   0.00716   0.00713   2.22729
    A7        2.19731   0.00236   0.00000   0.01016   0.01015   2.20746
    A8        1.89479   0.01689   0.00000   0.02094   0.02096   1.91575
    A9        2.19108  -0.01925   0.00000  -0.03109  -0.03110   2.15997
   A10        1.88850  -0.02427   0.00000  -0.02891  -0.02897   1.85953
   A11        1.93402   0.01270   0.00000   0.02893   0.02889   1.96291
   A12        2.17185   0.00302   0.00000   0.00341   0.00343   2.17527
   A13        2.17732  -0.01571   0.00000  -0.03234  -0.03232   2.14500
    D1        0.00000   0.00000   0.00000   0.00000   0.00000   0.00000
    D2        3.14159   0.00000   0.00000   0.00000   0.00000   3.14159
    D3        3.14159   0.00000   0.00000   0.00000   0.00000   3.14159
    D4        0.00000   0.00000   0.00000   0.00000   0.00000   0.00000
    D5        3.14159   0.00000   0.00000   0.00000   0.00000   3.14159
    D6        0.00000   0.00000   0.00000   0.00000   0.00000   0.00000
    D7        0.00000   0.00000   0.00000   0.00000   0.00000   0.00000
    D8        3.14159   0.00000   0.00000   0.00000   0.00000   3.14159
    D9        3.14159   0.00000   0.00000   0.00000   0.00000   3.14159
   D10        0.00000   0.00000   0.00000   0.00000   0.00000   0.00000
   D11        0.00000   0.00000   0.00000   0.00000   0.00000   0.00000
   D12        3.14159   0.00000   0.00000   0.00000   0.00000   3.14159
   D13        0.00000   0.00000   0.00000   0.00000   0.00000   0.00000
   D14        3.14159   0.00000   0.00000   0.00000   0.00000   3.14159
   D15        0.00000   0.00000   0.00000   0.00000   0.00000   0.00000
   D16        3.14159   0.00000   0.00000   0.00000   0.00000   3.14159
         Item               Value     Threshold  Converged?
 Maximum Force            0.178999     0.000450     NO 
 RMS     Force            0.062284     0.000300     NO 
 Maximum Displacement     0.168571     0.001800     NO 
 RMS     Displacement     0.064669     0.001200     NO 
 Predicted change in Energy=-2.833472D-02
 GradGradGradGradGradGradGradGradGradGradGradGradGradGradGradGradGradGrad

                          Input orientation:                          
 ---------------------------------------------------------------------
 Center     Atomic     Atomic              Coordinates (Angstroms)
 Number     Number      Type              X           Y           Z
 ---------------------------------------------------------------------
    1          1             0       -1.803527    0.000000   -1.180444
    2          6             0       -0.926244    0.000000   -0.631921
    3          1             0        0.656186    0.000000   -2.101213
    4          6             0        0.357474    0.000000   -1.111430
    5          1             0        2.196313    0.000000    0.027668
    6          6             0        1.161303    0.000000    0.011664
    7          7             0        0.409746    0.000000    1.099348
    8          1             0       -1.583409    0.000000    1.310054
    9          7             0       -0.824874    0.000000    0.695804
 ---------------------------------------------------------------------
                    Distance matrix (angstroms):
                    1          2          3          4          5
     1  H    0.000000
     2  C    1.034651   0.000000
     3  H    2.626405   2.159375   0.000000
     4  C    2.162103   1.370350   1.033875   0.000000
     5  H    4.178308   3.191461   2.627570   2.163071   0.000000
     6  C    3.195518   2.184503   2.172416   1.381116   1.035134
     7  N    3.177425   2.186816   3.210035   2.211396   2.083344
     8  H    2.500206   2.050155   4.080751   3.103324   3.991343
     9  N    2.116145   1.331590   3.164940   2.159640   3.094185
                    6          7          8          9
     6  C    0.000000
     7  N    1.322079   0.000000
     8  H    3.036324   2.004262   0.000000
     9  N    2.100701   1.298897   0.976053   0.000000
 Stoichiometry    C3H4N2
 Framework group  CS[SG(C3H4N2)]
 Deg. of freedom   15
 Full point group                 CS      NOp   2
 Largest Abelian subgroup         CS      NOp   2
 Largest concise Abelian subgroup C1      NOp   1
                         Standard orientation:                         
 ---------------------------------------------------------------------
 Center     Atomic     Atomic              Coordinates (Angstroms)
 Number     Number      Type              X           Y           Z
 ---------------------------------------------------------------------
    1          1             0        2.063922    0.602275    0.000000
    2          6             0        1.078154    0.288009    0.000000
    3          1             0        1.175167   -1.869186    0.000000
    4          6             0        0.613523   -1.001168    0.000000
    5          1             0       -1.444595   -1.666769    0.000000
    6          6             0       -0.762930   -0.887772    0.000000
    7          7             0       -1.106332    0.388930    0.000000
    8          1             0        0.022175    2.045293    0.000000
    9          7             0        0.000000    1.069492    0.000000
 ---------------------------------------------------------------------
 Rotational constants (GHZ):     10.0502428      9.8098256      4.9642895
 Isotopes: H-1,C-12,H-1,C-12,H-1,C-12,N-14,H-1,N-14
 Standard basis: CEP-31G (6D, 10F)
 There are    38 symmetry adapted basis functions of A'  symmetry.
 There are    10 symmetry adapted basis functions of A"  symmetry.
 Crude estimate of integral set expansion from redundant integrals=1.000.
 Integral buffers will be    262144 words long.
 Raffenetti 2 integral format.
 Two-electron integral symmetry is turned on.
    48 basis functions       96 primitive gaussians
    13 alpha electrons       13 beta electrons
       nuclear repulsion energy        86.5779370782 Hartrees.
 One-electron integrals computed using PRISM.
   1 Symmetry operations used in ECPInt.
 ECPInt:  NShTT=     171 NPrTT=     693 LenC2=     172 LenP2D=     644.
 LDataN:  DoStor=F MaxTD1= 2 Len=   12
 LDataN:  DoStor=T MaxTD1= 2 Len=   12
 NBasis=    48 RedAO= T  NBF=    38    10
 NBsUse=    48 1.00D-04 NBFU=    38    10
 Initial guess read from the read-write file:
 Initial guess orbital symmetries:
       Occupied  (A') (A') (A') (A') (A') (A') (A") (A') (A') (A')
                 (A") (A') (A")
       Virtual   (A") (A") (A') (A') (A') (A') (A') (A') (A') (A')
                 (A") (A') (A") (A') (A") (A') (A') (A') (A") (A')
                 (A") (A') (A') (A') (A') (A') (A') (A') (A') (A')
                 (A') (A') (A') (A') (A')
 Requested convergence on RMS density matrix=1.00D-08 within  64 cycles.
 Requested convergence on MAX density matrix=1.00D-06.
 Keep R1 and R2 integrals in memory in canonical form, NReq=     1796396.
 Integral accuracy reduced to 1.0D-05 until final iterations.
 Initial convergence to 1.0D-05 achieved.  Increase integral accuracy.
 SCF Done:  E(RB+HF-LYP) =  -39.0322426644     A.U. after   15 cycles
             Convg  =    0.2913D-08             -V/T =  2.2790
             S**2   =   0.0000
   2 Symmetry operations used in ECPInt.
 ECPInt:  NShTT=     171 NPrTT=     693 LenC2=     172 LenP2D=     644.
 LDataN:  DoStor=F MaxTD1= 3 Len=   28
 LDataN:  DoStor=T MaxTD1= 3 Len=   28
 ***** Axes restored to original set *****
 -------------------------------------------------------------------
 Center     Atomic                   Forces (Hartrees/Bohr)
 Number     Number              X              Y              Z
 -------------------------------------------------------------------
    1          1          -0.039112811    0.000000000   -0.016058485
    2          6          -0.011272646    0.000000000   -0.036947309
    3          1           0.011056945    0.000000000   -0.040336600
    4          6          -0.001457665    0.000000000   -0.028802124
    5          1           0.040995878    0.000000000    0.008539939
    6          6           0.013922338    0.000000000   -0.000864214
    7          7           0.061848539    0.000000000    0.085753401
    8          1          -0.025680483    0.000000000    0.030692739
    9          7          -0.050300097    0.000000000   -0.001977347
 -------------------------------------------------------------------
 Cartesian Forces:  Max     0.085753401 RMS     0.029264722

 GradGradGradGradGradGradGradGradGradGradGradGradGradGradGradGradGradGrad
 Berny optimization.
 Internal  Forces:  Max     0.085527218 RMS     0.027452022
 Search for a local minimum.
 Step number   2 out of a maximum of  48
 All quantities printed in internal units (Hartrees-Bohrs-Radians)
 Update second derivatives using information from points  1  2
 Trust test= 2.82D+00 RLast= 3.00D-01 DXMaxT set to 4.24D-01
     Eigenvalues ---    0.03204   0.03246   0.03261   0.03273   0.03342
     Eigenvalues ---    0.03375   0.15944   0.16000   0.16000   0.16008
     Eigenvalues ---    0.22015   0.23127   0.49441   0.49711   0.50302
     Eigenvalues ---    0.57253   0.58895   0.61858   0.68433   0.77411
     Eigenvalues ---    0.814611000.000001000.000001000.000001000.00000
     Eigenvalues --- 1000.000001000.000001000.000001000.000001000.00000
     Eigenvalues --- 1000.000001000.000001000.000001000.000001000.00000
     Eigenvalues --- 1000.000001000.000001000.00000
 RFO step:  Lambda=-4.77215248D-03.
 Quartic linear search produced a step of  1.11272.
 Iteration  1 RMS(Cart)=  0.07933441 RMS(Int)=  0.00212748
 Iteration  2 RMS(Cart)=  0.00273939 RMS(Int)=  0.00011621
 Iteration  3 RMS(Cart)=  0.00000648 RMS(Int)=  0.00011606
 Iteration  4 RMS(Cart)=  0.00000000 RMS(Int)=  0.00011606
 Variable       Old X    -DE/DX   Delta X   Delta X   Delta X     New X
                                 (Linear)    (Quad)   (Total)
    R1        1.95521   0.04168   0.09605   0.01548   0.11152   2.06673
    R2        2.58959   0.04945   0.10740  -0.01625   0.09097   2.68055
    R3        2.51634   0.06505   0.12011  -0.00787   0.11211   2.62845
    R4        1.95374   0.04181   0.09508   0.01746   0.11254   2.06628
    R5        2.60993   0.06891   0.14796  -0.02725   0.12074   2.73067
    R6        1.95612   0.04112   0.09358   0.01825   0.11183   2.06795
    R7        2.49837   0.04987   0.08886  -0.00081   0.08825   2.58662
    R8        2.45456   0.08553   0.12484   0.01173   0.13666   2.59122
    R9        1.84447   0.03927   0.08193   0.00083   0.08276   1.92723
    A1        2.22533   0.00782   0.02538   0.05304   0.07859   2.30392
    A2        2.20578  -0.00611  -0.00799  -0.06171  -0.06953   2.13625
    A3        1.85208  -0.00171  -0.01740   0.00867  -0.00906   1.84302
    A4        2.22138  -0.00234  -0.00210   0.00154  -0.00046   2.22092
    A5        1.83452   0.00258  -0.00583  -0.01073  -0.01675   1.81777
    A6        2.22729  -0.00025   0.00793   0.00919   0.01721   2.24450
    A7        2.20746   0.00268   0.01129   0.04164   0.05284   2.26030
    A8        1.91575   0.01011   0.02332   0.02726   0.05075   1.96650
    A9        2.15997  -0.01278  -0.03461  -0.06890  -0.10360   2.05638
   A10        1.85953  -0.01386  -0.03224  -0.02732  -0.05917   1.80036
   A11        1.96291   0.00289   0.03215   0.00212   0.03421   1.99712
   A12        2.17527   0.00565   0.00381   0.05190   0.05574   2.23102
   A13        2.14500  -0.00854  -0.03596  -0.05402  -0.08996   2.05505
    D1        0.00000   0.00000   0.00000   0.00000   0.00000   0.00000
    D2        3.14159   0.00000   0.00000   0.00000   0.00000   3.14159
    D3        3.14159   0.00000   0.00000   0.00000   0.00000   3.14159
    D4        0.00000   0.00000   0.00000   0.00000   0.00000   0.00000
    D5        3.14159   0.00000   0.00000   0.00000   0.00000   3.14159
    D6        0.00000   0.00000   0.00000   0.00000   0.00000   0.00000
    D7        0.00000   0.00000   0.00000   0.00000   0.00000   0.00000
    D8        3.14159   0.00000   0.00000   0.00000   0.00000   3.14159
    D9        3.14159   0.00000   0.00000   0.00000   0.00000   3.14159
   D10        0.00000   0.00000   0.00000   0.00000   0.00000   0.00000
   D11        0.00000   0.00000   0.00000   0.00000   0.00000   0.00000
   D12        3.14159   0.00000   0.00000   0.00000   0.00000   3.14159
   D13        0.00000   0.00000   0.00000   0.00000   0.00000   0.00000
   D14        3.14159   0.00000   0.00000   0.00000   0.00000   3.14159
   D15        0.00000   0.00000   0.00000   0.00000   0.00000   0.00000
   D16        3.14159   0.00000   0.00000   0.00000   0.00000   3.14159
         Item               Value     Threshold  Converged?
 Maximum Force            0.085527     0.000450     NO 
 RMS     Force            0.027452     0.000300     NO 
 Maximum Displacement     0.231779     0.001800     NO 
 RMS     Displacement     0.079277     0.001200     NO 
 Predicted change in Energy=-4.150636D-02
 GradGradGradGradGradGradGradGradGradGradGradGradGradGradGradGradGradGrad

                          Input orientation:                          
 ---------------------------------------------------------------------
 Center     Atomic     Atomic              Coordinates (Angstroms)
 Number     Number      Type              X           Y           Z
 ---------------------------------------------------------------------
    1          1             0       -1.916950    0.000000   -1.198653
    2          6             0       -0.949440    0.000000   -0.688720
    3          1             0        0.702290    0.000000   -2.224001
    4          6             0        0.381770    0.000000   -1.178605
    5          1             0        2.287094    0.000000    0.112603
    6          6             0        1.197201    0.000000    0.014344
    7          7             0        0.452244    0.000000    1.162646
    8          1             0       -1.590442    0.000000    1.385837
    9          7             0       -0.837741    0.000000    0.697705
 ---------------------------------------------------------------------
                    Distance matrix (angstroms):
                    1          2          3          4          5
     1  H    0.000000
     2  C    1.093667   0.000000
     3  H    2.812785   2.255061   0.000000
     4  C    2.298808   1.418488   1.093428   0.000000
     5  H    4.403791   3.334257   2.823352   2.301624   0.000000
     6  C    3.342050   2.258841   2.292406   1.445010   1.094313
     7  N    3.344968   2.322127   3.395864   2.342311   2.114063
     8  H    2.605033   2.171329   4.276395   3.235117   4.081226
     9  N    2.181940   1.390917   3.302735   2.237799   3.179140
                    6          7          8          9
     6  C    0.000000
     7  N    1.368779   0.000000
     8  H    3.106758   2.054844   0.000000
     9  N    2.146618   1.371215   1.019846   0.000000
 Stoichiometry    C3H4N2
 Framework group  CS[SG(C3H4N2)]
 Deg. of freedom   15
 Full point group                 CS      NOp   2
 Largest Abelian subgroup         CS      NOp   2
 Largest concise Abelian subgroup C1      NOp   1
                         Standard orientation:                         
 ---------------------------------------------------------------------
 Center     Atomic     Atomic              Coordinates (Angstroms)
 Number     Number      Type              X           Y           Z
 ---------------------------------------------------------------------
    1          1             0        2.148098    0.710417    0.000000
    2          6             0        1.137387    0.292599    0.000000
    3          1             0        1.261655   -1.959036    0.000000
    4          6             0        0.662839   -1.044156    0.000000
    5          1             0       -1.548216   -1.683458    0.000000
    6          6             0       -0.775771   -0.908313    0.000000
    7          7             0       -1.182314    0.398698    0.000000
    8          1             0       -0.047786    2.111949    0.000000
    9          7             0        0.000000    1.093223    0.000000
 ---------------------------------------------------------------------
 Rotational constants (GHZ):      9.3088443      8.9308926      4.5579763
 Isotopes: H-1,C-12,H-1,C-12,H-1,C-12,N-14,H-1,N-14
 Standard basis: CEP-31G (6D, 10F)
 There are    38 symmetry adapted basis functions of A'  symmetry.
 There are    10 symmetry adapted basis functions of A"  symmetry.
 Crude estimate of integral set expansion from redundant integrals=1.000.
 Integral buffers will be    262144 words long.
 Raffenetti 2 integral format.
 Two-electron integral symmetry is turned on.
    48 basis functions       96 primitive gaussians
    13 alpha electrons       13 beta electrons
       nuclear repulsion energy        82.8902797239 Hartrees.
 One-electron integrals computed using PRISM.
   1 Symmetry operations used in ECPInt.
 ECPInt:  NShTT=     171 NPrTT=     693 LenC2=     172 LenP2D=     642.
 LDataN:  DoStor=F MaxTD1= 2 Len=   12
 LDataN:  DoStor=T MaxTD1= 2 Len=   12
 NBasis=    48 RedAO= T  NBF=    38    10
 NBsUse=    48 1.00D-04 NBFU=    38    10
 Initial guess read from the read-write file:
 Initial guess orbital symmetries:
       Occupied  (A') (A') (A') (A') (A') (A') (A') (A") (A') (A')
                 (A') (A") (A")
       Virtual   (A") (A") (A') (A') (A') (A') (A') (A') (A') (A')
                 (A") (A') (A") (A') (A') (A") (A') (A') (A") (A')
                 (A") (A') (A') (A') (A') (A') (A') (A') (A') (A')
                 (A') (A') (A') (A') (A')
 Requested convergence on RMS density matrix=1.00D-08 within  64 cycles.
 Requested convergence on MAX density matrix=1.00D-06.
 Keep R1 and R2 integrals in memory in canonical form, NReq=     1796396.
 Integral accuracy reduced to 1.0D-05 until final iterations.
 Initial convergence to 1.0D-05 achieved.  Increase integral accuracy.
 SCF Done:  E(RB+HF-LYP) =  -39.0585022320     A.U. after   15 cycles
             Convg  =    0.4064D-08             -V/T =  2.3235
             S**2   =   0.0000
   2 Symmetry operations used in ECPInt.
 ECPInt:  NShTT=     171 NPrTT=     693 LenC2=     172 LenP2D=     642.
 LDataN:  DoStor=F MaxTD1= 3 Len=   28
 LDataN:  DoStor=T MaxTD1= 3 Len=   28
 ***** Axes restored to original set *****
 -------------------------------------------------------------------
 Center     Atomic                   Forces (Hartrees/Bohr)
 Number     Number              X              Y              Z
 -------------------------------------------------------------------
    1          1           0.004901736    0.000000000    0.002868930
    2          6           0.002277092    0.000000000   -0.002518679
    3          1          -0.001195321    0.000000000    0.006156245
    4          6          -0.003785508    0.000000000    0.000281107
    5          1          -0.004844377    0.000000000   -0.002509691
    6          6           0.012672980    0.000000000    0.001443390
    7          7           0.014352110    0.000000000   -0.004401248
    8          1           0.001455781    0.000000000   -0.004737282
    9          7          -0.025834493    0.000000000    0.003417230
 -------------------------------------------------------------------
 Cartesian Forces:  Max     0.025834493 RMS     0.006719215

 GradGradGradGradGradGradGradGradGradGradGradGradGradGradGradGradGradGrad
 Berny optimization.
 Internal  Forces:  Max     0.017144980 RMS     0.004188422
 Search for a local minimum.
 Step number   3 out of a maximum of  48
 All quantities printed in internal units (Hartrees-Bohrs-Radians)
 Update second derivatives using information from points  2  3
 Trust test= 6.33D-01 RLast= 3.87D-01 DXMaxT set to 4.24D-01
     Eigenvalues ---    0.03203   0.03248   0.03251   0.03273   0.03342
     Eigenvalues ---    0.03372   0.15585   0.16000   0.16001   0.16041
     Eigenvalues ---    0.22051   0.23489   0.46544   0.49518   0.49714
     Eigenvalues ---    0.57617   0.59309   0.59541   0.64744   0.68751
     Eigenvalues ---    0.806461000.000001000.000001000.000001000.00000
     Eigenvalues --- 1000.000001000.000001000.000001000.000001000.00000
     Eigenvalues --- 1000.000001000.000001000.000001000.000001000.00000
     Eigenvalues --- 1000.000001000.000001000.00000
 RFO step:  Lambda=-1.44047923D-03.
 Quartic linear search produced a step of -0.04936.
 Iteration  1 RMS(Cart)=  0.01430088 RMS(Int)=  0.00010014
 Iteration  2 RMS(Cart)=  0.00011562 RMS(Int)=  0.00001824
 Iteration  3 RMS(Cart)=  0.00000000 RMS(Int)=  0.00001824
 Variable       Old X    -DE/DX   Delta X   Delta X   Delta X     New X
                                 (Linear)    (Quad)   (Total)
    R1        2.06673  -0.00567  -0.00550  -0.00490  -0.01040   2.05633
    R2        2.68055  -0.00202  -0.00449   0.00060  -0.00388   2.67667
    R3        2.62845  -0.00284  -0.00553   0.00371  -0.00179   2.62666
    R4        2.06628  -0.00624  -0.00556  -0.00594  -0.01149   2.05479
    R5        2.73067  -0.00162  -0.00596   0.00336  -0.00263   2.72804
    R6        2.06795  -0.00505  -0.00552  -0.00381  -0.00933   2.05863
    R7        2.58662  -0.00048  -0.00436   0.00504   0.00066   2.58728
    R8        2.59122   0.01714  -0.00675   0.02807   0.02133   2.61256
    R9        1.92723  -0.00427  -0.00409  -0.00197  -0.00606   1.92117
    A1        2.30392  -0.00125  -0.00388  -0.00099  -0.00489   2.29903
    A2        2.13625  -0.00178   0.00343  -0.00835  -0.00493   2.13131
    A3        1.84302   0.00303   0.00045   0.00933   0.00982   1.85285
    A4        2.22092  -0.00224   0.00002  -0.00365  -0.00362   2.21730
    A5        1.81777   0.00585   0.00083   0.01475   0.01556   1.83333
    A6        2.24450  -0.00361  -0.00085  -0.01111  -0.01195   2.23255
    A7        2.26030   0.00037  -0.00261   0.00078  -0.00181   2.25850
    A8        1.96650  -0.00501  -0.00251  -0.02203  -0.02459   1.94192
    A9        2.05638   0.00464   0.00511   0.02125   0.02639   2.08277
   A10        1.80036   0.00428   0.00292   0.02425   0.02715   1.82751
   A11        1.99712  -0.00816  -0.00169  -0.02630  -0.02795   1.96917
   A12        2.23102   0.00166  -0.00275   0.00104  -0.00173   2.22929
   A13        2.05505   0.00650   0.00444   0.02526   0.02968   2.08473
    D1        0.00000   0.00000   0.00000   0.00000   0.00000   0.00000
    D2        3.14159   0.00000   0.00000   0.00000   0.00000   3.14159
    D3        3.14159   0.00000   0.00000   0.00000   0.00000   3.14159
    D4        0.00000   0.00000   0.00000   0.00000   0.00000   0.00000
    D5        3.14159   0.00000   0.00000   0.00000   0.00000   3.14159
    D6        0.00000   0.00000   0.00000   0.00000   0.00000   0.00000
    D7        0.00000   0.00000   0.00000   0.00000   0.00000   0.00000
    D8        3.14159   0.00000   0.00000   0.00000   0.00000   3.14159
    D9        3.14159   0.00000   0.00000   0.00000   0.00000   3.14159
   D10        0.00000   0.00000   0.00000   0.00000   0.00000   0.00000
   D11        0.00000   0.00000   0.00000   0.00000   0.00000   0.00000
   D12        3.14159   0.00000   0.00000   0.00000   0.00000   3.14159
   D13        0.00000   0.00000   0.00000   0.00000   0.00000   0.00000
   D14        3.14159   0.00000   0.00000   0.00000   0.00000   3.14159
   D15        0.00000   0.00000   0.00000   0.00000   0.00000   0.00000
   D16        3.14159   0.00000   0.00000   0.00000   0.00000   3.14159
         Item               Value     Threshold  Converged?
 Maximum Force            0.017145     0.000450     NO 
 RMS     Force            0.004188     0.000300     NO 
 Maximum Displacement     0.042379     0.001800     NO 
 RMS     Displacement     0.014279     0.001200     NO 
 Predicted change in Energy=-7.913413D-04
 GradGradGradGradGradGradGradGradGradGradGradGradGradGradGradGradGradGrad

                          Input orientation:                          
 ---------------------------------------------------------------------
 Center     Atomic     Atomic              Coordinates (Angstroms)
 Number     Number      Type              X           Y           Z
 ---------------------------------------------------------------------
    1          1             0       -1.910104    0.000000   -1.195438
    2          6             0       -0.951052    0.000000   -0.681323
    3          1             0        0.696471    0.000000   -2.207712
    4          6             0        0.379272    0.000000   -1.167659
    5          1             0        2.296188    0.000000    0.094372
    6          6             0        1.209846    0.000000    0.013095
    7          7             0        0.451930    0.000000    1.153304
    8          1             0       -1.615662    0.000000    1.381026
    9          7             0       -0.856006    0.000000    0.705394
 ---------------------------------------------------------------------
                    Distance matrix (angstroms):
                    1          2          3          4          5
     1  H    0.000000
     2  C    1.088161   0.000000
     3  H    2.796236   2.245929   0.000000
     4  C    2.289545   1.416434   1.087348   0.000000
     5  H    4.399603   3.338603   2.803334   2.295057   0.000000
     6  C    3.345839   2.269734   2.279371   1.443617   1.089379
     7  N    3.331035   2.309592   3.369900   2.322099   2.126646
     8  H    2.593234   2.166792   4.269074   3.236596   4.118015
     9  N    2.173542   1.389971   3.300965   2.243711   3.210868
                    6          7          8          9
     6  C    0.000000
     7  N    1.369128   0.000000
     8  H    3.139224   2.080095   0.000000
     9  N    2.178766   1.382505   1.016639   0.000000
 Stoichiometry    C3H4N2
 Framework group  CS[SG(C3H4N2)]
 Deg. of freedom   15
 Full point group                 CS      NOp   2
 Largest Abelian subgroup         CS      NOp   2
 Largest concise Abelian subgroup C1      NOp   1
                         Standard orientation:                         
 ---------------------------------------------------------------------
 Center     Atomic     Atomic              Coordinates (Angstroms)
 Number     Number      Type              X           Y           Z
 ---------------------------------------------------------------------
    1          1             0        2.137508    0.714485    0.000000
    2          6             0        1.131077    0.300734    0.000000
    3          1             0        1.262572   -1.941342    0.000000
    4          6             0        0.661138   -1.035471    0.000000
    5          1             0       -1.531486   -1.713474    0.000000
    6          6             0       -0.778350   -0.926369    0.000000
    7          7             0       -1.177034    0.383426    0.000000
    8          1             0       -0.038881    2.124518    0.000000
    9          7             0        0.000000    1.108622    0.000000
 ---------------------------------------------------------------------
 Rotational constants (GHZ):      9.1419411      9.0550837      4.5491526
 Isotopes: H-1,C-12,H-1,C-12,H-1,C-12,N-14,H-1,N-14
 Standard basis: CEP-31G (6D, 10F)
 There are    38 symmetry adapted basis functions of A'  symmetry.
 There are    10 symmetry adapted basis functions of A"  symmetry.
 Crude estimate of integral set expansion from redundant integrals=1.000.
 Integral buffers will be    262144 words long.
 Raffenetti 2 integral format.
 Two-electron integral symmetry is turned on.
    48 basis functions       96 primitive gaussians
    13 alpha electrons       13 beta electrons
       nuclear repulsion energy        82.8217551629 Hartrees.
 One-electron integrals computed using PRISM.
   1 Symmetry operations used in ECPInt.
 ECPInt:  NShTT=     171 NPrTT=     693 LenC2=     172 LenP2D=     642.
 LDataN:  DoStor=F MaxTD1= 2 Len=   12
 LDataN:  DoStor=T MaxTD1= 2 Len=   12
 NBasis=    48 RedAO= T  NBF=    38    10
 NBsUse=    48 1.00D-04 NBFU=    38    10
 Initial guess read from the read-write file:
 Initial guess orbital symmetries:
       Occupied  (A') (A') (A') (A') (A') (A') (A') (A") (A') (A')
                 (A') (A") (A")
       Virtual   (A") (A") (A') (A') (A') (A') (A') (A') (A') (A')
                 (A') (A") (A') (A") (A') (A') (A") (A') (A") (A')
                 (A') (A") (A') (A') (A') (A') (A') (A') (A') (A')
                 (A') (A') (A') (A') (A')
 Requested convergence on RMS density matrix=1.00D-08 within  64 cycles.
 Requested convergence on MAX density matrix=1.00D-06.
 Keep R1 and R2 integrals in memory in canonical form, NReq=     1796396.
 Integral accuracy reduced to 1.0D-05 until final iterations.
 Initial convergence to 1.0D-05 achieved.  Increase integral accuracy.
 SCF Done:  E(RB+HF-LYP) =  -39.0591417072     A.U. after   13 cycles
             Convg  =    0.3751D-08             -V/T =  2.3234
             S**2   =   0.0000
   2 Symmetry operations used in ECPInt.
 ECPInt:  NShTT=     171 NPrTT=     693 LenC2=     172 LenP2D=     642.
 LDataN:  DoStor=F MaxTD1= 3 Len=   28
 LDataN:  DoStor=T MaxTD1= 3 Len=   28
 ***** Axes restored to original set *****
 -------------------------------------------------------------------
 Center     Atomic                   Forces (Hartrees/Bohr)
 Number     Number              X              Y              Z
 -------------------------------------------------------------------
    1          1           0.001601335    0.000000000    0.000417759
    2          6           0.002356659    0.000000000   -0.002533822
    3          1          -0.000635721    0.000000000    0.001509846
    4          6          -0.003292463    0.000000000   -0.001731080
    5          1          -0.002253076    0.000000000    0.000107121
    6          6          -0.005269983    0.000000000    0.001735797
    7          7           0.010720523    0.000000000    0.006448607
    8          1           0.002069996    0.000000000   -0.000783537
    9          7          -0.005297271    0.000000000   -0.005170691
 -------------------------------------------------------------------
 Cartesian Forces:  Max     0.010720523 RMS     0.003239326

 GradGradGradGradGradGradGradGradGradGradGradGradGradGradGradGradGradGrad
 Berny optimization.
 Internal  Forces:  Max     0.006437657 RMS     0.002193753
 Search for a local minimum.
 Step number   4 out of a maximum of  48
 All quantities printed in internal units (Hartrees-Bohrs-Radians)
 Update second derivatives using information from points  2  3  4
 Trust test= 8.08D-01 RLast= 7.14D-02 DXMaxT set to 4.24D-01
     Eigenvalues ---    0.03203   0.03247   0.03251   0.03273   0.03342
     Eigenvalues ---    0.03373   0.15314   0.15982   0.16001   0.16092
     Eigenvalues ---    0.22041   0.35562   0.44597   0.49463   0.49679
     Eigenvalues ---    0.51054   0.58168   0.60169   0.62201   0.71893
     Eigenvalues ---    0.746871000.000001000.000001000.000001000.00000
     Eigenvalues --- 1000.000001000.000001000.000001000.000001000.00000
     Eigenvalues --- 1000.000001000.000001000.000001000.000001000.00000
     Eigenvalues --- 1000.000001000.000001000.00000
 RFO step:  Lambda=-3.20972197D-04.
 Quartic linear search produced a step of -0.14753.
 Iteration  1 RMS(Cart)=  0.00488242 RMS(Int)=  0.00001951
 Iteration  2 RMS(Cart)=  0.00002155 RMS(Int)=  0.00000984
 Iteration  3 RMS(Cart)=  0.00000000 RMS(Int)=  0.00000984
 Variable       Old X    -DE/DX   Delta X   Delta X   Delta X     New X
                                 (Linear)    (Quad)   (Total)
    R1        2.05633  -0.00161   0.00154  -0.00580  -0.00426   2.05206
    R2        2.67667  -0.00587   0.00057  -0.00935  -0.00879   2.66788
    R3        2.62666   0.00014   0.00026   0.00058   0.00082   2.62749
    R4        2.05479  -0.00163   0.00170  -0.00623  -0.00453   2.05026
    R5        2.72804   0.00099   0.00039   0.00053   0.00093   2.72897
    R6        2.05863  -0.00224   0.00138  -0.00650  -0.00513   2.05350
    R7        2.58728  -0.00292  -0.00010  -0.00250  -0.00258   2.58470
    R8        2.61256   0.00644  -0.00315   0.01560   0.01245   2.62500
    R9        1.92117  -0.00207   0.00089  -0.00457  -0.00367   1.91750
    A1        2.29903  -0.00016   0.00072  -0.00172  -0.00099   2.29804
    A2        2.13131   0.00063   0.00073   0.00115   0.00189   2.13321
    A3        1.85285  -0.00047  -0.00145   0.00057  -0.00090   1.85194
    A4        2.21730  -0.00007   0.00053   0.00010   0.00064   2.21794
    A5        1.83333  -0.00020  -0.00230   0.00081  -0.00148   1.83185
    A6        2.23255   0.00028   0.00176  -0.00092   0.00085   2.23340
    A7        2.25850  -0.00201   0.00027  -0.00642  -0.00617   2.25233
    A8        1.94192   0.00459   0.00363   0.00692   0.01057   1.95249
    A9        2.08277  -0.00258  -0.00389  -0.00049  -0.00440   2.07837
   A10        1.82751  -0.00635  -0.00401  -0.01001  -0.01399   1.81352
   A11        1.96917   0.00244   0.00412   0.00171   0.00581   1.97498
   A12        2.22929  -0.00046   0.00026  -0.00192  -0.00165   2.22763
   A13        2.08473  -0.00198  -0.00438   0.00021  -0.00416   2.08057
    D1        0.00000   0.00000   0.00000   0.00000   0.00000   0.00000
    D2        3.14159   0.00000   0.00000   0.00000   0.00000   3.14159
    D3        3.14159   0.00000   0.00000   0.00000   0.00000   3.14159
    D4        0.00000   0.00000   0.00000   0.00000   0.00000   0.00000
    D5        3.14159   0.00000   0.00000   0.00000   0.00000   3.14159
    D6        0.00000   0.00000   0.00000   0.00000   0.00000   0.00000
    D7        0.00000   0.00000   0.00000   0.00000   0.00000   0.00000
    D8        3.14159   0.00000   0.00000   0.00000   0.00000   3.14159
    D9        3.14159   0.00000   0.00000   0.00000   0.00000   3.14159
   D10        0.00000   0.00000   0.00000   0.00000   0.00000   0.00000
   D11        0.00000   0.00000   0.00000   0.00000   0.00000   0.00000
   D12        3.14159   0.00000   0.00000   0.00000   0.00000   3.14159
   D13        0.00000   0.00000   0.00000   0.00000   0.00000   0.00000
   D14        3.14159   0.00000   0.00000   0.00000   0.00000   3.14159
   D15        0.00000   0.00000   0.00000   0.00000   0.00000   0.00000
   D16        3.14159   0.00000   0.00000   0.00000   0.00000   3.14159
         Item               Value     Threshold  Converged?
 Maximum Force            0.006438     0.000450     NO 
 RMS     Force            0.002194     0.000300     NO 
 Maximum Displacement     0.014099     0.001800     NO 
 RMS     Displacement     0.004887     0.001200     NO 
 Predicted change in Energy=-1.801710D-04
 GradGradGradGradGradGradGradGradGradGradGradGradGradGradGradGradGradGrad

                          Input orientation:                          
 ---------------------------------------------------------------------
 Center     Atomic     Atomic              Coordinates (Angstroms)
 Number     Number      Type              X           Y           Z
 ---------------------------------------------------------------------
    1          1             0       -1.905933    0.000000   -1.198477
    2          6             0       -0.949561    0.000000   -0.684141
    3          1             0        0.694096    0.000000   -2.205852
    4          6             0        0.376567    0.000000   -1.168409
    5          1             0        2.289225    0.000000    0.090655
    6          6             0        1.205248    0.000000    0.014272
    7          7             0        0.458058    0.000000    1.159911
    8          1             0       -1.612671    0.000000    1.376460
    9          7             0       -0.853723    0.000000    0.702958
 ---------------------------------------------------------------------
                    Distance matrix (angstroms):
                    1          2          3          4          5
     1  H    0.000000
     2  C    1.085905   0.000000
     3  H    2.788361   2.239913   0.000000
     4  C    2.282699   1.411783   1.084948   0.000000
     5  H    4.388760   3.330172   2.796136   2.289869   0.000000
     6  C    3.339193   2.265167   2.278207   1.444107   1.086665
     7  N    3.339229   2.319896   3.374030   2.329745   2.120492
     8  H    2.591583   2.164669   4.260767   3.230081   4.108295
     9  N    2.173154   1.390406   3.294983   2.239559   3.202036
                    6          7          8          9
     6  C    0.000000
     7  N    1.367765   0.000000
     8  H    3.129891   2.082021   0.000000
     9  N    2.171093   1.389091   1.014696   0.000000
 Stoichiometry    C3H4N2
 Framework group  CS[SG(C3H4N2)]
 Deg. of freedom   15
 Full point group                 CS      NOp   2
 Largest Abelian subgroup         CS      NOp   2
 Largest concise Abelian subgroup C1      NOp   1
                         Standard orientation:                         
 ---------------------------------------------------------------------
 Center     Atomic     Atomic              Coordinates (Angstroms)
 Number     Number      Type              X           Y           Z
 ---------------------------------------------------------------------
    1          1             0        2.137092    0.711506    0.000000
    2          6             0        1.132525    0.299153    0.000000
    3          1             0        1.264668   -1.936859    0.000000
    4          6             0        0.664730   -1.032875    0.000000
    5          1             0       -1.522351   -1.711239    0.000000
    6          6             0       -0.775134   -0.922247    0.000000
    7          7             0       -1.185878    0.382387    0.000000
    8          1             0       -0.038504    2.119725    0.000000
    9          7             0        0.000000    1.105760    0.000000
 ---------------------------------------------------------------------
 Rotational constants (GHZ):      9.2013890      8.9996883      4.5497105
 Isotopes: H-1,C-12,H-1,C-12,H-1,C-12,N-14,H-1,N-14
 Standard basis: CEP-31G (6D, 10F)
 There are    38 symmetry adapted basis functions of A'  symmetry.
 There are    10 symmetry adapted basis functions of A"  symmetry.
 Crude estimate of integral set expansion from redundant integrals=1.000.
 Integral buffers will be    262144 words long.
 Raffenetti 2 integral format.
 Two-electron integral symmetry is turned on.
    48 basis functions       96 primitive gaussians
    13 alpha electrons       13 beta electrons
       nuclear repulsion energy        82.8361906787 Hartrees.
 One-electron integrals computed using PRISM.
   1 Symmetry operations used in ECPInt.
 ECPInt:  NShTT=     171 NPrTT=     693 LenC2=     172 LenP2D=     642.
 LDataN:  DoStor=F MaxTD1= 2 Len=   12
 LDataN:  DoStor=T MaxTD1= 2 Len=   12
 NBasis=    48 RedAO= T  NBF=    38    10
 NBsUse=    48 1.00D-04 NBFU=    38    10
 Initial guess read from the read-write file:
 Initial guess orbital symmetries:
       Occupied  (A') (A') (A') (A') (A') (A') (A') (A') (A") (A')
                 (A') (A") (A")
       Virtual   (A") (A") (A') (A') (A') (A') (A') (A') (A') (A')
                 (A') (A") (A') (A") (A') (A') (A") (A') (A") (A')
                 (A') (A") (A') (A') (A') (A') (A') (A') (A') (A')
                 (A') (A') (A') (A') (A')
 Requested convergence on RMS density matrix=1.00D-08 within  64 cycles.
 Requested convergence on MAX density matrix=1.00D-06.
 Keep R1 and R2 integrals in memory in canonical form, NReq=     1796396.
 SCF Done:  E(RB+HF-LYP) =  -39.0593654636     A.U. after   11 cycles
             Convg  =    0.2384D-08             -V/T =  2.3232
             S**2   =   0.0000
   2 Symmetry operations used in ECPInt.
 ECPInt:  NShTT=     171 NPrTT=     693 LenC2=     172 LenP2D=     642.
 LDataN:  DoStor=F MaxTD1= 3 Len=   28
 LDataN:  DoStor=T MaxTD1= 3 Len=   28
 ***** Axes restored to original set *****
 -------------------------------------------------------------------
 Center     Atomic                   Forces (Hartrees/Bohr)
 Number     Number              X              Y              Z
 -------------------------------------------------------------------
    1          1           0.000040869    0.000000000    0.000025003
    2          6           0.001729202    0.000000000    0.000853669
    3          1           0.000139580    0.000000000    0.000051390
    4          6          -0.000649652    0.000000000   -0.000414951
    5          1          -0.000057148    0.000000000    0.000080310
    6          6          -0.002218016    0.000000000    0.000833830
    7          7           0.004833200    0.000000000    0.000974411
    8          1           0.000502968    0.000000000    0.000312902
    9          7          -0.004321003    0.000000000   -0.002716564
 -------------------------------------------------------------------
 Cartesian Forces:  Max     0.004833200 RMS     0.001499050

 GradGradGradGradGradGradGradGradGradGradGradGradGradGradGradGradGradGrad
 Berny optimization.
 Internal  Forces:  Max     0.003425664 RMS     0.000726898
 Search for a local minimum.
 Step number   5 out of a maximum of  48
 All quantities printed in internal units (Hartrees-Bohrs-Radians)
 Update second derivatives using information from points  2  3  4  5
 Trust test= 1.24D+00 RLast= 2.73D-02 DXMaxT set to 4.24D-01
     Eigenvalues ---    0.03203   0.03247   0.03251   0.03273   0.03341
     Eigenvalues ---    0.03373   0.15493   0.15799   0.16006   0.16218
     Eigenvalues ---    0.20983   0.35138   0.36777   0.47651   0.49568
     Eigenvalues ---    0.49721   0.58327   0.60196   0.62394   0.69598
     Eigenvalues ---    0.755091000.000001000.000001000.000001000.00000
     Eigenvalues --- 1000.000001000.000001000.000001000.000001000.00000
     Eigenvalues --- 1000.000001000.000001000.000001000.000001000.00000
     Eigenvalues --- 1000.000001000.000001000.00000
 RFO step:  Lambda=-3.52752967D-05.
 Quartic linear search produced a step of  0.32114.
 Iteration  1 RMS(Cart)=  0.00188140 RMS(Int)=  0.00000463
 Iteration  2 RMS(Cart)=  0.00000386 RMS(Int)=  0.00000315
 Iteration  3 RMS(Cart)=  0.00000000 RMS(Int)=  0.00000315
 Variable       Old X    -DE/DX   Delta X   Delta X   Delta X     New X
                                 (Linear)    (Quad)   (Total)
    R1        2.05206  -0.00005  -0.00137   0.00046  -0.00091   2.05115
    R2        2.66788  -0.00096  -0.00282  -0.00039  -0.00321   2.66467
    R3        2.62749  -0.00088   0.00026  -0.00104  -0.00078   2.62670
    R4        2.05026  -0.00001  -0.00146   0.00052  -0.00093   2.04932
    R5        2.72897  -0.00004   0.00030  -0.00023   0.00007   2.72903
    R6        2.05350  -0.00005  -0.00165   0.00074  -0.00091   2.05259
    R7        2.58470  -0.00145  -0.00083  -0.00156  -0.00238   2.58232
    R8        2.62500   0.00343   0.00400   0.00609   0.01009   2.63509
    R9        1.91750  -0.00017  -0.00118   0.00033  -0.00085   1.91665
    A1        2.29804  -0.00024  -0.00032  -0.00108  -0.00139   2.29665
    A2        2.13321  -0.00025   0.00061  -0.00262  -0.00200   2.13120
    A3        1.85194   0.00048  -0.00029   0.00369   0.00339   1.85534
    A4        2.21794   0.00021   0.00020   0.00248   0.00269   2.22063
    A5        1.83185  -0.00013  -0.00048  -0.00162  -0.00210   1.82975
    A6        2.23340  -0.00009   0.00027  -0.00086  -0.00059   2.23281
    A7        2.25233  -0.00049  -0.00198  -0.00071  -0.00269   2.24964
    A8        1.95249   0.00114   0.00339   0.00141   0.00481   1.95730
    A9        2.07837  -0.00065  -0.00141  -0.00070  -0.00212   2.07625
   A10        1.81352  -0.00116  -0.00449   0.00052  -0.00396   1.80956
   A11        1.97498  -0.00033   0.00187  -0.00400  -0.00214   1.97284
   A12        2.22763   0.00071  -0.00053   0.00536   0.00483   2.23246
   A13        2.08057  -0.00038  -0.00134  -0.00136  -0.00269   2.07788
    D1        0.00000   0.00000   0.00000   0.00000   0.00000   0.00000
    D2        3.14159   0.00000   0.00000   0.00000   0.00000   3.14159
    D3        3.14159   0.00000   0.00000   0.00000   0.00000   3.14159
    D4        0.00000   0.00000   0.00000   0.00000   0.00000   0.00000
    D5        3.14159   0.00000   0.00000   0.00000   0.00000   3.14159
    D6        0.00000   0.00000   0.00000   0.00000   0.00000   0.00000
    D7        0.00000   0.00000   0.00000   0.00000   0.00000   0.00000
    D8        3.14159   0.00000   0.00000   0.00000   0.00000   3.14159
    D9        3.14159   0.00000   0.00000   0.00000   0.00000   3.14159
   D10        0.00000   0.00000   0.00000   0.00000   0.00000   0.00000
   D11        0.00000   0.00000   0.00000   0.00000   0.00000   0.00000
   D12        3.14159   0.00000   0.00000   0.00000   0.00000   3.14159
   D13        0.00000   0.00000   0.00000   0.00000   0.00000   0.00000
   D14        3.14159   0.00000   0.00000   0.00000   0.00000   3.14159
   D15        0.00000   0.00000   0.00000   0.00000   0.00000   0.00000
   D16        3.14159   0.00000   0.00000   0.00000   0.00000   3.14159
         Item               Value     Threshold  Converged?
 Maximum Force            0.003426     0.000450     NO 
 RMS     Force            0.000727     0.000300     NO 
 Maximum Displacement     0.005375     0.001800     NO 
 RMS     Displacement     0.001881     0.001200     NO 
 Predicted change in Energy=-3.169383D-05
 GradGradGradGradGradGradGradGradGradGradGradGradGradGradGradGradGradGrad

                          Input orientation:                          
 ---------------------------------------------------------------------
 Center     Atomic     Atomic              Coordinates (Angstroms)
 Number     Number      Type              X           Y           Z
 ---------------------------------------------------------------------
    1          1             0       -1.904492    0.000000   -1.199780
    2          6             0       -0.948774    0.000000   -0.685243
    3          1             0        0.694499    0.000000   -2.206587
    4          6             0        0.375302    0.000000   -1.170171
    5          1             0        2.286244    0.000000    0.088192
    6          6             0        1.202629    0.000000    0.013500
    7          7             0        0.460309    0.000000    1.160798
    8          1             0       -1.613377    0.000000    1.376679
    9          7             0       -0.856369    0.000000    0.701674
 ---------------------------------------------------------------------
                    Distance matrix (angstroms):
                    1          2          3          4          5
     1  H    0.000000
     2  C    1.085423   0.000000
     3  H    2.787187   2.239383   0.000000
     4  C    2.279986   1.410083   1.084455   0.000000
     5  H    4.384192   3.326191   2.792787   2.288051   0.000000
     6  C    3.335603   2.262030   2.277495   1.444143   1.086186
     7  N    3.341349   2.322366   3.375519   2.332519   2.117670
     8  H    2.592854   2.166384   4.262170   3.231299   4.106976
     9  N    2.171195   1.389992   3.295932   2.240718   3.201933
                    6          7          8          9
     6  C    0.000000
     7  N    1.366504   0.000000
     8  H    3.128602   2.084893   0.000000
     9  N    2.170958   1.394430   1.014246   0.000000
 Stoichiometry    C3H4N2
 Framework group  CS[SG(C3H4N2)]
 Deg. of freedom   15
 Full point group                 CS      NOp   2
 Largest Abelian subgroup         CS      NOp   2
 Largest concise Abelian subgroup C1      NOp   1
                         Standard orientation:                         
 ---------------------------------------------------------------------
 Center     Atomic     Atomic              Coordinates (Angstroms)
 Number     Number      Type              X           Y           Z
 ---------------------------------------------------------------------
    1          1             0        2.135105    0.712789    0.000000
    2          6             0        1.131415    0.299568    0.000000
    3          1             0        1.266866   -1.935715    0.000000
    4          6             0        0.667427   -1.031991    0.000000
    5          1             0       -1.517007   -1.712746    0.000000
    6          6             0       -0.772509   -0.921846    0.000000
    7          7             0       -1.189576    0.379457    0.000000
    8          1             0       -0.042414    2.120376    0.000000
    9          7             0        0.000000    1.107018    0.000000
 ---------------------------------------------------------------------
 Rotational constants (GHZ):      9.2068900      8.9858673      4.5475180
 Isotopes: H-1,C-12,H-1,C-12,H-1,C-12,N-14,H-1,N-14
 Standard basis: CEP-31G (6D, 10F)
 There are    38 symmetry adapted basis functions of A'  symmetry.
 There are    10 symmetry adapted basis functions of A"  symmetry.
 Crude estimate of integral set expansion from redundant integrals=1.000.
 Integral buffers will be    262144 words long.
 Raffenetti 2 integral format.
 Two-electron integral symmetry is turned on.
    48 basis functions       96 primitive gaussians
    13 alpha electrons       13 beta electrons
       nuclear repulsion energy        82.8161197227 Hartrees.
 One-electron integrals computed using PRISM.
   1 Symmetry operations used in ECPInt.
 ECPInt:  NShTT=     171 NPrTT=     693 LenC2=     172 LenP2D=     642.
 LDataN:  DoStor=F MaxTD1= 2 Len=   12
 LDataN:  DoStor=T MaxTD1= 2 Len=   12
 NBasis=    48 RedAO= T  NBF=    38    10
 NBsUse=    48 1.00D-04 NBFU=    38    10
 Initial guess read from the read-write file:
 Initial guess orbital symmetries:
       Occupied  (A') (A') (A') (A') (A') (A') (A') (A') (A") (A')
                 (A') (A") (A")
       Virtual   (A") (A") (A') (A') (A') (A') (A') (A') (A') (A')
                 (A') (A") (A') (A") (A') (A') (A") (A') (A") (A')
                 (A') (A") (A') (A') (A') (A') (A') (A') (A') (A')
                 (A') (A') (A') (A') (A')
 Requested convergence on RMS density matrix=1.00D-08 within  64 cycles.
 Requested convergence on MAX density matrix=1.00D-06.
 Keep R1 and R2 integrals in memory in canonical form, NReq=     1796396.
 SCF Done:  E(RB+HF-LYP) =  -39.0594014206     A.U. after   10 cycles
             Convg  =    0.5554D-08             -V/T =  2.3234
             S**2   =   0.0000
   2 Symmetry operations used in ECPInt.
 ECPInt:  NShTT=     171 NPrTT=     693 LenC2=     172 LenP2D=     642.
 LDataN:  DoStor=F MaxTD1= 3 Len=   28
 LDataN:  DoStor=T MaxTD1= 3 Len=   28
 ***** Axes restored to original set *****
 -------------------------------------------------------------------
 Center     Atomic                   Forces (Hartrees/Bohr)
 Number     Number              X              Y              Z
 -------------------------------------------------------------------
    1          1          -0.000314905    0.000000000   -0.000201853
    2          6          -0.000024217    0.000000000    0.001227231
    3          1           0.000120438    0.000000000   -0.000253795
    4          6           0.000209481    0.000000000    0.000334087
    5          1           0.000418523    0.000000000    0.000070388
    6          6          -0.000691287    0.000000000    0.000468471
    7          7           0.001188896    0.000000000   -0.000321126
    8          1          -0.000024986    0.000000000    0.000276866
    9          7          -0.000881942    0.000000000   -0.001600269
 -------------------------------------------------------------------
 Cartesian Forces:  Max     0.001600269 RMS     0.000533716

 GradGradGradGradGradGradGradGradGradGradGradGradGradGradGradGradGradGrad
 Berny optimization.
 Internal  Forces:  Max     0.000985011 RMS     0.000283950
 Search for a local minimum.
 Step number   6 out of a maximum of  48
 All quantities printed in internal units (Hartrees-Bohrs-Radians)
 Update second derivatives using information from points  2  3  4  5  6

 Trust test= 1.13D+00 RLast= 1.54D-02 DXMaxT set to 4.24D-01
     Eigenvalues ---    0.03203   0.03247   0.03251   0.03273   0.03341
     Eigenvalues ---    0.03372   0.15005   0.15545   0.16003   0.16120
     Eigenvalues ---    0.22117   0.31964   0.35858   0.47860   0.49580
     Eigenvalues ---    0.49765   0.58359   0.60133   0.62538   0.68665
     Eigenvalues ---    0.774211000.000001000.000001000.000001000.00000
     Eigenvalues --- 1000.000001000.000001000.000001000.000001000.00000
     Eigenvalues --- 1000.000001000.000001000.000001000.000001000.00000
     Eigenvalues --- 1000.000001000.000001000.00000
 RFO step:  Lambda=-4.96569525D-06.
 Quartic linear search produced a step of  0.16731.
 Iteration  1 RMS(Cart)=  0.00054753 RMS(Int)=  0.00000041
 Iteration  2 RMS(Cart)=  0.00000038 RMS(Int)=  0.00000013
 Variable       Old X    -DE/DX   Delta X   Delta X   Delta X     New X
                                 (Linear)    (Quad)   (Total)
    R1        2.05115   0.00037  -0.00015   0.00078   0.00063   2.05178
    R2        2.66467   0.00040  -0.00054   0.00068   0.00014   2.66481
    R3        2.62670  -0.00099  -0.00013  -0.00128  -0.00141   2.62530
    R4        2.04932   0.00028  -0.00016   0.00054   0.00039   2.04971
    R5        2.72903  -0.00005   0.00001   0.00002   0.00003   2.72907
    R6        2.05259   0.00042  -0.00015   0.00087   0.00072   2.05331
    R7        2.58232  -0.00075  -0.00040  -0.00098  -0.00138   2.58094
    R8        2.63509   0.00090   0.00169   0.00120   0.00289   2.63798
    R9        1.91665   0.00020  -0.00014   0.00033   0.00019   1.91683
    A1        2.29665   0.00002  -0.00023   0.00018  -0.00005   2.29659
    A2        2.13120   0.00007  -0.00034   0.00056   0.00022   2.13142
    A3        1.85534  -0.00010   0.00057  -0.00074  -0.00017   1.85517
    A4        2.22063  -0.00002   0.00045  -0.00023   0.00022   2.22085
    A5        1.82975   0.00012  -0.00035   0.00077   0.00042   1.83017
    A6        2.23281  -0.00010  -0.00010  -0.00054  -0.00064   2.23217
    A7        2.24964   0.00008  -0.00045   0.00054   0.00009   2.24972
    A8        1.95730  -0.00008   0.00080  -0.00059   0.00022   1.95752
    A9        2.07625   0.00000  -0.00035   0.00005  -0.00031   2.07595
   A10        1.80956   0.00006  -0.00066   0.00020  -0.00046   1.80910
   A11        1.97284   0.00000  -0.00036   0.00034  -0.00002   1.97282
   A12        2.23246   0.00019   0.00081   0.00084   0.00165   2.23411
   A13        2.07788  -0.00018  -0.00045  -0.00118  -0.00163   2.07625
    D1        0.00000   0.00000   0.00000   0.00000   0.00000   0.00000
    D2        3.14159   0.00000   0.00000   0.00000   0.00000   3.14159
    D3        3.14159   0.00000   0.00000   0.00000   0.00000   3.14159
    D4        0.00000   0.00000   0.00000   0.00000   0.00000   0.00000
    D5        3.14159   0.00000   0.00000   0.00000   0.00000   3.14159
    D6        0.00000   0.00000   0.00000   0.00000   0.00000   0.00000
    D7        0.00000   0.00000   0.00000   0.00000   0.00000   0.00000
    D8        3.14159   0.00000   0.00000   0.00000   0.00000   3.14159
    D9        3.14159   0.00000   0.00000   0.00000   0.00000   3.14159
   D10        0.00000   0.00000   0.00000   0.00000   0.00000   0.00000
   D11        0.00000   0.00000   0.00000   0.00000   0.00000   0.00000
   D12        3.14159   0.00000   0.00000   0.00000   0.00000   3.14159
   D13        0.00000   0.00000   0.00000   0.00000   0.00000   0.00000
   D14        3.14159   0.00000   0.00000   0.00000   0.00000   3.14159
   D15        0.00000   0.00000   0.00000   0.00000   0.00000   0.00000
   D16        3.14159   0.00000   0.00000   0.00000   0.00000   3.14159
         Item               Value     Threshold  Converged?
 Maximum Force            0.000985     0.000450     NO 
 RMS     Force            0.000284     0.000300     YES
 Maximum Displacement     0.001508     0.001800     YES
 RMS     Displacement     0.000548     0.001200     YES
 Predicted change in Energy=-3.244789D-06
 GradGradGradGradGradGradGradGradGradGradGradGradGradGradGradGradGradGrad

                          Input orientation:                          
 ---------------------------------------------------------------------
 Center     Atomic     Atomic              Coordinates (Angstroms)
 Number     Number      Type              X           Y           Z
 ---------------------------------------------------------------------
    1          1             0       -1.905018    0.000000   -1.200380
    2          6             0       -0.949170    0.000000   -0.685382
    3          1             0        0.694860    0.000000   -2.206446
    4          6             0        0.375103    0.000000   -1.169988
    5          1             0        2.286629    0.000000    0.088203
    6          6             0        1.202629    0.000000    0.013565
    7          7             0        0.461138    0.000000    1.160532
    8          1             0       -1.612977    0.000000    1.377047
    9          7             0       -0.856946    0.000000    0.700800
 ---------------------------------------------------------------------
                    Distance matrix (angstroms):
                    1          2          3          4          5
     1  H    0.000000
     2  C    1.085756   0.000000
     3  H    2.787747   2.239748   0.000000
     4  C    2.280323   1.410156   1.084661   0.000000
     5  H    4.385242   3.326985   2.792694   2.288445   0.000000
     6  C    3.336334   2.262469   2.277339   1.444159   1.086567
     7  N    3.342543   2.323009   3.375080   2.332108   2.117146
     8  H    2.593919   2.166622   4.262339   3.231075   4.107072
     9  N    2.170931   1.389247   3.295479   2.240043   3.202707
                    6          7          8          9
     6  C    0.000000
     7  N    1.365776   0.000000
     8  H    3.128373   2.085385   0.000000
     9  N    2.171207   1.395957   1.014344   0.000000
 Stoichiometry    C3H4N2
 Framework group  CS[SG(C3H4N2)]
 Deg. of freedom   15
 Full point group                 CS      NOp   2
 Largest Abelian subgroup         CS      NOp   2
 Largest concise Abelian subgroup C1      NOp   1
                         Standard orientation:                         
 ---------------------------------------------------------------------
 Center     Atomic     Atomic              Coordinates (Angstroms)
 Number     Number      Type              X           Y           Z
 ---------------------------------------------------------------------
    1          1             0        2.135170    0.714609    0.000000
    2          6             0        1.131367    0.300790    0.000000
    3          1             0        1.267877   -1.934794    0.000000
[...]
 Frc consts  --     6.9394                 7.1121                 8.7461
 IR Inten    --     5.9015                 1.6535                67.5638
 Raman Activ --     0.0000                 0.0000                 0.0000
 Depolar     --     0.0000                 0.0000                 0.0000
 Atom AN      X      Y      Z        X      Y      Z        X      Y      Z
   1   1     0.65   0.27   0.00    -0.50  -0.21   0.00     0.02   0.00   0.00
   2   6    -0.06  -0.02   0.00     0.05   0.02   0.00     0.00   0.00   0.00
   3   1    -0.10   0.14   0.00    -0.42   0.63   0.00     0.00   0.00   0.00
   4   6     0.01  -0.01   0.00     0.04  -0.06   0.00     0.00   0.00   0.00
   5   1     0.47   0.50   0.00     0.25   0.26   0.00     0.00   0.00   0.00
   6   6    -0.04  -0.05   0.00    -0.03  -0.02   0.00     0.00   0.00   0.00
   7   7     0.00   0.00   0.00     0.00   0.00   0.00     0.00   0.00   0.00
   8   1     0.00  -0.01   0.00     0.00   0.02   0.00    -0.05   1.00   0.00
   9   7     0.00   0.00   0.00     0.00   0.00   0.00     0.00  -0.08   0.00

 -------------------
 - Thermochemistry -
 -------------------
 Temperature   298.150 Kelvin.  Pressure   1.00000 Atm.
 Atom  1 has atomic number  1 and mass   1.00783
 Atom  2 has atomic number  6 and mass  12.00000
 Atom  3 has atomic number  1 and mass   1.00783
 Atom  4 has atomic number  6 and mass  12.00000
 Atom  5 has atomic number  1 and mass   1.00783
 Atom  6 has atomic number  6 and mass  12.00000
 Atom  7 has atomic number  7 and mass  14.00307
 Atom  8 has atomic number  1 and mass   1.00783
 Atom  9 has atomic number  7 and mass  14.00307
 Molecular mass:    68.03745 amu.
 Principal axes and moments of inertia in atomic units:
                           1         2         3
     EIGENVALUES --   196.04054 200.85422 396.89476
           X            0.96484   0.26284   0.00000
           Y           -0.26284   0.96484   0.00000
           Z            0.00000   0.00000   1.00000
 THIS MOLECULE IS AN ASYMMETRIC TOP.
 ROTATIONAL SYMMETRY NUMBER  1.
 ROTATIONAL TEMPERATURES (KELVIN)      0.44181     0.43123     0.21823
 ROTATIONAL CONSTANTS (GHZ)            9.20596     8.98533     4.54715
 Zero-point vibrational energy     186677.6 (Joules/Mol)
                                   44.61703 (Kcal/Mol)
 WARNING-- EXPLICIT CONSIDERATION OF   1 DEGREES OF FREEDOM AS
           VIBRATIONS MAY CAUSE SIGNIFICANT ERROR
 VIBRATIONAL TEMPERATURES:    850.30   914.65   965.41  1131.41  1261.46
          (KELVIN)           1305.67  1316.93  1334.48  1459.82  1517.66
                             1625.09  1653.43  1807.54  1953.23  2031.97
                             2074.99  2219.22  4698.49  4711.75  4743.92
                             5326.65
 
 Zero-point correction=                           0.071102 (Hartree/Particle)
 Thermal correction to Energy=                    0.074806
 Thermal correction to Enthalpy=                  0.075750
 Thermal correction to Gibbs Free Energy=         0.044790
 Sum of electronic and zero-point Energies=            -38.988303
 Sum of electronic and thermal Energies=               -38.984599
 Sum of electronic and thermal Enthalpies=             -38.983655
 Sum of electronic and thermal Free Energies=          -39.014615
 
                     E (Thermal)             CV                S
                      KCAL/MOL        CAL/MOL-KELVIN    CAL/MOL-KELVIN
 TOTAL                   46.941             13.224             65.161
 ELECTRONIC               0.000              0.000              0.000
 TRANSLATIONAL            0.889              2.981             38.570
 ROTATIONAL               0.889              2.981             24.262
 VIBRATIONAL             45.164              7.262              2.329
 VIBRATION  1             0.948              1.051              0.465
                       Q            LOG10(Q)             LN(Q)
 TOTAL BOT       0.250160D-20        -20.601783        -47.437358
 TOTAL V=0       0.126629D+13         12.102533         27.867112
 VIB (BOT)       0.253416D-32        -32.596166        -75.055446
 VIB (BOT)  1    0.255001D+00         -0.593459         -1.366490
 VIB (V=0)       0.128277D+01          0.108150          0.249024
 VIB (V=0)  1    0.106127D+01          0.025826          0.059467
 ELECTRONIC      0.100000D+01          0.000000          0.000000
 TRANSLATIONAL   0.220588D+08          7.343582         16.909224
 ROTATIONAL      0.447508D+05          4.650800         10.708864
 ***** Axes restored to original set *****
 -------------------------------------------------------------------
 Center     Atomic                   Forces (Hartrees/Bohr)
 Number     Number              X              Y              Z
 -------------------------------------------------------------------
    1          1          -0.000095495    0.000000000   -0.000101442
    2          6          -0.000048870    0.000000000    0.000777036
    3          1           0.000037598    0.000000000   -0.000133707
    4          6           0.000335677    0.000000000   -0.000059210
    5          1           0.000166092    0.000000000    0.000001884
    6          6          -0.000260415    0.000000000    0.000077872
    7          7           0.000040978    0.000000000   -0.000173229
    8          1          -0.000045048    0.000000000    0.000108668
    9          7          -0.000130515    0.000000000   -0.000497873
 -------------------------------------------------------------------
 Cartesian Forces:  Max     0.000777036 RMS     0.000208430

 GradGradGradGradGradGradGradGradGradGradGradGradGradGradGradGradGradGrad
 Berny optimization.
 Internal  Forces:  Max     0.000441021 RMS     0.000111647
 Search for a local minimum.
 Step number   1 out of a maximum of  48
 All quantities printed in internal units (Hartrees-Bohrs-Radians)
 Second derivative matrix not updated -- analytic derivatives used.
     Eigenvalues ---    0.00960   0.01332   0.01789   0.02940   0.05713
     Eigenvalues ---    0.06123   0.09399   0.10346   0.10924   0.11857
     Eigenvalues ---    0.21932   0.25902   0.32390   0.36312   0.37520
     Eigenvalues ---    0.37793   0.38048   0.41424   0.47103   0.48881
     Eigenvalues ---    0.534551000.000001000.000001000.000001000.00000
     Eigenvalues --- 1000.000001000.000001000.000001000.000001000.00000
     Eigenvalues --- 1000.000001000.000001000.000001000.000001000.00000
     Eigenvalues --- 1000.000001000.000001000.00000
 Angle between quadratic step and forces=  30.56 degrees.
 Linear search not attempted -- first point.
 Iteration  1 RMS(Cart)=  0.00027029 RMS(Int)=  0.00000010
 Iteration  2 RMS(Cart)=  0.00000011 RMS(Int)=  0.00000002
 Variable       Old X    -DE/DX   Delta X   Delta X   Delta X     New X
                                 (Linear)    (Quad)   (Total)
    R1        2.05178   0.00013   0.00000   0.00038   0.00038   2.05216
    R2        2.66481   0.00034   0.00000   0.00086   0.00086   2.66566
    R3        2.62530  -0.00044   0.00000  -0.00133  -0.00133   2.62397
    R4        2.04971   0.00014   0.00000   0.00034   0.00034   2.05006
    R5        2.72907  -0.00010   0.00000  -0.00020  -0.00020   2.72887
    R6        2.05331   0.00017   0.00000   0.00045   0.00045   2.05376
    R7        2.58094  -0.00010   0.00000  -0.00023  -0.00023   2.58072
    R8        2.63798   0.00003   0.00000   0.00027   0.00027   2.63824
    R9        1.91683   0.00011   0.00000   0.00020   0.00020   1.91703
    A1        2.29659  -0.00009   0.00000  -0.00095  -0.00095   2.29565
    A2        2.13142  -0.00001   0.00000   0.00049   0.00049   2.13192
    A3        1.85517   0.00010   0.00000   0.00045   0.00045   1.85562
    A4        2.22085   0.00005   0.00000  -0.00001  -0.00001   2.22084
    A5        1.83017  -0.00012   0.00000  -0.00053  -0.00053   1.82964
    A6        2.23217   0.00007   0.00000   0.00054   0.00054   2.23270
    A7        2.24972   0.00001   0.00000  -0.00010  -0.00010   2.24963
    A8        1.95752  -0.00004   0.00000   0.00010   0.00010   1.95762
    A9        2.07595   0.00003   0.00000  -0.00001  -0.00001   2.07594
   A10        1.80910   0.00012   0.00000   0.00013   0.00013   1.80922
   A11        1.97282  -0.00006   0.00000  -0.00016  -0.00016   1.97267
   A12        2.23411   0.00008   0.00000   0.00067   0.00067   2.23478
   A13        2.07625  -0.00002   0.00000  -0.00051  -0.00051   2.07574
    D1        0.00000   0.00000   0.00000   0.00000   0.00000   0.00000
    D2        3.14159   0.00000   0.00000   0.00000   0.00000   3.14159
    D3        3.14159   0.00000   0.00000   0.00000   0.00000   3.14159
    D4        0.00000   0.00000   0.00000   0.00000   0.00000   0.00000
    D5        3.14159   0.00000   0.00000   0.00000   0.00000   3.14159
    D6        0.00000   0.00000   0.00000   0.00000   0.00000   0.00000
    D7        0.00000   0.00000   0.00000   0.00000   0.00000   0.00000
    D8        3.14159   0.00000   0.00000   0.00000   0.00000   3.14159
    D9        3.14159   0.00000   0.00000   0.00000   0.00000   3.14159
   D10        0.00000   0.00000   0.00000   0.00000   0.00000   0.00000
   D11        0.00000   0.00000   0.00000   0.00000   0.00000   0.00000
   D12        3.14159   0.00000   0.00000   0.00000   0.00000   3.14159
   D13        0.00000   0.00000   0.00000   0.00000   0.00000   0.00000
   D14        3.14159   0.00000   0.00000   0.00000   0.00000   3.14159
   D15        0.00000   0.00000   0.00000   0.00000   0.00000   0.00000
   D16        3.14159   0.00000   0.00000   0.00000   0.00000   3.14159
         Item               Value     Threshold  Converged?
 Maximum Force            0.000441     0.000450     YES
 RMS     Force            0.000112     0.000300     YES
 Maximum Displacement     0.000966     0.001800     YES
 RMS     Displacement     0.000270     0.001200     YES
 Predicted change in Energy=-7.159375D-07
 Optimization completed.
    -- Stationary point found.
                         ----------------------------
                         !   Optimized Parameters   !
                         ! (Angstroms and Degrees)  !
 ------------------------                            -------------------------
 ! Name  Definition              Value          Derivative Info.             !
 -----------------------------------------------------------------------------
 ! R1    R(1,2)                  1.0858         -DE/DX =    0.0001           !
 ! R2    R(2,4)                  1.4102         -DE/DX =    0.0003           !
 ! R3    R(2,9)                  1.3892         -DE/DX =   -0.0004           !
 ! R4    R(3,4)                  1.0847         -DE/DX =    0.0001           !
 ! R5    R(4,6)                  1.4442         -DE/DX =   -0.0001           !
 ! R6    R(5,6)                  1.0866         -DE/DX =    0.0002           !
 ! R7    R(6,7)                  1.3658         -DE/DX =   -0.0001           !
 ! R8    R(7,9)                  1.396          -DE/DX =    0.               !
 ! R9    R(8,9)                  1.0143         -DE/DX =    0.0001           !
 ! A1    A(1,2,4)              131.5852         -DE/DX =   -0.0001           !
 ! A2    A(1,2,9)              122.1215         -DE/DX =    0.               !
 ! A3    A(4,2,9)              106.2933         -DE/DX =    0.0001           !
 ! A4    A(2,4,3)              127.2452         -DE/DX =    0.0001           !
 ! A5    A(2,4,6)              104.8611         -DE/DX =   -0.0001           !
 ! A6    A(3,4,6)              127.8937         -DE/DX =    0.0001           !
 ! A7    A(4,6,5)              128.8997         -DE/DX =    0.               !
 ! A8    A(4,6,7)              112.1574         -DE/DX =    0.               !
 ! A9    A(5,6,7)              118.9429         -DE/DX =    0.               !
 ! A10   A(6,7,9)              103.6537         -DE/DX =    0.0001           !
 ! A11   A(2,9,7)              113.0345         -DE/DX =   -0.0001           !
 ! A12   A(2,9,8)              128.0053         -DE/DX =    0.0001           !
 ! A13   A(7,9,8)              118.9602         -DE/DX =    0.               !
 ! D1    D(1,2,4,3)              0.             -DE/DX =    0.               !
 ! D2    D(1,2,4,6)            180.             -DE/DX =    0.               !
 ! D3    D(9,2,4,3)            180.             -DE/DX =    0.               !
 ! D4    D(9,2,4,6)              0.             -DE/DX =    0.               !
 ! D5    D(1,2,9,7)            180.             -DE/DX =    0.               !
 ! D6    D(1,2,9,8)              0.             -DE/DX =    0.               !
 ! D7    D(4,2,9,7)              0.             -DE/DX =    0.               !
 ! D8    D(4,2,9,8)            180.             -DE/DX =    0.               !
 ! D9    D(2,4,6,5)            180.             -DE/DX =    0.               !
 ! D10   D(2,4,6,7)              0.             -DE/DX =    0.               !
 ! D11   D(3,4,6,5)              0.             -DE/DX =    0.               !
 ! D12   D(3,4,6,7)            180.             -DE/DX =    0.               !
 ! D13   D(4,6,7,9)              0.             -DE/DX =    0.               !
 ! D14   D(5,6,7,9)            180.             -DE/DX =    0.               !
 ! D15   D(6,7,9,2)              0.             -DE/DX =    0.               !
 ! D16   D(6,7,9,8)            180.             -DE/DX =    0.               !
 -----------------------------------------------------------------------------
 GradGradGradGradGradGradGradGradGradGradGradGradGradGradGradGradGradGrad

 1\1\GINC-INDIUM\Freq\RB3LYP\CEP-31G\C3H4N2\RDJ3\10-Sep-2000\0\\#N GEOM
 =ALLCHECK GUESS=TCHECK RB3LYP/CEP-31G FREQ\\1H pyrazole C3H4N2 casno=2
 88131\\0,1\H,-1.9049674309,0.,-1.2002976365\C,-0.9491200984,0.,-0.6853
 001046\H,0.6949102801,0.,-2.2063634186\C,0.3751525895,0.,-1.1699060703
 \H,2.2866789339,0.,0.0882855772\C,1.2026786102,0.,0.0136466822\N,0.461
 1876513,0.,1.1606145364\H,-1.6129270744,0.,1.3771288642\N,-0.856895474
 ,0.,0.7008823805\\Version=IBM-RS6000-G98RevA.6\State=1-A'\HF=-39.05940
 52\RMSD=3.307e-09\RMSF=2.084e-04\Dipole=-0.8216646,0.,-0.5841151\Dipol
 eDeriv=-0.0136577,-0.0001383,-0.0605087,-0.0000317,0.2499877,-0.000016
 8,-0.0515558,-0.0000974,0.0840892,0.1162249,0.0000915,-0.152222,-0.000
 2547,-0.1405414,0.0004407,-0.3438995,-0.0000094,0.2300413,0.1100224,-0
 .0000824,0.0386834,0.0000796,0.2213998,-0.0000529,0.0421418,0.0002669,
 -0.0475848,-0.257977,0.0001368,-0.0109283,-0.0000698,-0.2583007,-0.000
 0355,-0.0390864,-0.000199,-0.0452079,-0.0560977,0.0000826,-0.0049701,0
 .0001364,0.1903768,-0.0000671,-0.0331193,-0.0000104,0.1042239,0.210346
 8,-0.000072,0.0705347,-0.0003717,-0.1201644,0.0006295,0.2168539,-0.000
 0642,0.1644949,0.0897867,-0.0001202,-0.1600266,0.0004927,-0.2055449,-0
 .0007757,-0.0475416,0.0000579,-0.4610455,0.2006228,0.0000916,-0.021089
 2,-0.0000279,0.3852391,0.0001053,-0.0294058,-0.0001009,0.2029663,-0.39
 92702,0.0000104,0.3005266,0.0000471,-0.3224517,-0.0002276,0.2856129,0.
 0001567,-0.2319771\Polar=50.8914992,0.0009077,19.9572754,-0.0748497,0.
 0017458,46.72426\PG=CS [SG(C3H4N2)]\NImag=0\\0.30234132,-0.00000091,0.
 02153339,0.13672715,-0.00000064,0.12433461,-0.30159914,0.00000102,-0.1
 2141187,0.85255385,0.00000794,-0.02881272,0.00000527,-0.00000771,0.123
 40993,-0.13086280,0.00000219,-0.12099451,0.09662783,0.00000804,0.60722
 672,0.00006107,-0.00000067,-0.00088309,0.00191829,0.00000151,0.0259700
 4,0.07652058,-0.00000017,-0.00272054,0.00000014,-0.00000049,-0.0000183
 1,-0.00000117,0.00000031,0.02417191,0.00076483,0.00000165,-0.00011082,
 -0.00639706,-0.00000381,0.00112300,-0.09359913,-0.00000114,0.34834223,
 -0.00335590,0.00000161,0.01137661,-0.34429848,-0.00000414,0.07736445,-
 0.08204877,0.00000057,0.08982215,0.60974762,0.00000043,0.00213361,-0.0
 0000009,0.00000030,-0.06512539,0.00000362,0.00000007,-0.03188728,-0.00
 000087,-0.00000020,0.12599768,-0.01589395,-0.00000032,0.01162704,0.098
 18864,-0.00000205,-0.13647399,0.08661776,0.00000117,-0.34063872,-0.121
 19082,0.00000171,0.82347447,-0.00036349,-0.00000025,0.00006904,-0.0005
 6640,0.00000215,-0.00018963,-0.00016921,-0.00000049,-0.00075012,-0.001
 31361,-0.00000003,0.00666693,0.37440889,-0.00000203,0.00059922,-0.0000
 0085,0.00000098,0.00517309,-0.00000848,-0.00000024,-0.00178743,0.00000
 197,-0.00000022,0.00104828,-0.00000256,0.00000054,0.02514169,-0.000972
 07,0.00000014,0.00112096,-0.00321524,-0.00000026,-0.00608714,0.0008947
 9,0.00000025,-0.00003968,-0.02097172,-0.00000025,0.00687807,0.02067317
 ,0.00000021,0.05495218,-0.00380578,0.00000064,0.00474338,-0.05466505,-
 0.00000522,-0.00558675,0.01151360,0.00000145,0.01321247,-0.17594689,0.
 00000055,-0.10126154,-0.36098137,0.00000001,-0.03296043,0.86405882,0.0
 0001259,0.00575330,0.00000845,-0.00000984,0.00922978,0.00000925,0.0000
 0358,-0.00073974,-0.00000923,-0.00001036,-0.06626977,-0.00000144,0.000
 00228,-0.03226856,-0.00000043,-0.00000756,0.13703726,0.00061728,-0.000
 00249,-0.00256082,-0.06019308,0.00001668,0.03278277,-0.01675163,-0.000
 00350,-0.00713738,-0.07494325,-0.00000066,-0.22710456,-0.02299297,-0.0
 0000087,-0.05774822,0.00647095,0.00002827,0.56614834,0.00089177,-0.000
 00210,0.00120657,-0.05087853,-0.00001182,-0.04430764,-0.00209928,0.000
 00272,-0.00099873,0.02160431,-0.00000098,0.03062312,-0.01156241,0.0000
 0479,0.02830408,-0.16548975,-0.00001311,0.13642524,0.44627412,-0.00001
 871,0.00515444,-0.00001290,0.00001434,0.01645227,-0.00000662,-0.000006
 92,0.00570679,0.00001762,0.00001938,0.02013119,0.00000126,-0.00000344,
 -0.00654116,0.00000049,0.00000849,-0.06687033,-0.00004137,0.00001096,0
 .09432226,0.00256199,0.00000017,-0.00449708,-0.01856636,-0.00001702,-0
 .06441834,-0.00568499,0.00000389,-0.00271721,-0.02922321,0.,-0.0749813
 2,-0.00567838,0.00000347,0.00465602,0.09020031,-0.00002650,-0.26735122
 ,-0.05284151,0.00003388,0.49957016,-0.00007416,0.00000238,0.00053844,0
 .00983699,0.00000945,-0.01006225,0.00073390,-0.00000192,-0.00000788,0.
 00153217,0.00000126,-0.00337064,-0.00041806,-0.00000498,0.00158071,-0.
 00725291,0.00001005,-0.00543193,-0.01550963,-0.00000752,0.02562129,0.2
 9925261,0.00000063,-0.00130778,0.00000024,-0.00000040,-0.00600967,0.00
 000212,-0.00000020,0.00190794,0.00000029,0.00000013,0.00377656,-0.0000
 0013,-0.00000016,0.00191940,-0.00000030,-0.00000233,0.00391530,0.00000
 438,-0.00000234,-0.00946427,-0.00000488,0.00000179,0.01486599,-0.00074
 143,-0.00000135,0.00007216,0.02545198,-0.00000808,-0.00461843,0.001167
 12,0.00000124,0.00011204,-0.00236559,-0.00000083,-0.00598254,-0.000534
 65,0.00000346,0.00107306,-0.00695476,-0.00000826,0.00057111,-0.0138581
 4,0.00000647,0.01321191,-0.20931996,-0.00000143,0.25228597,0.00590431,
 -0.00000172,-0.03236624,-0.11230152,0.00000784,-0.00895324,-0.00643019
 ,-0.00000199,-0.00204654,-0.02592045,-0.00000140,0.01962051,0.00096567
 ,0.00000114,0.00666671,-0.10743067,0.00001238,0.03679936,-0.22323059,-
 0.00001657,-0.00638913,-0.28810090,0.00000287,0.20715542,0.75654434,0.
 00000022,-0.00233293,0.00000038,0.00000182,-0.05429898,-0.00000896,0.0
 0000257,0.00536667,-0.00000648,-0.00000678,0.01019512,0.00000240,-0.00
 000060,0.00671547,0.00000014,0.00000395,0.01021277,-0.00000046,0.00001
 188,-0.05889119,0.00000700,-0.00001051,-0.00960348,0.00000877,-0.00000
 254,0.09263655,0.00779899,0.00000065,-0.00899155,-0.01048484,0.0000012
 3,-0.30854008,0.00226912,-0.00000089,0.00106655,0.07013138,-0.00000262
 ,-0.05679845,0.00273660,0.00000364,-0.00480525,0.03213637,-0.00000011,
 -0.03760004,-0.08455298,0.00000118,-0.10347290,0.20045222,-0.00000028,
 -0.25672526,-0.22048685,-0.00000280,0.77586700\\0.00009549,0.,0.000101
 44,0.00004887,0.,-0.00077704,-0.00003760,0.,0.00013371,-0.00033568,0.,
 0.00005921,-0.00016609,0.,-0.00000188,0.00026042,0.,-0.00007787,-0.000
 04098,0.,0.00017323,0.00004505,0.,-0.00010867,0.00013052,0.,0.00049787
 \\\@


 THE HURRIEDER I GO, THE BEHINDER I GET.
 Job cpu time:  0 days  0 hours  2 minutes 45.2 seconds.
 File lengths (MBytes):  RWF=   12 Int=    0 D2E=    0 Chk=    8 Scr=    1
 Normal termination of Gaussian 98.
