 Entering Gaussian System, Link 0=g98
 Initial command:
 /usr/local/apps/g98/g98/l1.exe /wrk/rdj3/Gau-30420.inp -scrdir=/wrk/rdj3/
 Entering Link 1 = /usr/local/apps/g98/g98/l1.exe PID=     30421.
  
 Copyright (c) 1988,1990,1992,1993,1995,1998 Gaussian, Inc.
                  All Rights Reserved.
  
 This is part of the Gaussian(R) 98 program.  It is based on
 the Gaussian 94(TM) system (copyright 1995 Gaussian, Inc.),
 the Gaussian 92(TM) system (copyright 1992 Gaussian, Inc.),
 the Gaussian 90(TM) system (copyright 1990 Gaussian, Inc.),
 the Gaussian 88(TM) system (copyright 1988 Gaussian, Inc.),
 the Gaussian 86(TM) system (copyright 1986 Carnegie Mellon
 University), and the Gaussian 82(TM) system (copyright 1983
 Carnegie Mellon University). Gaussian is a federally registered
 trademark of Gaussian, Inc.
  
 This software contains proprietary and confidential information,
 including trade secrets, belonging to Gaussian, Inc.
  
 This software is provided under written license and may be
 used, copied, transmitted, or stored only in accord with that
 written license.
  
 The following legend is applicable only to US Government
 contracts under DFARS:
  
                    RESTRICTED RIGHTS LEGEND
  
 Use, duplication or disclosure by the US Government is subject
 to restrictions as set forth in subparagraph (c)(1)(ii) of the
 Rights in Technical Data and Computer Software clause at DFARS
 252.227-7013.
  
 Gaussian, Inc.
 Carnegie Office Park, Building 6, Pittsburgh, PA 15106 USA
  
 The following legend is applicable only to US Government
 contracts under FAR:
  
                    RESTRICTED RIGHTS LEGEND
  
 Use, reproduction and disclosure by the US Government is subject
 to restrictions as set forth in subparagraph (c) of the
 Commercial Computer Software - Restricted Rights clause at FAR
 52.227-19.
  
 Gaussian, Inc.
 Carnegie Office Park, Building 6, Pittsburgh, PA 15106 USA
  
  
 ---------------------------------------------------------------
 Warning -- This program may not be used in any manner that
 competes with the business of Gaussian, Inc. or will provide
 assistance to any competitor of Gaussian, Inc.  The licensee
 of this program is prohibited from giving any competitor of
 Gaussian, Inc. access to this program.  By using this program,
 the user acknowledges that Gaussian, Inc. is engaged in the
 business of creating and licensing software in the field of
 computational chemistry and represents and warrants to the
 licensee that it is not a competitor of Gaussian, Inc. and that
 it will not use this program in any manner prohibited above.
 ---------------------------------------------------------------
  

 Cite this work as:
 Gaussian 98, Revision A.4,
 M. J. Frisch, G. W. Trucks, H. B. Schlegel, G. E. Scuseria, 
 M. A. Robb, J. R. Cheeseman, V. G. Zakrzewski, J. A. Montgomery, Jr., 
 R. E. Stratmann, J. C. Burant, S. Dapprich, J. M. Millam, 
 A. D. Daniels, K. N. Kudin, M. C. Strain, O. Farkas, J. Tomasi, 
 V. Barone, M. Cossi, R. Cammi, B. Mennucci, C. Pomelli, C. Adamo, 
 S. Clifford, J. Ochterski, G. A. Petersson, P. Y. Ayala, Q. Cui, 
 K. Morokuma, D. K. Malick, A. D. Rabuck, K. Raghavachari, 
 J. B. Foresman, J. Cioslowski, J. V. Ortiz, B. B. Stefanov, G. Liu, 
 A. Liashenko, P. Piskorz, I. Komaromi, R. Gomperts, R. L. Martin, 
 D. J. Fox, T. Keith, M. A. Al-Laham, C. Y. Peng, A. Nanayakkara, 
 C. Gonzalez, M. Challacombe, P. M. W. Gill, B. Johnson, W. Chen, 
 M. W. Wong, J. L. Andres, C. Gonzalez, M. Head-Gordon, 
 E. S. Replogle, and J. A. Pople, 
 Gaussian, Inc., Pittsburgh PA, 1998.

 *********************************************
 Gaussian 98:  x86-Linux-G98RevA.4 11-Sep-1998
                  11-Oct-1999 
 *********************************************
 %mem=24000000
 ---------------------
 #B3LYP/3-21G opt freq
 ---------------------
 1/14=-1,18=20,26=3,38=1/1,3;
 2/9=110,17=6,18=5/2;
 3/5=5,11=2,25=1,30=1/1,2,3;
 4//1;
 5/5=2,38=4,42=-5/2;
 6/7=2,8=2,9=2,10=2,28=1/1;
 7//1,2,3,16;
 1/14=-1,18=20/3(1);
 99//99;
 2/9=110/2;
 3/5=5,11=2,25=1,30=1/1,2,3;
 4/5=5,16=2/1;
 5/5=2,38=4,42=-5/2;
 7//1,2,3,16;
 1/14=-1,18=20/3(-5);
 2/9=110/2;
 6/7=2,8=2,9=2,10=2,19=2,28=1/1;
 99/9=1/99;
 -------------------------------
 1H pyrazole C3H4N2 casno=288131
 -------------------------------
 Symbolic Z-matrix:
 Charge =  0 Multiplicity = 1
 H                    -1.9125    0.       -0.75938 
 C                    -1.08438   0.       -0.21875 
 H                     0.43438   0.       -1.63125 
 C                     0.15      0.       -0.68438 
 H                     1.9125    0.        0.37188 
 C                     0.92188   0.        0.375 
 N                     0.18125   0.        1.41875 
 H                    -1.74063   0.        1.63125 
 N                    -1.00313   0.        1.05313 

 GradGradGradGradGradGradGradGradGradGradGradGradGradGradGradGradGradGrad
 Berny optimization.
 Initialization pass.
                         ----------------------------
                         !    Initial Parameters    !
                         ! (Angstroms and Degrees)  !
 ------------------------                            -------------------------
 ! Name  Definition              Value          Derivative Info.             !
 -----------------------------------------------------------------------------
 ! R1    R(1,2)                  0.989          estimate D2E/DX2             !
 ! R2    R(2,4)                  1.3193         estimate D2E/DX2             !
 ! R3    R(2,9)                  1.2745         estimate D2E/DX2             !
 ! R4    R(3,4)                  0.9887         estimate D2E/DX2             !
 ! R5    R(4,6)                  1.3108         estimate D2E/DX2             !
 ! R6    R(5,6)                  0.9906         estimate D2E/DX2             !
 ! R7    R(6,7)                  1.2798         estimate D2E/DX2             !
 ! R8    R(7,9)                  1.2395         estimate D2E/DX2             !
 ! R9    R(8,9)                  0.9371         estimate D2E/DX2             !
 ! A1    A(1,2,4)              126.195          estimate D2E/DX2             !
 ! A2    A(1,2,9)              126.7929         estimate D2E/DX2             !
 ! A3    A(4,2,9)              107.012          estimate D2E/DX2             !
 ! A4    A(2,4,3)              127.3838         estimate D2E/DX2             !
 ! A5    A(2,4,6)              105.4104         estimate D2E/DX2             !
 ! A6    A(3,4,6)              127.2058         estimate D2E/DX2             !
 ! A7    A(4,6,5)              125.8968         estimate D2E/DX2             !
 ! A8    A(4,6,7)              108.5636         estimate D2E/DX2             !
 ! A9    A(5,6,7)              125.5395         estimate D2E/DX2             !
 ! A10   A(6,7,9)              108.203          estimate D2E/DX2             !
 ! A11   A(2,9,7)              110.811          estimate D2E/DX2             !
 ! A12   A(2,9,8)              124.4376         estimate D2E/DX2             !
 ! A13   A(7,9,8)              124.7513         estimate D2E/DX2             !
 ! D1    D(1,2,4,3)              0.             estimate D2E/DX2             !
 ! D2    D(1,2,4,6)            180.             estimate D2E/DX2             !
 ! D3    D(9,2,4,3)            180.             estimate D2E/DX2             !
 ! D4    D(9,2,4,6)              0.             estimate D2E/DX2             !
 ! D5    D(1,2,9,7)            180.             estimate D2E/DX2             !
 ! D6    D(1,2,9,8)              0.             estimate D2E/DX2             !
 ! D7    D(4,2,9,7)              0.             estimate D2E/DX2             !
 ! D8    D(4,2,9,8)            180.             estimate D2E/DX2             !
 ! D9    D(2,4,6,5)            180.             estimate D2E/DX2             !
 ! D10   D(2,4,6,7)              0.             estimate D2E/DX2             !
 ! D11   D(3,4,6,5)              0.             estimate D2E/DX2             !
 ! D12   D(3,4,6,7)            180.             estimate D2E/DX2             !
 ! D13   D(4,6,7,9)              0.             estimate D2E/DX2             !
 ! D14   D(5,6,7,9)            180.             estimate D2E/DX2             !
 ! D15   D(6,7,9,2)              0.             estimate D2E/DX2             !
 ! D16   D(6,7,9,8)            180.             estimate D2E/DX2             !
 -----------------------------------------------------------------------------
 Trust Radius=3.00D-01 FncErr=1.00D-07 GrdErr=1.00D-06
 Number of steps in this run=  48 maximum allowed number of steps= 100.
 GradGradGradGradGradGradGradGradGradGradGradGradGradGradGradGradGradGrad

                          Input orientation:                          
 ---------------------------------------------------------------------
 Center     Atomic     Atomic              Coordinates (Angstroms)
 Number     Number      Type              X           Y           Z
 ---------------------------------------------------------------------
    1          1             0       -1.912500    0.000000   -0.759375
    2          6             0       -1.084375    0.000000   -0.218750
    3          1             0        0.434375    0.000000   -1.631250
    4          6             0        0.150000    0.000000   -0.684375
    5          1             0        1.912500    0.000000    0.371875
    6          6             0        0.921875    0.000000    0.375000
    7          7             0        0.181250    0.000000    1.418750
    8          1             0       -1.740625    0.000000    1.631250
    9          7             0       -1.003125    0.000000    1.053125
 ---------------------------------------------------------------------
                    Distance matrix (angstroms):
                    1          2          3          4          5
     1  H    0.000000
     2  C    0.988972   0.000000
     3  H    2.503595   2.074068   0.000000
     4  C    2.063863   1.319276   0.988656   0.000000
     5  H    3.988778   3.054521   2.489450   2.054768   0.000000
     6  C    3.052947   2.092266   2.064630   1.310750   0.990630
     7  N    3.021261   2.069592   3.060486   2.103357   2.023159
     8  H    2.396796   1.962948   3.921037   2.989412   3.864110
     9  N    2.027836   1.274468   3.045041   2.085331   2.994156
                    6          7          8          9
     6  C    0.000000
     7  N    1.279820   0.000000
     8  H    2.943989   1.933587   0.000000
     9  N    2.040950   1.239526   0.937088   0.000000
 Stoichiometry    C3H4N2
 Framework group  CS[SG(C3H4N2)]
 Deg. of freedom   15
 Full point group                 CS      NOp   2
 Largest Abelian subgroup         CS      NOp   2
 Largest concise Abelian subgroup C1      NOp   1
                         Standard orientation:                         
 ---------------------------------------------------------------------
 Center     Atomic     Atomic              Coordinates (Angstroms)
 Number     Number      Type              X           Y           Z
 ---------------------------------------------------------------------
    1          1             0        1.974407    0.585689    0.000000
    2          6             0        1.028833    0.295936    0.000000
    3          1             0        1.140941   -1.775099    0.000000
    4          6             0        0.595873   -0.950271    0.000000
    5          1             0       -1.344123   -1.627388    0.000000
    6          6             0       -0.712074   -0.864589    0.000000
    7          7             0       -1.039336    0.372682    0.000000
    8          1             0        0.028336    1.984773    0.000000
    9          7             0        0.000000    1.048113    0.000000
 ---------------------------------------------------------------------
 Rotational constants (GHZ):     11.1878032     10.4520048      5.4036973
 Isotopes: H-1,C-12,H-1,C-12,H-1,C-12,N-14,H-1,N-14
 Standard basis: 3-21G (6D, 7F)
 There are    43 symmetry adapted basis functions of A'  symmetry.
 There are    10 symmetry adapted basis functions of A"  symmetry.
 Crude estimate of integral set expansion from redundant integrals=1.000.
 Integral buffers will be    262144 words long.
 Raffenetti 2 integral format.
 Two-electron integral symmetry is turned on.
    53 basis functions       87 primitive gaussians
    18 alpha electrons       18 beta electrons
       nuclear repulsion energy       173.7391879471 Hartrees.
 One-electron integrals computed using PRISM.
 NBasis=    53 RedAO= T  NBF=    43    10
 NBsUse=    53 1.00D-04 NBFU=    43    10
 Projected INDO Guess.
 Initial guess orbital symmetries:
       Occupied  (A') (A') (A') (A') (A') (A') (A') (A') (A') (A')
                 (A') (A") (A') (A') (A') (A") (A') (A")
       Virtual   (A") (A') (A') (A") (A') (A') (A') (A') (A') (A')
                 (A') (A') (A') (A') (A') (A') (A') (A') (A') (A')
                 (A') (A') (A') (A') (A') (A') (A') (A') (A') (A')
                 (A") (A") (A") (A") (A")
 Requested convergence on RMS density matrix=1.00D-08 within  64 cycles.
 Requested convergence on MAX density matrix=1.00D-06.
 Keep R1 and R2 integrals in memory in canonical form, NReq=     2463126.
 Integral accuracy reduced to 1.0D-05 until final iterations.
 Initial convergence to 1.0D-05 achieved.  Increase integral accuracy.
 SCF Done:  E(RB+HF-LYP) =  -224.860243147     A.U. after   14 cycles
             Convg  =    0.7058D-08             -V/T =  1.9994
             S**2   =   0.0000

 **********************************************************************

            Population analysis using the SCF density.

 **********************************************************************

 Orbital Symmetries:
       Occupied  (A') (A') (A') (A') (A') (A') (A') (A') (A') (A')
                 (A') (A') (A") (A') (A') (A") (A') (A")
       Virtual   (A") (A") (A') (A') (A') (A') (A') (A') (A') (A')
                 (A') (A") (A') (A') (A") (A') (A") (A') (A') (A')
                 (A') (A") (A') (A") (A') (A') (A') (A') (A') (A')
                 (A') (A') (A') (A') (A')
  The electronic state is 1-A'.
 Alpha  occ. eigenvalues --  -14.32607 -14.23973 -10.12798 -10.10623 -10.08054
 Alpha  occ. eigenvalues --   -1.13728  -0.85446  -0.81134  -0.65199  -0.62609
 Alpha  occ. eigenvalues --   -0.56939  -0.48371  -0.48133  -0.44093  -0.40771
 Alpha  occ. eigenvalues --   -0.27209  -0.25004  -0.24431
 Alpha virt. eigenvalues --    0.06096   0.11407   0.12331   0.18898   0.20984
 Alpha virt. eigenvalues --    0.23775   0.28565   0.30445   0.38793   0.50520
 Alpha virt. eigenvalues --    0.54125   0.72113   0.74364   0.76327   0.77846
 Alpha virt. eigenvalues --    0.78214   0.83836   0.87246   0.93325   0.99496
 Alpha virt. eigenvalues --    1.04881   1.08715   1.09506   1.20115   1.22207
 Alpha virt. eigenvalues --    1.26082   1.27496   1.32153   1.41974   1.48434
 Alpha virt. eigenvalues --    1.62949   1.82127   1.86479   2.65326   2.87862
          Condensed to atoms (all electrons):
              1          2          3          4          5          6
  1  H    0.478315   0.381491  -0.001975  -0.036731  -0.000079   0.008386
  2  C    0.381491   5.241640  -0.050297   0.444804   0.006598  -0.113489
  3  H   -0.001975  -0.050297   0.509795   0.393512  -0.002173  -0.031463
  4  C   -0.036731   0.444804   0.393512   5.370253  -0.065600   0.376259
  5  H   -0.000079   0.006598  -0.002173  -0.065600   0.487656   0.407744
  6  C    0.008386  -0.113489  -0.031463   0.376259   0.407744   5.008066
  7  N    0.004077  -0.225489   0.008403  -0.060008  -0.043953   0.457182
  8  H   -0.000920  -0.050233  -0.000007   0.007299  -0.000023   0.005372
  9  N   -0.049342   0.126399   0.006946  -0.002903   0.004499  -0.257341
              7          8          9
  1  H    0.004077  -0.000920  -0.049342
  2  C   -0.225489  -0.050233   0.126399
  3  H    0.008403  -0.000007   0.006946
  4  C   -0.060008   0.007299  -0.002903
  5  H   -0.043953  -0.000023   0.004499
  6  C    0.457182   0.005372  -0.257341
  7  N    6.930363  -0.035459   0.283142
  8  H   -0.035459   0.373490   0.362508
  9  N    0.283142   0.362508   7.086140
 Total atomic charges:
              1
  1  H    0.216777
  2  C    0.238574
  3  H    0.167258
  4  C   -0.426887
  5  H    0.205330
  6  C    0.139283
  7  N   -0.318260
  8  H    0.337972
  9  N   -0.560049
 Sum of Mulliken charges=   0.00000
 Atomic charges with hydrogens summed into heavy atoms:
              1
  1  H    0.000000
  2  C    0.455352
  3  H    0.000000
  4  C   -0.259628
  5  H    0.000000
  6  C    0.344614
  7  N   -0.318260
  8  H    0.000000
  9  N   -0.222077
 Sum of Mulliken charges=   0.00000
 Electronic spatial extent (au):  <R**2>=   258.5650
 Charge=     0.0000 electrons
 Dipole moment (Debye):
    X=     2.0606    Y=     1.1171    Z=     0.0000  Tot=     2.3439
 Quadrupole moment (Debye-Ang):
   XX=   -29.7759   YY=   -21.9555   ZZ=   -30.5985
   XY=     2.4176   XZ=     0.0000   YZ=     0.0000
 Octapole moment (Debye-Ang**2):
  XXX=     7.5751  YYY=    11.5533  ZZZ=     0.0000  XYY=     0.4235
  XXY=    -1.9720  XXZ=     0.0000  XZZ=    -1.1214  YZZ=     2.3843
  YYZ=     0.0000  XYZ=     0.0000
 Hexadecapole moment (Debye-Ang**3):
 XXXX=  -146.2060 YYYY=  -118.3207 ZZZZ=   -28.3194 XXXY=     6.1939
 XXXZ=     0.0000 YYYX=    -0.3930 YYYZ=     0.0000 ZZZX=     0.0000
 ZZZY=     0.0000 XXYY=   -45.7546 XXZZ=   -31.3952 YYZZ=   -31.7155
 XXYZ=     0.0000 YYXZ=     0.0000 ZZXY=    -0.5454
 N-N= 1.737391879471D+02 E-N=-8.714357562563D+02  KE= 2.249977493231D+02
 Symmetry A'   KE= 2.167038899767D+02
 Symmetry A"   KE= 8.293859346396D+00
 ***** Axes restored to original set *****
 -------------------------------------------------------------------
 Center     Atomic                   Forces (Hartrees/Bohr)
 Number     Number              X              Y              Z
 -------------------------------------------------------------------
    1          1          -0.072484723    0.000000000   -0.038900742
    2          6          -0.031100326    0.000000000   -0.071370025
    3          1           0.021201367    0.000000000   -0.078861694
    4          6          -0.011909761    0.000000000   -0.052110620
    5          1           0.079440542    0.000000000    0.009789048
    6          6           0.028723136    0.000000000    0.015721338
    7          7           0.110360266    0.000000000    0.156683737
    8          1          -0.058051806    0.000000000    0.059848223
    9          7          -0.066178696    0.000000000   -0.000799266
 -------------------------------------------------------------------
 Cartesian Forces:  Max     0.156683737 RMS     0.053711956

 GradGradGradGradGradGradGradGradGradGradGradGradGradGradGradGradGradGrad
 Berny optimization.
 Internal  Forces:  Max     0.154070734 RMS     0.052251100
 Search for a local minimum.
 Step number   1 out of a maximum of  48
 All quantities printed in internal units (Hartrees-Bohrs-Radians)
 Second derivative matrix not updated -- first step.
     Eigenvalues ---    0.03204   0.03245   0.03263   0.03273   0.03342
     Eigenvalues ---    0.03375   0.16000   0.16000   0.16000   0.16000
     Eigenvalues ---    0.22000   0.22938   0.49374   0.49681   0.49740
     Eigenvalues ---    0.56490   0.56686   0.60708   0.68179   0.73042
     Eigenvalues ---    0.827791000.000001000.000001000.000001000.00000
     Eigenvalues --- 1000.000001000.000001000.000001000.000001000.00000
     Eigenvalues --- 1000.000001000.000001000.000001000.000001000.00000
     Eigenvalues --- 1000.000001000.000001000.00000
 RFO step:  Lambda=-1.32763512D-01.
 Linear search not attempted -- first point.
 Maximum step size (   0.300) exceeded in Quadratic search.
    -- Step size scaled by   0.708
 Iteration  1 RMS(Cart)=  0.06324101 RMS(Int)=  0.00062781
 Iteration  2 RMS(Cart)=  0.00076158 RMS(Int)=  0.00002894
 Iteration  3 RMS(Cart)=  0.00000038 RMS(Int)=  0.00002894
 Variable       Old X    -DE/DX   Delta X   Delta X   Delta X     New X
                                 (Linear)    (Quad)   (Total)
    R1        1.86889   0.08196   0.00000   0.09221   0.09221   1.96110
    R2        2.49307   0.08838   0.00000   0.08013   0.08008   2.57315
    R3        2.40839   0.12862   0.00000   0.10582   0.10580   2.51419
    R4        1.86829   0.08163   0.00000   0.09175   0.09175   1.96004
    R5        2.47696   0.13787   0.00000   0.12156   0.12156   2.59852
    R6        1.87202   0.07941   0.00000   0.08978   0.08978   1.96180
    R7        2.41851   0.08881   0.00000   0.07305   0.07309   2.49160
    R8        2.34237   0.15407   0.00000   0.11206   0.11210   2.45446
    R9        1.77084   0.08261   0.00000   0.07909   0.07909   1.84993
    A1        2.20252   0.01182   0.00000   0.02736   0.02740   2.22991
    A2        2.21295  -0.00136   0.00000  -0.00454  -0.00450   2.20845
    A3        1.86771  -0.01046   0.00000  -0.02282  -0.02289   1.84482
    A4        2.22327  -0.00612   0.00000  -0.00551  -0.00548   2.21778
    A5        1.83976   0.00779   0.00000   0.00026   0.00020   1.83995
    A6        2.22016  -0.00167   0.00000   0.00526   0.00529   2.22545
    A7        2.19731   0.00039   0.00000   0.00919   0.00917   2.20649
    A8        1.89479   0.01800   0.00000   0.02708   0.02710   1.92190
    A9        2.19108  -0.01839   0.00000  -0.03626  -0.03628   2.15480
   A10        1.88850  -0.02812   0.00000  -0.04175  -0.04165   1.84685
   A11        1.93402   0.01279   0.00000   0.03724   0.03724   1.97126
   A12        2.17185   0.00360   0.00000   0.00557   0.00557   2.17742
   A13        2.17732  -0.01639   0.00000  -0.04281  -0.04281   2.13451
    D1        0.00000   0.00000   0.00000   0.00000   0.00000   0.00000
    D2        3.14159   0.00000   0.00000   0.00000   0.00000   3.14159
    D3        3.14159   0.00000   0.00000   0.00000   0.00000   3.14159
    D4        0.00000   0.00000   0.00000   0.00000   0.00000   0.00000
    D5        3.14159   0.00000   0.00000   0.00000   0.00000   3.14159
    D6        0.00000   0.00000   0.00000   0.00000   0.00000   0.00000
    D7        0.00000   0.00000   0.00000   0.00000   0.00000   0.00000
    D8        3.14159   0.00000   0.00000   0.00000   0.00000   3.14159
    D9        3.14159   0.00000   0.00000   0.00000   0.00000   3.14159
   D10        0.00000   0.00000   0.00000   0.00000   0.00000   0.00000
   D11        0.00000   0.00000   0.00000   0.00000   0.00000   0.00000
   D12        3.14159   0.00000   0.00000   0.00000   0.00000   3.14159
   D13        0.00000   0.00000   0.00000   0.00000   0.00000   0.00000
   D14        3.14159   0.00000   0.00000   0.00000   0.00000   3.14159
   D15        0.00000   0.00000   0.00000   0.00000   0.00000   0.00000
   D16        3.14159   0.00000   0.00000   0.00000   0.00000   3.14159
         Item               Value     Threshold  Converged?
 Maximum Force            0.154071     0.000450     NO 
 RMS     Force            0.052251     0.000300     NO 
 Maximum Displacement     0.169166     0.001800     NO 
 RMS     Displacement     0.063189     0.001200     NO 
 Predicted change in Energy=-2.733182D-02
 GradGradGradGradGradGradGradGradGradGradGradGradGradGradGradGradGradGrad

                          Input orientation:                          
 ---------------------------------------------------------------------
 Center     Atomic     Atomic              Coordinates (Angstroms)
 Number     Number      Type              X           Y           Z
 ---------------------------------------------------------------------
    1          1             0       -1.803842    0.000000   -1.185616
    2          6             0       -0.924103    0.000000   -0.635139
    3          1             0        0.654792    0.000000   -2.097889
    4          6             0        0.353797    0.000000   -1.105313
    5          1             0        2.192718    0.000000    0.026971
    6          6             0        1.154680    0.000000    0.012461
    7          7             0        0.412395    0.000000    1.102164
    8          1             0       -1.577742    0.000000    1.310678
    9          7             0       -0.819725    0.000000    0.691214
 ---------------------------------------------------------------------
                    Distance matrix (angstroms):
                    1          2          3          4          5
     1  H    0.000000
     2  C    1.037769   0.000000
     3  H    2.622426   2.152335   0.000000
     4  C    2.159132   1.361650   1.037210   0.000000
     5  H    4.176464   3.186371   2.623022   2.159560   0.000000
     6  C    3.191902   2.177320   2.168747   1.375075   1.038139
     7  N    3.185223   2.191905   3.209220   2.208255   2.079805
     8  H    2.506513   2.052669   4.074621   3.093195   3.982997
     9  N    2.119192   1.330453   3.154884   2.145848   3.084806
                    6          7          8          9
     6  C    0.000000
     7  N    1.318499   0.000000
     8  H    3.025144   2.001030   0.000000
     9  N    2.087817   1.298846   0.978941   0.000000
 Stoichiometry    C3H4N2
 Framework group  CS[SG(C3H4N2)]
 Deg. of freedom   15
 Full point group                 CS      NOp   2
 Largest Abelian subgroup         CS      NOp   2
 Largest concise Abelian subgroup C1      NOp   1
                         Standard orientation:                         
 ---------------------------------------------------------------------
 Center     Atomic     Atomic              Coordinates (Angstroms)
 Number     Number      Type              X           Y           Z
 ---------------------------------------------------------------------
    1          1             0        2.072267    0.627060    0.000000
    2          6             0        1.086498    0.302676    0.000000
    3          1             0        1.201513   -1.846583    0.000000
    4          6             0        0.630848   -0.980474    0.000000
    5          1             0       -1.415578   -1.670284    0.000000
    6          6             0       -0.740659   -0.881477    0.000000
    7          7             0       -1.103822    0.386022    0.000000
    8          1             0        0.008435    2.049454    0.000000
    9          7             0        0.000000    1.070549    0.000000
 ---------------------------------------------------------------------
 Rotational constants (GHZ):     10.0436125      9.9130521      4.9889526
 Isotopes: H-1,C-12,H-1,C-12,H-1,C-12,N-14,H-1,N-14
 Standard basis: 3-21G (6D, 7F)
 There are    43 symmetry adapted basis functions of A'  symmetry.
 There are    10 symmetry adapted basis functions of A"  symmetry.
 Crude estimate of integral set expansion from redundant integrals=1.000.
 Integral buffers will be    262144 words long.
 Raffenetti 2 integral format.
 Two-electron integral symmetry is turned on.
    53 basis functions       87 primitive gaussians
    18 alpha electrons       18 beta electrons
       nuclear repulsion energy       166.8601539198 Hartrees.
 One-electron integrals computed using PRISM.
 NBasis=    53 RedAO= T  NBF=    43    10
 NBsUse=    53 1.00D-04 NBFU=    43    10
 Initial guess read from the read-write file:
 Initial guess orbital symmetries:
       Occupied  (A') (A') (A') (A') (A') (A') (A') (A') (A') (A')
                 (A') (A') (A") (A') (A') (A") (A') (A")
       Virtual   (A") (A") (A') (A') (A') (A') (A') (A') (A') (A')
                 (A') (A") (A') (A') (A") (A') (A") (A') (A') (A')
                 (A') (A") (A') (A") (A') (A') (A') (A') (A') (A')
                 (A') (A') (A') (A') (A')
 Requested convergence on RMS density matrix=1.00D-08 within  64 cycles.
 Requested convergence on MAX density matrix=1.00D-06.
 Keep R1 and R2 integrals in memory in canonical form, NReq=     2463126.
 Integral accuracy reduced to 1.0D-05 until final iterations.
 Initial convergence to 1.0D-05 achieved.  Increase integral accuracy.
 SCF Done:  E(RB+HF-LYP) =  -224.924043891     A.U. after   14 cycles
             Convg  =    0.4827D-08             -V/T =  2.0048
             S**2   =   0.0000
 ***** Axes restored to original set *****
 -------------------------------------------------------------------
 Center     Atomic                   Forces (Hartrees/Bohr)
 Number     Number              X              Y              Z
 -------------------------------------------------------------------
    1          1          -0.029237640    0.000000000   -0.011204949
    2          6           0.000159954    0.000000000   -0.029272939
    3          1           0.008485737    0.000000000   -0.029865846
    4          6          -0.004285841    0.000000000   -0.015525638
    5          1           0.030266719    0.000000000    0.006200492
    6          6           0.007669927    0.000000000   -0.003548645
    7          7           0.057594538    0.000000000    0.065454993
    8          1          -0.019498670    0.000000000    0.025239062
    9          7          -0.051154724    0.000000000   -0.007476531
 -------------------------------------------------------------------
 Cartesian Forces:  Max     0.065454993 RMS     0.023865403

 GradGradGradGradGradGradGradGradGradGradGradGradGradGradGradGradGradGrad
 Berny optimization.
 Internal  Forces:  Max     0.073772693 RMS     0.020821315
 Search for a local minimum.
 Step number   2 out of a maximum of  48
 All quantities printed in internal units (Hartrees-Bohrs-Radians)
 Update second derivatives using information from points  1  2
 Trust test= 2.33D+00 RLast= 3.00D-01 DXMaxT set to 4.24D-01
     Eigenvalues ---    0.03204   0.03246   0.03261   0.03273   0.03342
     Eigenvalues ---    0.03374   0.15924   0.16000   0.16000   0.16018
     Eigenvalues ---    0.22041   0.23482   0.49457   0.49711   0.50884
     Eigenvalues ---    0.57242   0.58464   0.61713   0.68392   0.72448
     Eigenvalues ---    0.803881000.000001000.000001000.000001000.00000
     Eigenvalues --- 1000.000001000.000001000.000001000.000001000.00000
     Eigenvalues --- 1000.000001000.000001000.000001000.000001000.00000
     Eigenvalues --- 1000.000001000.000001000.00000
 RFO step:  Lambda=-3.42373401D-03.
 Quartic linear search produced a step of  0.86455.
 Iteration  1 RMS(Cart)=  0.05946722 RMS(Int)=  0.00123698
 Iteration  2 RMS(Cart)=  0.00150013 RMS(Int)=  0.00013193
 Iteration  3 RMS(Cart)=  0.00000203 RMS(Int)=  0.00013192
 Iteration  4 RMS(Cart)=  0.00000000 RMS(Int)=  0.00013192
 Variable       Old X    -DE/DX   Delta X   Delta X   Delta X     New X
                                 (Linear)    (Quad)   (Total)
    R1        1.96110   0.03073   0.07972   0.00244   0.08216   2.04326
    R2        2.57315   0.03212   0.06923  -0.00818   0.06082   2.63396
    R3        2.51419   0.04681   0.09147  -0.00705   0.08437   2.59856
    R4        1.96004   0.03104   0.07932   0.00404   0.08336   2.04341
    R5        2.59852   0.04752   0.10509  -0.01933   0.08569   2.68420
    R6        1.96180   0.03035   0.07762   0.00468   0.08229   2.04409
    R7        2.49160   0.03564   0.06319   0.00323   0.06660   2.55820
    R8        2.45446   0.07377   0.09691   0.02934   0.12643   2.58090
    R9        1.84993   0.03107   0.06838  -0.00095   0.06743   1.91736
    A1        2.22991   0.00557   0.02369   0.03422   0.05806   2.28798
    A2        2.20845  -0.00623  -0.00389  -0.06011  -0.06386   2.14460
    A3        1.84482   0.00066  -0.01979   0.02589   0.00579   1.85061
    A4        2.21778  -0.00275  -0.00474   0.00507   0.00049   2.21827
    A5        1.83995   0.00442   0.00017  -0.00886  -0.00901   1.83095
    A6        2.22545  -0.00167   0.00457   0.00379   0.00852   2.23397
    A7        2.20649   0.00163   0.00793   0.03090   0.03879   2.24528
    A8        1.92190   0.00806   0.02343   0.01014   0.03364   1.95553
    A9        2.15480  -0.00969  -0.03136  -0.04103  -0.07243   2.08237
   A10        1.84685  -0.01148  -0.03601  -0.00026  -0.03579   1.81106
   A11        1.97126  -0.00166   0.03220  -0.02691   0.00537   1.97662
   A12        2.17742   0.00750   0.00481   0.05903   0.06381   2.24122
   A13        2.13451  -0.00584  -0.03701  -0.03212  -0.06917   2.06534
    D1        0.00000   0.00000   0.00000   0.00000   0.00000   0.00000
    D2        3.14159   0.00000   0.00000   0.00000   0.00000   3.14159
    D3        3.14159   0.00000   0.00000   0.00000   0.00000   3.14159
    D4        0.00000   0.00000   0.00000   0.00000   0.00000   0.00000
    D5        3.14159   0.00000   0.00000   0.00000   0.00000   3.14159
    D6        0.00000   0.00000   0.00000   0.00000   0.00000   0.00000
    D7        0.00000   0.00000   0.00000   0.00000   0.00000   0.00000
    D8        3.14159   0.00000   0.00000   0.00000   0.00000   3.14159
    D9        3.14159   0.00000   0.00000   0.00000   0.00000   3.14159
   D10        0.00000   0.00000   0.00000   0.00000   0.00000   0.00000
   D11        0.00000   0.00000   0.00000   0.00000   0.00000   0.00000
   D12        3.14159   0.00000   0.00000   0.00000   0.00000   3.14159
   D13        0.00000   0.00000   0.00000   0.00000   0.00000   0.00000
   D14        3.14159   0.00000   0.00000   0.00000   0.00000   3.14159
   D15        0.00000   0.00000   0.00000   0.00000   0.00000   0.00000
   D16        3.14159   0.00000   0.00000   0.00000   0.00000   3.14159
         Item               Value     Threshold  Converged?
 Maximum Force            0.073773     0.000450     NO 
 RMS     Force            0.020821     0.000300     NO 
 Maximum Displacement     0.163108     0.001800     NO 
 RMS     Displacement     0.059376     0.001200     NO 
 Predicted change in Energy=-2.317962D-02
 GradGradGradGradGradGradGradGradGradGradGradGradGradGradGradGradGradGrad

                          Input orientation:                          
 ---------------------------------------------------------------------
 Center     Atomic     Atomic              Coordinates (Angstroms)
 Number     Number      Type              X           Y           Z
 ---------------------------------------------------------------------
    1          1             0       -1.893512    0.000000   -1.204587
    2          6             0       -0.947280    0.000000   -0.681381
    3          1             0        0.681226    0.000000   -2.190751
    4          6             0        0.362754    0.000000   -1.157388
    5          1             0        2.254266    0.000000    0.079072
    6          6             0        1.174920    0.000000    0.007935
    7          7             0        0.435997    0.000000    1.142226
    8          1             0       -1.602739    0.000000    1.373972
    9          7             0       -0.852877    0.000000    0.690473
 ---------------------------------------------------------------------
                    Distance matrix (angstroms):
                    1          2          3          4          5
     1  H    0.000000
     2  C    1.081249   0.000000
     3  H    2.757135   2.220412   0.000000
     4  C    2.256759   1.393834   1.081324   0.000000
     5  H    4.341870   3.290621   2.761621   2.259790   0.000000
     6  C    3.299315   2.231342   2.253432   1.420420   1.081688
     7  N    3.306681   2.288886   3.341986   2.300780   2.106276
     8  H    2.594901   2.157336   4.233644   3.204832   4.068569
     9  N    2.161983   1.375098   3.264188   2.211866   3.166725
                    6          7          8          9
     6  C    0.000000
     7  N    1.353744   0.000000
     8  H    3.095390   2.051865   0.000000
     9  N    2.139584   1.365752   1.014624   0.000000
 Stoichiometry    C3H4N2
 Framework group  CS[SG(C3H4N2)]
 Deg. of freedom   15
 Full point group                 CS      NOp   2
 Largest Abelian subgroup         CS      NOp   2
 Largest concise Abelian subgroup C1      NOp   1
                         Standard orientation:                         
 ---------------------------------------------------------------------
 Center     Atomic     Atomic              Coordinates (Angstroms)
 Number     Number      Type              X           Y           Z
 ---------------------------------------------------------------------
    1          1             0        2.127323    0.714852    0.000000
    2          6             0        1.124908    0.309558    0.000000
    3          1             0        1.271284   -1.906025    0.000000
    4          6             0        0.669350   -1.007727    0.000000
    5          1             0       -1.482480   -1.697857    0.000000
    6          6             0       -0.747307   -0.904403    0.000000
    7          7             0       -1.162766    0.384013    0.000000
    8          1             0       -0.058464    2.113368    0.000000
    9          7             0        0.000000    1.100429    0.000000
 ---------------------------------------------------------------------
 Rotational constants (GHZ):      9.4496172      9.2189680      4.6664339
 Isotopes: H-1,C-12,H-1,C-12,H-1,C-12,N-14,H-1,N-14
 Standard basis: 3-21G (6D, 7F)
 There are    43 symmetry adapted basis functions of A'  symmetry.
 There are    10 symmetry adapted basis functions of A"  symmetry.
 Crude estimate of integral set expansion from redundant integrals=1.000.
 Integral buffers will be    262144 words long.
 Raffenetti 2 integral format.
 Two-electron integral symmetry is turned on.
    53 basis functions       87 primitive gaussians
    18 alpha electrons       18 beta electrons
       nuclear repulsion energy       161.2894996381 Hartrees.
 One-electron integrals computed using PRISM.
 NBasis=    53 RedAO= T  NBF=    43    10
 NBsUse=    53 1.00D-04 NBFU=    43    10
 Initial guess read from the read-write file:
 Initial guess orbital symmetries:
       Occupied  (A') (A') (A') (A') (A') (A') (A') (A') (A') (A')
                 (A') (A') (A") (A') (A') (A') (A") (A")
       Virtual   (A") (A") (A') (A') (A') (A') (A') (A') (A') (A')
                 (A') (A') (A") (A') (A') (A") (A") (A') (A') (A')
                 (A') (A') (A") (A') (A") (A') (A') (A') (A') (A')
                 (A') (A') (A') (A') (A')
 Requested convergence on RMS density matrix=1.00D-08 within  64 cycles.
 Requested convergence on MAX density matrix=1.00D-06.
 Keep R1 and R2 integrals in memory in canonical form, NReq=     2463126.
 Integral accuracy reduced to 1.0D-05 until final iterations.
 Initial convergence to 1.0D-05 achieved.  Increase integral accuracy.
 SCF Done:  E(RB+HF-LYP) =  -224.940440813     A.U. after   14 cycles
             Convg  =    0.3918D-08             -V/T =  2.0087
             S**2   =   0.0000
 ***** Axes restored to original set *****
 -------------------------------------------------------------------
 Center     Atomic                   Forces (Hartrees/Bohr)
 Number     Number              X              Y              Z
 -------------------------------------------------------------------
    1          1           0.003285029    0.000000000    0.001830775
    2          6           0.003448189    0.000000000   -0.003292807
    3          1          -0.001181376    0.000000000    0.004364193
    4          6          -0.005172044    0.000000000    0.001741055
    5          1          -0.003727190    0.000000000   -0.001311811
    6          6           0.003311211    0.000000000    0.001867801
    7          7           0.020573002    0.000000000    0.002360957
    8          1           0.001777410    0.000000000   -0.003483110
    9          7          -0.022314231    0.000000000   -0.004077055
 -------------------------------------------------------------------
 Cartesian Forces:  Max     0.022314231 RMS     0.006312321

 GradGradGradGradGradGradGradGradGradGradGradGradGradGradGradGradGradGrad
 Berny optimization.
 Internal  Forces:  Max     0.019001590 RMS     0.003780188
 Search for a local minimum.
 Step number   3 out of a maximum of  48
 All quantities printed in internal units (Hartrees-Bohrs-Radians)
 Update second derivatives using information from points  1  2  3
 Trust test= 7.07D-01 RLast= 2.99D-01 DXMaxT set to 4.24D-01
     Eigenvalues ---    0.03203   0.03247   0.03252   0.03273   0.03341
     Eigenvalues ---    0.03372   0.15493   0.16000   0.16003   0.16015
     Eigenvalues ---    0.22147   0.23278   0.45924   0.49498   0.49716
     Eigenvalues ---    0.57356   0.58024   0.59878   0.63560   0.68707
     Eigenvalues ---    0.818431000.000001000.000001000.000001000.00000
     Eigenvalues --- 1000.000001000.000001000.000001000.000001000.00000
     Eigenvalues --- 1000.000001000.000001000.000001000.000001000.00000
     Eigenvalues --- 1000.000001000.000001000.00000
 RFO step:  Lambda=-7.93458545D-04.
 Quartic linear search produced a step of -0.00022.
 Iteration  1 RMS(Cart)=  0.00743325 RMS(Int)=  0.00002591
 Iteration  2 RMS(Cart)=  0.00002780 RMS(Int)=  0.00000392
 Iteration  3 RMS(Cart)=  0.00000000 RMS(Int)=  0.00000392
 Variable       Old X    -DE/DX   Delta X   Delta X   Delta X     New X
                                 (Linear)    (Quad)   (Total)
    R1        2.04326  -0.00376  -0.00002  -0.00517  -0.00519   2.03808
    R2        2.63396  -0.00575  -0.00001  -0.00926  -0.00927   2.62470
    R3        2.59856  -0.00281  -0.00002  -0.00031  -0.00033   2.59823
    R4        2.04341  -0.00452  -0.00002  -0.00668  -0.00669   2.03671
    R5        2.68420  -0.00063  -0.00002  -0.00013  -0.00014   2.68406
    R6        2.04409  -0.00381  -0.00002  -0.00535  -0.00537   2.03873
    R7        2.55820  -0.00329  -0.00001  -0.00217  -0.00219   2.55602
    R8        2.58090   0.01900  -0.00003   0.02644   0.02641   2.60730
    R9        1.91736  -0.00366  -0.00002  -0.00403  -0.00405   1.91332
    A1        2.28798  -0.00043  -0.00001   0.00091   0.00090   2.28887
    A2        2.14460  -0.00046   0.00001  -0.00087  -0.00086   2.14374
    A3        1.85061   0.00089   0.00000  -0.00004  -0.00004   1.85058
    A4        2.21827  -0.00236   0.00000  -0.00460  -0.00460   2.21367
    A5        1.83095   0.00502   0.00000   0.01079   0.01080   1.84175
    A6        2.23397  -0.00267   0.00000  -0.00619  -0.00620   2.22777
    A7        2.24528  -0.00101  -0.00001  -0.00371  -0.00372   2.24156
    A8        1.95553  -0.00017  -0.00001  -0.00426  -0.00426   1.95127
    A9        2.08237   0.00118   0.00002   0.00797   0.00798   2.09035
   A10        1.81106  -0.00244   0.00001  -0.00052  -0.00052   1.81054
   A11        1.97662  -0.00330   0.00000  -0.00597  -0.00598   1.97065
   A12        2.24122   0.00034  -0.00001  -0.00414  -0.00415   2.23708
   A13        2.06534   0.00297   0.00002   0.01011   0.01013   2.07546
    D1        0.00000   0.00000   0.00000   0.00000   0.00000   0.00000
    D2        3.14159   0.00000   0.00000   0.00000   0.00000   3.14159
    D3        3.14159   0.00000   0.00000   0.00000   0.00000   3.14159
    D4        0.00000   0.00000   0.00000   0.00000   0.00000   0.00000
    D5        3.14159   0.00000   0.00000   0.00000   0.00000   3.14159
    D6        0.00000   0.00000   0.00000   0.00000   0.00000   0.00000
    D7        0.00000   0.00000   0.00000   0.00000   0.00000   0.00000
    D8        3.14159   0.00000   0.00000   0.00000   0.00000   3.14159
    D9       -3.14159   0.00000   0.00000   0.00000   0.00000  -3.14159
   D10        0.00000   0.00000   0.00000   0.00000   0.00000   0.00000
   D11        0.00000   0.00000   0.00000   0.00000   0.00000   0.00000
   D12        3.14159   0.00000   0.00000   0.00000   0.00000   3.14159
   D13        0.00000   0.00000   0.00000   0.00000   0.00000   0.00000
   D14        3.14159   0.00000   0.00000   0.00000   0.00000   3.14159
   D15        0.00000   0.00000   0.00000   0.00000   0.00000   0.00000
   D16        3.14159   0.00000   0.00000   0.00000   0.00000   3.14159
         Item               Value     Threshold  Converged?
 Maximum Force            0.019002     0.000450     NO 
 RMS     Force            0.003780     0.000300     NO 
 Maximum Displacement     0.020021     0.001800     NO 
 RMS     Displacement     0.007429     0.001200     NO 
 Predicted change in Energy=-3.960669D-04
 GradGradGradGradGradGradGradGradGradGradGradGradGradGradGradGradGradGrad

                          Input orientation:                          
 ---------------------------------------------------------------------
 Center     Atomic     Atomic              Coordinates (Angstroms)
 Number     Number      Type              X           Y           Z
 ---------------------------------------------------------------------
    1          1             0       -1.891211    0.000000   -1.203458
    2          6             0       -0.948960    0.000000   -0.678734
    3          1             0        0.675030    0.000000   -2.178151
    4          6             0        0.358311    0.000000   -1.147956
    5          1             0        2.255647    0.000000    0.071210
    6          6             0        1.178444    0.000000    0.011684
    7          7             0        0.443132    0.000000    1.146940
    8          1             0       -1.613613    0.000000    1.369333
    9          7             0       -0.859886    0.000000    0.693303
 ---------------------------------------------------------------------
                    Distance matrix (angstroms):
                    1          2          3          4          5
     1  H    0.000000
     2  C    1.078505   0.000000
     3  H    2.745108   2.210338   0.000000
     4  C    2.250206   1.388929   1.077782   0.000000
     5  H    4.338342   3.291189   2.749178   2.255272   0.000000
     6  C    3.301416   2.236632   2.246954   1.420346   1.078847
     7  N    3.312631   2.295867   3.333168   2.296462   2.107702
     8  H    2.587724   2.153217   4.221674   3.197691   4.081213
     9  N    2.159012   1.374925   3.255951   2.207767   3.177034
                    6          7          8          9
     6  C    0.000000
     7  N    1.352586   0.000000
     8  H    3.104640   2.068733   0.000000
     9  N    2.149277   1.379725   1.012483   0.000000
 Stoichiometry    C3H4N2
 Framework group  CS[SG(C3H4N2)]
 Deg. of freedom   15
 Full point group                 CS      NOp   2
 Largest Abelian subgroup         CS      NOp   2
 Largest concise Abelian subgroup C1      NOp   1
                         Standard orientation:                         
 ---------------------------------------------------------------------
 Center     Atomic     Atomic              Coordinates (Angstroms)
 Number     Number      Type              X           Y           Z
 ---------------------------------------------------------------------
    1          1             0        2.124520    0.720072    0.000000
    2          6             0        1.125239    0.314352    0.000000
    3          1             0        1.276594   -1.890798    0.000000
    4          6             0        0.672019   -0.998552    0.000000
    5          1             0       -1.466872   -1.713673    0.000000
    6          6             0       -0.745647   -0.911336    0.000000
    7          7             0       -1.169879    0.372999    0.000000
    8          1             0       -0.054752    2.115454    0.000000
    9          7             0        0.000000    1.104452    0.000000
 ---------------------------------------------------------------------
 Rotational constants (GHZ):      9.4129588      9.2213143      4.6580755
 Isotopes: H-1,C-12,H-1,C-12,H-1,C-12,N-14,H-1,N-14
 Standard basis: 3-21G (6D, 7F)
 There are    43 symmetry adapted basis functions of A'  symmetry.
 There are    10 symmetry adapted basis functions of A"  symmetry.
 Crude estimate of integral set expansion from redundant integrals=1.000.
 Integral buffers will be    262144 words long.
 Raffenetti 2 integral format.
 Two-electron integral symmetry is turned on.
    53 basis functions       87 primitive gaussians
    18 alpha electrons       18 beta electrons
       nuclear repulsion energy       161.1425394231 Hartrees.
 One-electron integrals computed using PRISM.
 NBasis=    53 RedAO= T  NBF=    43    10
 NBsUse=    53 1.00D-04 NBFU=    43    10
 Initial guess read from the read-write file:
 Initial guess orbital symmetries:
       Occupied  (A') (A') (A') (A') (A') (A') (A') (A') (A') (A')
                 (A') (A') (A") (A') (A') (A') (A") (A")
       Virtual   (A") (A") (A') (A') (A') (A') (A') (A') (A') (A')
                 (A') (A') (A") (A') (A') (A") (A") (A') (A') (A')
                 (A') (A') (A") (A') (A") (A') (A') (A') (A') (A')
                 (A') (A') (A') (A') (A')
 Requested convergence on RMS density matrix=1.00D-08 within  64 cycles.
 Requested convergence on MAX density matrix=1.00D-06.
 Keep R1 and R2 integrals in memory in canonical form, NReq=     2463126.
 Integral accuracy reduced to 1.0D-05 until final iterations.
 Initial convergence to 1.0D-05 achieved.  Increase integral accuracy.
 SCF Done:  E(RB+HF-LYP) =  -224.941007285     A.U. after   12 cycles
             Convg  =    0.6338D-08             -V/T =  2.0087
             S**2   =   0.0000
 ***** Axes restored to original set *****
 -------------------------------------------------------------------
 Center     Atomic                   Forces (Hartrees/Bohr)
 Number     Number              X              Y              Z
 -------------------------------------------------------------------
    1          1           0.001634496    0.000000000    0.000721221
    2          6           0.003971560    0.000000000    0.000432808
    3          1          -0.000334805    0.000000000    0.001681558
    4          6          -0.002100467    0.000000000   -0.001015827
    5          1          -0.001846193    0.000000000   -0.000444097
    6          6          -0.002855001    0.000000000    0.001375887
    7          7           0.012378976    0.000000000    0.002531500
    8          1           0.001680626    0.000000000   -0.001181171
    9          7          -0.012529190    0.000000000   -0.004101878
 -------------------------------------------------------------------
 Cartesian Forces:  Max     0.012529190 RMS     0.003745906

 GradGradGradGradGradGradGradGradGradGradGradGradGradGradGradGradGradGrad
 Berny optimization.
 Internal  Forces:  Max     0.009604840 RMS     0.002021943
 Search for a local minimum.
 Step number   4 out of a maximum of  48
 All quantities printed in internal units (Hartrees-Bohrs-Radians)
 Update second derivatives using information from points  1  2  3  4
 Trust test= 1.43D+00 RLast= 3.65D-02 DXMaxT set to 4.24D-01
     Eigenvalues ---    0.03203   0.03247   0.03252   0.03273   0.03341
     Eigenvalues ---    0.03372   0.15414   0.15800   0.16002   0.16247
     Eigenvalues ---    0.22357   0.23996   0.36624   0.46607   0.49525
     Eigenvalues ---    0.49779   0.57692   0.59677   0.61275   0.68872
     Eigenvalues ---    0.721791000.000001000.000001000.000001000.00000
     Eigenvalues --- 1000.000001000.000001000.000001000.000001000.00000
     Eigenvalues --- 1000.000001000.000001000.000001000.000001000.00000
     Eigenvalues --- 1000.000001000.000001000.00000
 RFO step:  Lambda=-3.01974973D-04.
 Quartic linear search produced a step of  0.80788.
 Iteration  1 RMS(Cart)=  0.00765384 RMS(Int)=  0.00004193
 Iteration  2 RMS(Cart)=  0.00004637 RMS(Int)=  0.00000823
 Iteration  3 RMS(Cart)=  0.00000000 RMS(Int)=  0.00000823
 Variable       Old X    -DE/DX   Delta X   Delta X   Delta X     New X
                                 (Linear)    (Quad)   (Total)
    R1        2.03808  -0.00178  -0.00419  -0.00169  -0.00588   2.03220
    R2        2.62470  -0.00371  -0.00749  -0.00672  -0.01421   2.61048
    R3        2.59823  -0.00192  -0.00026  -0.00070  -0.00098   2.59725
    R4        2.03671  -0.00171  -0.00541  -0.00081  -0.00622   2.03049
    R5        2.68406  -0.00076  -0.00011  -0.00088  -0.00098   2.68308
    R6        2.03873  -0.00187  -0.00434  -0.00203  -0.00637   2.03235
    R7        2.55602  -0.00266  -0.00177  -0.00329  -0.00505   2.55097
    R8        2.60730   0.00960   0.02133   0.01425   0.03558   2.64288
    R9        1.91332  -0.00204  -0.00327  -0.00222  -0.00549   1.90783
    A1        2.28887  -0.00092   0.00072  -0.00547  -0.00473   2.28414
    A2        2.14374  -0.00059  -0.00069  -0.00333  -0.00401   2.13972
    A3        1.85058   0.00151  -0.00003   0.00880   0.00875   1.85932
    A4        2.21367  -0.00012  -0.00372   0.00684   0.00312   2.21679
    A5        1.84175   0.00059   0.00873  -0.01071  -0.00197   1.83978
    A6        2.22777  -0.00047  -0.00501   0.00387  -0.00114   2.22662
    A7        2.24156  -0.00151  -0.00300  -0.00907  -0.01209   2.22947
    A8        1.95127   0.00231  -0.00345   0.01666   0.01324   1.96451
    A9        2.09035  -0.00080   0.00645  -0.00759  -0.00115   2.08920
   A10        1.81054  -0.00291  -0.00042  -0.01334  -0.01376   1.79678
   A11        1.97065  -0.00150  -0.00483  -0.00141  -0.00626   1.96439
   A12        2.23708   0.00099  -0.00335   0.00721   0.00387   2.24094
   A13        2.07546   0.00051   0.00818  -0.00580   0.00239   2.07785
    D1        0.00000   0.00000   0.00000   0.00000   0.00000   0.00000
    D2        3.14159   0.00000   0.00000   0.00000   0.00000   3.14159
    D3        3.14159   0.00000   0.00000   0.00000   0.00000   3.14159
    D4        0.00000   0.00000   0.00000   0.00000   0.00000   0.00000
    D5        3.14159   0.00000   0.00000   0.00000   0.00000   3.14159
    D6        0.00000   0.00000   0.00000   0.00000   0.00000   0.00000
    D7        0.00000   0.00000   0.00000   0.00000   0.00000   0.00000
    D8        3.14159   0.00000   0.00000   0.00000   0.00000   3.14159
    D9        3.14159   0.00000   0.00000   0.00000   0.00000   3.14159
   D10        0.00000   0.00000   0.00000   0.00000   0.00000   0.00000
   D11        0.00000   0.00000   0.00000   0.00000   0.00000   0.00000
   D12        3.14159   0.00000   0.00000   0.00000   0.00000   3.14159
   D13        0.00000   0.00000   0.00000   0.00000   0.00000   0.00000
   D14        3.14159   0.00000   0.00000   0.00000   0.00000   3.14159
   D15        0.00000   0.00000   0.00000   0.00000   0.00000   0.00000
   D16        3.14159   0.00000   0.00000   0.00000   0.00000   3.14159
         Item               Value     Threshold  Converged?
 Maximum Force            0.009605     0.000450     NO 
 RMS     Force            0.002022     0.000300     NO 
 Maximum Displacement     0.022242     0.001800     NO 
 RMS     Displacement     0.007647     0.001200     NO 
 Predicted change in Energy=-2.974464D-04
 GradGradGradGradGradGradGradGradGradGradGradGradGradGradGradGradGradGrad

                          Input orientation:                          
 ---------------------------------------------------------------------
 Center     Atomic     Atomic              Coordinates (Angstroms)
 Number     Number      Type              X           Y           Z
 ---------------------------------------------------------------------
    1          1             0       -1.882707    0.000000   -1.206338
    2          6             0       -0.945017    0.000000   -0.679837
    3          1             0        0.672296    0.000000   -2.174559
    4          6             0        0.354602    0.000000   -1.148110
    5          1             0        2.248010    0.000000    0.058873
    6          6             0        1.173569    0.000000    0.011716
    7          7             0        0.453920    0.000000    1.153809
    8          1             0       -1.620319    0.000000    1.363654
    9          7             0       -0.866296    0.000000    0.692313
 ---------------------------------------------------------------------
                    Distance matrix (angstroms):
                    1          2          3          4          5
     1  H    0.000000
     2  C    1.075392   0.000000
     3  H    2.732305   2.202247   0.000000
     4  C    2.238067   1.381408   1.074489   0.000000
     5  H    4.320137   3.277364   2.733330   2.245396   0.000000
     6  C    3.290058   2.228598   2.243005   1.419825   1.075476
     7  N    3.321163   2.306357   3.335524   2.304061   2.101819
     8  H    2.583352   2.152182   4.216044   3.195195   4.082453
     9  N    2.153595   1.374406   3.253647   2.208563   3.178073
                    6          7          8          9
     6  C    0.000000
     7  N    1.349915   0.000000
     8  H    3.103795   2.084826   0.000000
     9  N    2.150410   1.398552   1.009578   0.000000
 Stoichiometry    C3H4N2
 Framework group  CS[SG(C3H4N2)]
 Deg. of freedom   15
 Full point group                 CS      NOp   2
 Largest Abelian subgroup         CS      NOp   2
 Largest concise Abelian subgroup C1      NOp   1
                         Standard orientation:                         
 ---------------------------------------------------------------------
 Center     Atomic     Atomic              Coordinates (Angstroms)
 Number     Number      Type              X           Y           Z
 ---------------------------------------------------------------------
    1          1             0        2.118436    0.720875    0.000000
    2          6             0        1.122461    0.315287    0.000000
    3          1             0        1.284337   -1.881003    0.000000
    4          6             0        0.679246   -0.993090    0.000000
    5          1             0       -1.444391   -1.722452    0.000000
    6          6             0       -0.738222   -0.911297    0.000000
    7          7             0       -1.183399    0.363100    0.000000
    8          1             0       -0.055499    2.116480    0.000000
    9          7             0        0.000000    1.108428    0.000000
 ---------------------------------------------------------------------
 Rotational constants (GHZ):      9.4327921      9.1726244      4.6504446
 Isotopes: H-1,C-12,H-1,C-12,H-1,C-12,N-14,H-1,N-14
 Standard basis: 3-21G (6D, 7F)
 There are    43 symmetry adapted basis functions of A'  symmetry.
 There are    10 symmetry adapted basis functions of A"  symmetry.
 Crude estimate of integral set expansion from redundant integrals=1.000.
 Integral buffers will be    262144 words long.
 Raffenetti 2 integral format.
 Two-electron integral symmetry is turned on.
    53 basis functions       87 primitive gaussians
    18 alpha electrons       18 beta electrons
       nuclear repulsion energy       161.0166820797 Hartrees.
 One-electron integrals computed using PRISM.
 NBasis=    53 RedAO= T  NBF=    43    10
 NBsUse=    53 1.00D-04 NBFU=    43    10
 Initial guess read from the read-write file:
 Initial guess orbital symmetries:
       Occupied  (A') (A') (A') (A') (A') (A') (A') (A') (A') (A')
                 (A') (A') (A") (A') (A') (A') (A") (A")
       Virtual   (A") (A") (A') (A') (A') (A') (A') (A') (A') (A')
                 (A') (A') (A") (A') (A') (A") (A') (A") (A') (A')
                 (A') (A') (A") (A') (A") (A') (A') (A') (A') (A')
                 (A') (A') (A') (A') (A')
 Requested convergence on RMS density matrix=1.00D-08 within  64 cycles.
 Requested convergence on MAX density matrix=1.00D-06.
 Keep R1 and R2 integrals in memory in canonical form, NReq=     2463126.
 Integral accuracy reduced to 1.0D-05 until final iterations.
 Initial convergence to 1.0D-05 achieved.  Increase integral accuracy.
 SCF Done:  E(RB+HF-LYP) =  -224.941283550     A.U. after   12 cycles
             Convg  =    0.7441D-08             -V/T =  2.0086
             S**2   =   0.0000
 ***** Axes restored to original set *****
 -------------------------------------------------------------------
 Center     Atomic                   Forces (Hartrees/Bohr)
 Number     Number              X              Y              Z
 -------------------------------------------------------------------
    1          1          -0.000622139    0.000000000   -0.000380582
    2          6          -0.000452525    0.000000000    0.003721598
    3          1           0.000383123    0.000000000   -0.000503201
    4          6           0.001266282    0.000000000    0.000345194
    5          1           0.000938950    0.000000000    0.000197973
    6          6          -0.000615438    0.000000000    0.000974731
    7          7           0.001389301    0.000000000   -0.002187355
    8          1           0.000181918    0.000000000    0.000613906
    9          7          -0.002469472    0.000000000   -0.002782264
 -------------------------------------------------------------------
 Cartesian Forces:  Max     0.003721598 RMS     0.001215993

 GradGradGradGradGradGradGradGradGradGradGradGradGradGradGradGradGradGrad
 Berny optimization.
 Internal  Forces:  Max     0.002525712 RMS     0.000756927
 Search for a local minimum.
 Step number   5 out of a maximum of  48
 All quantities printed in internal units (Hartrees-Bohrs-Radians)
 Update second derivatives using information from points  1  2  3  4  5

 Trust test= 9.29D-01 RLast= 4.84D-02 DXMaxT set to 4.24D-01
     Eigenvalues ---    0.03203   0.03247   0.03252   0.03273   0.03341
     Eigenvalues ---    0.03372   0.15404   0.15504   0.16006   0.16371
     Eigenvalues ---    0.20667   0.27476   0.33155   0.46926   0.49523
     Eigenvalues ---    0.49782   0.57860   0.59225   0.60744   0.68877
     Eigenvalues ---    0.729741000.000001000.000001000.000001000.00000
     Eigenvalues --- 1000.000001000.000001000.000001000.000001000.00000
     Eigenvalues --- 1000.000001000.000001000.000001000.000001000.00000
     Eigenvalues --- 1000.000001000.000001000.00000
 RFO step:  Lambda=-4.38109700D-05.
 Quartic linear search produced a step of -0.03331.
 Iteration  1 RMS(Cart)=  0.00187964 RMS(Int)=  0.00000304
 Iteration  2 RMS(Cart)=  0.00000315 RMS(Int)=  0.00000082
 Iteration  3 RMS(Cart)=  0.00000000 RMS(Int)=  0.00000082
 Variable       Old X    -DE/DX   Delta X   Delta X   Delta X     New X
                                 (Linear)    (Quad)   (Total)
    R1        2.03220   0.00073   0.00020   0.00112   0.00131   2.03351
    R2        2.61048   0.00214   0.00047   0.00228   0.00275   2.61324
    R3        2.59725  -0.00253   0.00003  -0.00317  -0.00313   2.59412
    R4        2.03049   0.00059   0.00021   0.00082   0.00103   2.03152
    R5        2.68308  -0.00039   0.00003  -0.00033  -0.00030   2.68278
    R6        2.03235   0.00095   0.00021   0.00150   0.00172   2.03407
    R7        2.55097  -0.00158   0.00017  -0.00249  -0.00232   2.54865
    R8        2.64288   0.00121  -0.00119   0.00502   0.00384   2.64672
    R9        1.90783   0.00027   0.00018   0.00010   0.00028   1.90811
    A1        2.28414  -0.00011   0.00016  -0.00108  -0.00093   2.28321
    A2        2.13972  -0.00006   0.00013  -0.00084  -0.00071   2.13901
    A3        1.85932   0.00017  -0.00029   0.00193   0.00164   1.86096
    A4        2.21679   0.00018  -0.00010   0.00118   0.00108   2.21786
    A5        1.83978   0.00008   0.00007   0.00067   0.00073   1.84051
    A6        2.22662  -0.00026   0.00004  -0.00185  -0.00181   2.22481
    A7        2.22947   0.00059   0.00040   0.00168   0.00208   2.23155
    A8        1.96451  -0.00087  -0.00044  -0.00224  -0.00268   1.96182
    A9        2.08920   0.00028   0.00004   0.00056   0.00060   2.08981
   A10        1.79678   0.00140   0.00046   0.00362   0.00408   1.80086
   A11        1.96439  -0.00077   0.00021  -0.00397  -0.00376   1.96062
   A12        2.24094   0.00094  -0.00013   0.00562   0.00549   2.24644
   A13        2.07785  -0.00017  -0.00008  -0.00165  -0.00173   2.07613
    D1        0.00000   0.00000   0.00000   0.00000   0.00000   0.00000
    D2       -3.14159   0.00000   0.00000   0.00000   0.00000  -3.14159
    D3        3.14159   0.00000   0.00000   0.00000   0.00000   3.14159
    D4        0.00000   0.00000   0.00000   0.00000   0.00000   0.00000
    D5       -3.14159   0.00000   0.00000   0.00000   0.00000  -3.14159
    D6        0.00000   0.00000   0.00000   0.00000   0.00000   0.00000
    D7        0.00000   0.00000   0.00000   0.00000   0.00000   0.00000
    D8        3.14159   0.00000   0.00000   0.00000   0.00000   3.14159
    D9        3.14159   0.00000   0.00000   0.00000   0.00000   3.14159
   D10        0.00000   0.00000   0.00000   0.00000   0.00000   0.00000
   D11        0.00000   0.00000   0.00000   0.00000   0.00000   0.00000
   D12        3.14159   0.00000   0.00000   0.00000   0.00000   3.14159
   D13        0.00000   0.00000   0.00000   0.00000   0.00000   0.00000
   D14        3.14159   0.00000   0.00000   0.00000   0.00000   3.14159
   D15        0.00000   0.00000   0.00000   0.00000   0.00000   0.00000
   D16        3.14159   0.00000   0.00000   0.00000   0.00000   3.14159
         Item               Value     Threshold  Converged?
 Maximum Force            0.002526     0.000450     NO 
 RMS     Force            0.000757     0.000300     NO 
 Maximum Displacement     0.005708     0.001800     NO 
 RMS     Displacement     0.001879     0.001200     NO 
 Predicted change in Energy=-2.223071D-05
 GradGradGradGradGradGradGradGradGradGradGradGradGradGradGradGradGradGrad

                          Input orientation:                          
 ---------------------------------------------------------------------
 Center     Atomic     Atomic              Coordinates (Angstroms)
 Number     Number      Type              X           Y           Z
 ---------------------------------------------------------------------
    1          1             0       -1.884611    0.000000   -1.208352
    2          6             0       -0.946724    0.000000   -0.680782
    3          1             0        0.673001    0.000000   -2.176417
    4          6             0        0.354195    0.000000   -1.149744
    5          1             0        2.249384    0.000000    0.057714
    6          6             0        1.174093    0.000000    0.009230
    7          7             0        0.453045    0.000000    1.148986
    8          1             0       -1.621580    0.000000    1.364283
    9          7             0       -0.870138    0.000000    0.689829
 ---------------------------------------------------------------------
                    Distance matrix (angstroms):
                    1          2          3          4          5
     1  H    0.000000
     2  C    1.076086   0.000000
     3  H    2.734689   2.204639   0.000000
     4  C    2.239573   1.382865   1.075033   0.000000
     5  H    4.323521   3.280317   2.734287   2.247152   0.000000
     6  C    3.292138   2.230242   2.242353   1.419666   1.076384
     7  N    3.319891   2.303780   3.332670   2.300854   2.101835
     8  H    2.586047   2.153537   4.219201   3.197502   4.085521
     9  N    2.152266   1.372750   3.255249   2.209756   3.182921
                    6          7          8          9
     6  C    0.000000
     7  N    1.348686   0.000000
     8  H    3.106759   2.085766   0.000000
     9  N    2.154552   1.400585   1.009729   0.000000
 Stoichiometry    C3H4N2
 Framework group  CS[SG(C3H4N2)]
 Deg. of freedom   15
 Full point group                 CS      NOp   2
 Largest Abelian subgroup         CS      NOp   2
 Largest concise Abelian subgroup C1      NOp   1
                         Standard orientation:                         
 ---------------------------------------------------------------------
 Center     Atomic     Atomic              Coordinates (Angstroms)
 Number     Number      Type              X           Y           Z
 ---------------------------------------------------------------------
    1          1             0        2.117458    0.724917    0.000000
    2          6             0        1.121152    0.318303    0.000000
    3          1             0        1.285632   -1.880192    0.000000
    4          6             0        0.679686   -0.992202    0.000000
    5          1             0       -1.444301   -1.725941    0.000000
    6          6             0       -0.737816   -0.913857    0.000000
    7          7             0       -1.182260    0.359495    0.000000
    8          1             0       -0.061098    2.118305    0.000000
    9          7             0        0.000000    1.110427    0.000000
 ---------------------------------------------------------------------
 Rotational constants (GHZ):      9.4083644      9.1903037      4.6490279
 Isotopes: H-1,C-12,H-1,C-12,H-1,C-12,N-14,H-1,N-14
 Standard basis: 3-21G (6D, 7F)
 There are    43 symmetry adapted basis functions of A'  symmetry.
 There are    10 symmetry adapted basis functions of A"  symmetry.
 Crude estimate of integral set expansion from redundant integrals=1.000.
 Integral buffers will be    262144 words long.
 Raffenetti 2 integral format.
 Two-electron integral symmetry is turned on.
    53 basis functions       87 primitive gaussians
    18 alpha electrons       18 beta electrons
       nuclear repulsion energy       160.9887039862 Hartrees.
 One-electron integrals computed using PRISM.
 NBasis=    53 RedAO= T  NBF=    43    10
 NBsUse=    53 1.00D-04 NBFU=    43    10
 Initial guess read from the read-write file:
 Initial guess orbital symmetries:
       Occupied  (A') (A') (A') (A') (A') (A') (A') (A') (A') (A')
                 (A') (A') (A') (A") (A') (A') (A") (A")
       Virtual   (A") (A") (A') (A') (A') (A') (A') (A') (A') (A')
                 (A') (A') (A") (A') (A') (A") (A') (A") (A') (A')
                 (A') (A') (A") (A') (A") (A') (A') (A') (A') (A')
                 (A') (A') (A') (A') (A')
 Requested convergence on RMS density matrix=1.00D-08 within  64 cycles.
 Requested convergence on MAX density matrix=1.00D-06.
 Keep R1 and R2 integrals in memory in canonical form, NReq=     2463126.
 SCF Done:  E(RB+HF-LYP) =  -224.941306403     A.U. after    9 cycles
             Convg  =    0.5307D-08             -V/T =  2.0086
             S**2   =   0.0000
 ***** Axes restored to original set *****
 -------------------------------------------------------------------
 Center     Atomic                   Forces (Hartrees/Bohr)
 Number     Number              X              Y              Z
 -------------------------------------------------------------------
    1          1          -0.000141578    0.000000000   -0.000296045
    2          6          -0.000424397    0.000000000    0.001796208
    3          1           0.000004764    0.000000000   -0.000231318
    4          6           0.000599853    0.000000000   -0.000245825
    5          1           0.000238236    0.000000000    0.000126534
    6          6          -0.001522679    0.000000000    0.000569627
    7          7           0.000638273    0.000000000    0.000155763
    8          1           0.000189157    0.000000000    0.000261554
    9          7           0.000418370    0.000000000   -0.002136499
 -------------------------------------------------------------------
 Cartesian Forces:  Max     0.002136499 RMS     0.000666090

 GradGradGradGradGradGradGradGradGradGradGradGradGradGradGradGradGradGrad
 Berny optimization.
 Internal  Forces:  Max     0.001234767 RMS     0.000335335
 Search for a local minimum.
 Step number   6 out of a maximum of  48
 All quantities printed in internal units (Hartrees-Bohrs-Radians)
 Update second derivatives using information from points  1  2  3  4  5
                                                        6
 Trust test= 1.03D+00 RLast= 1.13D-02 DXMaxT set to 4.24D-01
     Eigenvalues ---    0.03203   0.03247   0.03252   0.03273   0.03341
     Eigenvalues ---    0.03372   0.13925   0.15377   0.15892   0.16070
     Eigenvalues ---    0.21728   0.29768   0.41846   0.45743   0.49557
     Eigenvalues ---    0.49738   0.53028   0.58077   0.60014   0.63739
     Eigenvalues ---    0.703811000.000001000.000001000.000001000.00000
     Eigenvalues --- 1000.000001000.000001000.000001000.000001000.00000
     Eigenvalues --- 1000.000001000.000001000.000001000.000001000.00000
     Eigenvalues --- 1000.000001000.000001000.00000
 RFO step:  Lambda=-1.07040411D-05.
 Quartic linear search produced a step of  0.03430.
 Iteration  1 RMS(Cart)=  0.00089712 RMS(Int)=  0.00000095
 Iteration  2 RMS(Cart)=  0.00000092 RMS(Int)=  0.00000011
 Variable       Old X    -DE/DX   Delta X   Delta X   Delta X     New X
                                 (Linear)    (Quad)   (Total)
    R1        2.03351   0.00027   0.00005   0.00063   0.00067   2.03418
    R2        2.61324   0.00028   0.00009   0.00086   0.00095   2.61419
    R3        2.59412  -0.00123  -0.00011  -0.00242  -0.00253   2.59159
    R4        2.03152   0.00022   0.00004   0.00041   0.00044   2.03196
    R5        2.68278  -0.00004  -0.00001  -0.00008  -0.00009   2.68269
    R6        2.03407   0.00024   0.00006   0.00067   0.00072   2.03479
    R7        2.54865  -0.00087  -0.00008  -0.00173  -0.00181   2.54684
    R8        2.64672  -0.00004   0.00013   0.00127   0.00140   2.64812
    R9        1.90811   0.00003   0.00001  -0.00002  -0.00001   1.90810
    A1        2.28321  -0.00010  -0.00003  -0.00080  -0.00084   2.28237
    A2        2.13901   0.00028  -0.00002   0.00143   0.00140   2.14042
    A3        1.86096  -0.00019   0.00006  -0.00062  -0.00057   1.86040
    A4        2.21786   0.00013   0.00004   0.00014   0.00018   2.21804
    A5        1.84051  -0.00039   0.00003  -0.00057  -0.00055   1.83996
    A6        2.22481   0.00026  -0.00006   0.00043   0.00037   2.22518
    A7        2.23155  -0.00011   0.00007   0.00009   0.00016   2.23171
    A8        1.96182   0.00045  -0.00009   0.00127   0.00118   1.96300
    A9        2.08981  -0.00034   0.00002  -0.00135  -0.00133   2.08847
   A10        1.80086  -0.00051   0.00014  -0.00154  -0.00140   1.79946
   A11        1.96062   0.00063  -0.00013   0.00146   0.00133   1.96196
   A12        2.24644  -0.00001   0.00019   0.00163   0.00182   2.24825
   A13        2.07613  -0.00062  -0.00006  -0.00309  -0.00315   2.07298
    D1        0.00000   0.00000   0.00000   0.00000   0.00000   0.00000
    D2        3.14159   0.00000   0.00000   0.00000   0.00000   3.14159
    D3        3.14159   0.00000   0.00000   0.00000   0.00000   3.14159
    D4        0.00000   0.00000   0.00000   0.00000   0.00000   0.00000
    D5        3.14159   0.00000   0.00000   0.00000   0.00000   3.14159
    D6        0.00000   0.00000   0.00000   0.00000   0.00000   0.00000
    D7        0.00000   0.00000   0.00000   0.00000   0.00000   0.00000
    D8        3.14159   0.00000   0.00000   0.00000   0.00000   3.14159
    D9        3.14159   0.00000   0.00000   0.00000   0.00000   3.14159
   D10        0.00000   0.00000   0.00000   0.00000   0.00000   0.00000
   D11        0.00000   0.00000   0.00000   0.00000   0.00000   0.00000
   D12        3.14159   0.00000   0.00000   0.00000   0.00000   3.14159
   D13        0.00000   0.00000   0.00000   0.00000   0.00000   0.00000
   D14        3.14159   0.00000   0.00000   0.00000   0.00000   3.14159
   D15        0.00000   0.00000   0.00000   0.00000   0.00000   0.00000
   D16        3.14159   0.00000   0.00000   0.00000   0.00000   3.14159
         Item               Value     Threshold  Converged?
 Maximum Force            0.001235     0.000450     NO 
 RMS     Force            0.000335     0.000300     NO 
 Maximum Displacement     0.003334     0.001800     NO 
 RMS     Displacement     0.000897     0.001200     YES
 Predicted change in Energy=-5.376939D-06
 GradGradGradGradGradGradGradGradGradGradGradGradGradGradGradGradGradGrad

                          Input orientation:                          
 ---------------------------------------------------------------------
 Center     Atomic     Atomic              Coordinates (Angstroms)
 Number     Number      Type              X           Y           Z
 ---------------------------------------------------------------------
    1          1             0       -1.884714    0.000000   -1.208588
    2          6             0       -0.946944    0.000000   -0.680086
    3          1             0        0.673466    0.000000   -2.176106
    4          6             0        0.354437    0.000000   -1.149256
    5          1             0        2.249348    0.000000    0.059324
    6          6             0        1.173707    0.000000    0.010099
    7          7             0        0.453925    0.000000    1.149521
    8          1             0       -1.619424    0.000000    1.365404
    9          7             0       -0.869617    0.000000    0.689144
 ---------------------------------------------------------------------
                    Distance matrix (angstroms):
                    1          2          3          4          5
     1  H    0.000000
     2  C    1.076443   0.000000
     3  H    2.735028   2.205403   0.000000
     4  C    2.239937   1.383370   1.075267   0.000000
     5  H    4.324127   3.280703   2.735060   2.247523   0.000000
     6  C    3.292285   2.230138   2.242707   1.419616   1.076767
     7  N    3.321131   2.304321   3.332866   2.300930   2.100494
     8  H    2.587627   2.153198   4.218962   3.196818   4.083289
     9  N    2.152164   1.371412   3.254345   2.208625   3.181921
                    6          7          8          9
     6  C    0.000000
     7  N    1.347728   0.000000
     8  H    3.104583   2.084558   0.000000
     9  N    2.153201   1.401324   1.009722   0.000000
 Stoichiometry    C3H4N2
 Framework group  CS[SG(C3H4N2)]
 Deg. of freedom   15
 Full point group                 CS      NOp   2
 Largest Abelian subgroup         CS      NOp   2
 Largest concise Abelian subgroup C1      NOp   1
                         Standard orientation:                         
 ---------------------------------------------------------------------
 Center     Atomic     Atomic              Coordinates (Angstroms)
 Number     Number      Type              X           Y           Z
 ---------------------------------------------------------------------
    1          1             0        2.117735    0.726152    0.000000
    2          6             0        1.121024    0.319585    0.000000
    3          1             0        1.286754   -1.879582    0.000000
    4          6             0        0.680255   -0.991687    0.000000
    5          1             0       -1.443981   -1.725838    0.000000
    6          6             0       -0.737206   -0.913498    0.000000
    7          7             0       -1.182970    0.358376    0.000000
    8          1             0       -0.064158    2.117251    0.000000
    9          7             0        0.000000    1.109569    0.000000
 ---------------------------------------------------------------------
 Rotational constants (GHZ):      9.4170279      9.1872875      4.6503696
 Isotopes: H-1,C-12,H-1,C-12,H-1,C-12,N-14,H-1,N-14
 Standard basis: 3-21G (6D, 7F)
 There are    43 symmetry adapted basis functions of A'  symmetry.
 There are    10 symmetry adapted basis functions of A"  symmetry.
 Crude estimate of integral set expansion from redundant integrals=1.000.
 Integral buffers will be    262144 words long.
 Raffenetti 2 integral format.
 Two-electron integral symmetry is turned on.
    53 basis functions       87 primitive gaussians
    18 alpha electrons       18 beta electrons
       nuclear repulsion energy       161.0107962172 Hartrees.
 One-electron integrals computed using PRISM.
 NBasis=    53 RedAO= T  NBF=    43    10
 NBsUse=    53 1.00D-04 NBFU=    43    10
 Initial guess read from the read-write file:
 Initial guess orbital symmetries:
       Occupied  (A') (A') (A') (A') (A') (A') (A') (A') (A') (A')
                 (A') (A') (A') (A") (A') (A') (A") (A")
       Virtual   (A") (A") (A') (A') (A') (A') (A') (A') (A') (A')
                 (A') (A') (A") (A') (A') (A") (A') (A") (A') (A')
                 (A') (A') (A") (A') (A") (A') (A') (A') (A') (A')
                 (A') (A') (A') (A') (A')
 Requested convergence on RMS density matrix=1.00D-08 within  64 cycles.
 Requested convergence on MAX density matrix=1.00D-06.
 Keep R1 and R2 integrals in memory in canonical form, NReq=     2463126.
[...]
 IR Inten    --     1.3615                 0.3283                83.7053
 Raman Activ --     0.0000                 0.0000                 0.0000
 Depolar     --     0.0000                 0.0000                 0.0000
 Atom AN      X      Y      Z        X      Y      Z        X      Y      Z
   1   1     0.79   0.32   0.00    -0.41  -0.17   0.00     0.02   0.01   0.00
   2   6    -0.07  -0.03   0.00     0.04   0.02   0.00     0.00   0.00   0.00
   3   1    -0.18   0.25   0.00    -0.47   0.69   0.00     0.00   0.00   0.00
   4   6     0.02  -0.02   0.00     0.04  -0.07   0.00     0.00   0.00   0.00
   5   1     0.26   0.30   0.00     0.20   0.23   0.00     0.00   0.00   0.00
   6   6    -0.02  -0.03   0.00    -0.02  -0.02   0.00     0.00   0.00   0.00
   7   7     0.00   0.00   0.00     0.00   0.00   0.00     0.00   0.00   0.00
   8   1     0.00  -0.02   0.00     0.00   0.02   0.00    -0.07   0.99   0.00
   9   7     0.00   0.00   0.00     0.00   0.00   0.00     0.01  -0.08   0.00

 -------------------
 - Thermochemistry -
 -------------------
 Temperature   298.150 Kelvin.  Pressure   1.00000 Atm.
 Atom  1 has atomic number  1 and mass   1.00783
 Atom  2 has atomic number  6 and mass  12.00000
 Atom  3 has atomic number  1 and mass   1.00783
 Atom  4 has atomic number  6 and mass  12.00000
 Atom  5 has atomic number  1 and mass   1.00783
 Atom  6 has atomic number  6 and mass  12.00000
 Atom  7 has atomic number  7 and mass  14.00307
 Atom  8 has atomic number  1 and mass   1.00783
 Atom  9 has atomic number  7 and mass  14.00307
 Molecular mass:    68.03745 amu.
 Principal axes and moments of inertia in atomic units:
                           1         2         3
     EIGENVALUES --   191.64658 196.43896 388.08554
           X            0.99422   0.10739   0.00000
           Y           -0.10739   0.99422   0.00000
           Z            0.00000   0.00000   1.00000
 THIS MOLECULE IS AN ASYMMETRIC TOP.
 ROTATIONAL SYMMETRY NUMBER  1.
 ROTATIONAL TEMPERATURES (KELVIN)      0.45194     0.44092     0.22318
 ROTATIONAL CONSTANTS (GHZ)            9.41703     9.18729     4.65037
 Zero-point vibrational energy     186773.3 (Joules/Mol)
                                   44.63988 (Kcal/Mol)
 WARNING-- EXPLICIT CONSIDERATION OF   1 DEGREES OF FREEDOM AS
           VIBRATIONS MAY CAUSE SIGNIFICANT ERROR
 VIBRATIONAL TEMPERATURES:    837.53   941.64   980.11  1129.29  1270.70
          (KELVIN)           1334.23  1359.76  1372.59  1413.32  1536.88
                             1617.79  1656.66  1794.36  1953.02  2009.72
                             2071.04  2216.13  4722.31  4731.45  4768.29
                             5210.24
 
 Zero-point correction=                           0.071138 (Hartree/Particle)
 Thermal correction to Energy=                    0.074824
 Thermal correction to Enthalpy=                  0.075768
 Thermal correction to Gibbs Free Energy=         0.044865
 Sum of electronic and zero-point Energies=           -224.870174
 Sum of electronic and thermal Energies=              -224.866489
 Sum of electronic and thermal Enthalpies=            -224.865545
 Sum of electronic and thermal Free Energies=         -224.896448
 
                     E (Thermal)             CV                S
                      KCAL/MOL        CAL/MOL-KELVIN    CAL/MOL-KELVIN
 TOTAL                   46.953             13.118             65.041
 ELECTRONIC               0.000              0.000              0.000
 TRANSLATIONAL            0.889              2.981             38.570
 ROTATIONAL               0.889              2.981             24.195
 VIBRATIONAL             45.175              7.156              2.276
 VIBRATION  1             0.939              1.070              0.481
                       Q            LOG10(Q)             LN(Q)
 TOTAL BOT       0.231148D-20        -20.636110        -47.516399
 TOTAL V=0       0.121608D+13         12.084960         27.826650
 VIB (BOT)       0.242176D-32        -32.615870        -75.100815
 VIB (BOT)  1    0.261220D+00         -0.582994         -1.342393
 VIB (V=0)       0.127409D+01          0.105201          0.242233
 VIB (V=0)  1    0.106412D+01          0.026992          0.062152
 ELECTRONIC      0.100000D+01          0.000000          0.000000
 TRANSLATIONAL   0.220588D+08          7.343582         16.909224
 ROTATIONAL      0.432691D+05          4.636177         10.675193
 ***** Axes restored to original set *****
 -------------------------------------------------------------------
 Center     Atomic                   Forces (Hartrees/Bohr)
 Number     Number              X              Y              Z
 -------------------------------------------------------------------
    1          1           0.000049725    0.000000000   -0.000088212
    2          6          -0.000077858    0.000000000    0.000832330
    3          1          -0.000038301    0.000000000   -0.000050538
    4          6           0.000416924    0.000000000   -0.000386162
    5          1           0.000012783    0.000000000   -0.000028004
    6          6          -0.000330361    0.000000000    0.000008180
    7          7          -0.000187667    0.000000000    0.000111120
    8          1          -0.000015841    0.000000000    0.000057650
    9          7           0.000170596    0.000000000   -0.000456365
 -------------------------------------------------------------------
 Cartesian Forces:  Max     0.000832330 RMS     0.000230517

 GradGradGradGradGradGradGradGradGradGradGradGradGradGradGradGradGradGrad
 Berny optimization.
 Internal  Forces:  Max     0.000400989 RMS     0.000117374
 Search for a local minimum.
 Step number   1 out of a maximum of  48
 All quantities printed in internal units (Hartrees-Bohrs-Radians)
 Second derivative matrix not updated -- analytic derivatives used.
     Eigenvalues ---    0.00876   0.01337   0.01767   0.02902   0.06047
     Eigenvalues ---    0.06514   0.09807   0.10821   0.10990   0.11821
     Eigenvalues ---    0.20324   0.24888   0.30596   0.35135   0.37916
     Eigenvalues ---    0.38220   0.38668   0.41322   0.46541   0.47518
     Eigenvalues ---    0.543451000.000001000.000001000.000001000.00000
     Eigenvalues --- 1000.000001000.000001000.000001000.000001000.00000
     Eigenvalues --- 1000.000001000.000001000.000001000.000001000.00000
     Eigenvalues --- 1000.000001000.000001000.00000
 Angle between quadratic step and forces=  26.98 degrees.
 Linear search not attempted -- first point.
 Iteration  1 RMS(Cart)=  0.00040594 RMS(Int)=  0.00000020
 Iteration  2 RMS(Cart)=  0.00000023 RMS(Int)=  0.00000004
 Variable       Old X    -DE/DX   Delta X   Delta X   Delta X     New X
                                 (Linear)    (Quad)   (Total)
    R1        2.03418   0.00000   0.00000   0.00004   0.00004   2.03422
    R2        2.61419   0.00021   0.00000   0.00084   0.00084   2.61503
    R3        2.59159  -0.00040   0.00000  -0.00148  -0.00148   2.59011
    R4        2.03196   0.00004   0.00000   0.00003   0.00003   2.03199
    R5        2.68269  -0.00009   0.00000  -0.00021  -0.00021   2.68248
    R6        2.03479   0.00001   0.00000   0.00006   0.00006   2.03486
    R7        2.54684   0.00007   0.00000   0.00022   0.00022   2.54705
    R8        2.64812  -0.00022   0.00000  -0.00033  -0.00033   2.64779
    R9        1.90810   0.00005   0.00000   0.00011   0.00011   1.90821
    A1        2.28237  -0.00019   0.00000  -0.00152  -0.00152   2.28086
    A2        2.14042   0.00001   0.00000   0.00086   0.00086   2.14128
    A3        1.86040   0.00018   0.00000   0.00065   0.00065   1.86105
    A4        2.21804   0.00010   0.00000  -0.00013  -0.00013   2.21791
    A5        1.83996  -0.00030   0.00000  -0.00104  -0.00104   1.83892
    A6        2.22518   0.00021   0.00000   0.00117   0.00117   2.22635
    A7        2.23171  -0.00010   0.00000  -0.00043  -0.00043   2.23128
    A8        1.96300   0.00013   0.00000   0.00053   0.00053   1.96353
    A9        2.08847  -0.00003   0.00000  -0.00010  -0.00010   2.08837
   A10        1.79946  -0.00007   0.00000  -0.00034  -0.00034   1.79912
   A11        1.96196   0.00006   0.00000   0.00020   0.00020   1.96216
   A12        2.24825   0.00000   0.00000   0.00014   0.00014   2.24839
   A13        2.07298  -0.00006   0.00000  -0.00034  -0.00034   2.07263
    D1        0.00000   0.00000   0.00000   0.00000   0.00000   0.00000
    D2        3.14159   0.00000   0.00000   0.00000   0.00000   3.14159
    D3        3.14159   0.00000   0.00000   0.00000   0.00000   3.14159
    D4        0.00000   0.00000   0.00000   0.00000   0.00000   0.00000
    D5        3.14159   0.00000   0.00000   0.00000   0.00000   3.14159
    D6        0.00000   0.00000   0.00000   0.00000   0.00000   0.00000
    D7        0.00000   0.00000   0.00000   0.00000   0.00000   0.00000
    D8        3.14159   0.00000   0.00000   0.00000   0.00000   3.14159
    D9        3.14159   0.00000   0.00000   0.00000   0.00000   3.14159
   D10        0.00000   0.00000   0.00000   0.00000   0.00000   0.00000
   D11        0.00000   0.00000   0.00000   0.00000   0.00000   0.00000
   D12        3.14159   0.00000   0.00000   0.00000   0.00000   3.14159
   D13        0.00000   0.00000   0.00000   0.00000   0.00000   0.00000
   D14        3.14159   0.00000   0.00000   0.00000   0.00000   3.14159
   D15        0.00000   0.00000   0.00000   0.00000   0.00000   0.00000
   D16        3.14159   0.00000   0.00000   0.00000   0.00000   3.14159
         Item               Value     Threshold  Converged?
 Maximum Force            0.000401     0.000450     YES
 RMS     Force            0.000117     0.000300     YES
 Maximum Displacement     0.001307     0.001800     YES
 RMS     Displacement     0.000406     0.001200     YES
 Predicted change in Energy=-1.011050D-06
 Optimization completed.
    -- Stationary point found.
                         ----------------------------
                         !   Optimized Parameters   !
                         ! (Angstroms and Degrees)  !
 ------------------------                            -------------------------
 ! Name  Definition              Value          Derivative Info.             !
 -----------------------------------------------------------------------------
 ! R1    R(1,2)                  1.0764         -DE/DX =    0.               !
 ! R2    R(2,4)                  1.3834         -DE/DX =    0.0002           !
 ! R3    R(2,9)                  1.3714         -DE/DX =   -0.0004           !
 ! R4    R(3,4)                  1.0753         -DE/DX =    0.               !
 ! R5    R(4,6)                  1.4196         -DE/DX =   -0.0001           !
 ! R6    R(5,6)                  1.0768         -DE/DX =    0.               !
 ! R7    R(6,7)                  1.3477         -DE/DX =    0.0001           !
 ! R8    R(7,9)                  1.4013         -DE/DX =   -0.0002           !
 ! R9    R(8,9)                  1.0097         -DE/DX =    0.0001           !
 ! A1    A(1,2,4)              130.7704         -DE/DX =   -0.0002           !
 ! A2    A(1,2,9)              122.6367         -DE/DX =    0.               !
 ! A3    A(4,2,9)              106.5928         -DE/DX =    0.0002           !
 ! A4    A(2,4,3)              127.0845         -DE/DX =    0.0001           !
 ! A5    A(2,4,6)              105.4222         -DE/DX =   -0.0003           !
 ! A6    A(3,4,6)              127.4933         -DE/DX =    0.0002           !
 ! A7    A(4,6,5)              127.8676         -DE/DX =   -0.0001           !
 ! A8    A(4,6,7)              112.4717         -DE/DX =    0.0001           !
 ! A9    A(5,6,7)              119.6607         -DE/DX =    0.               !
 ! A10   A(6,7,9)              103.1014         -DE/DX =   -0.0001           !
 ! A11   A(2,9,7)              112.4119         -DE/DX =    0.0001           !
 ! A12   A(2,9,8)              128.8154         -DE/DX =    0.               !
 ! A13   A(7,9,8)              118.7727         -DE/DX =   -0.0001           !
 ! D1    D(1,2,4,3)              0.             -DE/DX =    0.               !
 ! D2    D(1,2,4,6)            180.             -DE/DX =    0.               !
 ! D3    D(9,2,4,3)            180.             -DE/DX =    0.               !
 ! D4    D(9,2,4,6)              0.             -DE/DX =    0.               !
 ! D5    D(1,2,9,7)            180.             -DE/DX =    0.               !
 ! D6    D(1,2,9,8)              0.             -DE/DX =    0.               !
 ! D7    D(4,2,9,7)              0.             -DE/DX =    0.               !
 ! D8    D(4,2,9,8)            180.             -DE/DX =    0.               !
 ! D9    D(2,4,6,5)            180.             -DE/DX =    0.               !
 ! D10   D(2,4,6,7)              0.             -DE/DX =    0.               !
 ! D11   D(3,4,6,5)              0.             -DE/DX =    0.               !
 ! D12   D(3,4,6,7)            180.             -DE/DX =    0.               !
 ! D13   D(4,6,7,9)              0.             -DE/DX =    0.               !
 ! D14   D(5,6,7,9)            180.             -DE/DX =    0.               !
 ! D15   D(6,7,9,2)              0.             -DE/DX =    0.               !
 ! D16   D(6,7,9,8)            180.             -DE/DX =    0.               !
 -----------------------------------------------------------------------------
 GradGradGradGradGradGradGradGradGradGradGradGradGradGradGradGradGradGrad

 1\1\GINC-QCHEM8\Freq\RB3LYP\3-21G\C3H4N2\RDJ3\11-Oct-1999\0\\#N GEOM=A
 LLCHECK GUESS=TCHECK RB3LYP/3-21G FREQ\\1H pyrazole C3H4N2 casno=28813
 1\\0,1\H,-1.8846041551,0.,-1.2084556348\C,-0.9468333753,0.,-0.67995349
 56\H,0.6735764167,0.,-2.175973413\C,0.3545468166,0.,-1.1491241309\H,2.
 249458712,0.,0.0594565815\C,1.1738176428,0.,0.0102316862\N,0.454034807
 5,0.,1.149653675\H,-1.6193141251,0.,1.3655366383\N,-0.869506715,0.,0.6
 892765349\\Version=x86-Linux-G98RevA.4\State=1-A'\HF=-224.9413126\RMSD
 =4.031e-09\RMSF=2.305e-04\Dipole=-0.8088932,0.,-0.4343105\DipoleDeriv=
 0.0079818,0.0000389,-0.0438203,0.0000806,0.1950729,0.000009,-0.0435857
 ,0.0000169,0.0720459,0.113542,-0.0001474,-0.0994856,-0.0001751,-0.0626
 865,0.0000599,-0.3040873,0.0000688,0.2054267,0.096417,0.0000456,0.0292
 333,0.0000157,0.1697273,0.0000004,0.0340892,-0.000126,-0.0264273,-0.28
 21024,0.0000429,0.0002912,-0.0000319,-0.2290872,0.0000431,-0.0491163,0
 .00002,-0.0147299,-0.0406523,-0.0000465,-0.0224214,0.0000349,0.1558352
 ,0.000007,-0.0094351,0.0000049,0.0887225,0.2007567,0.0001373,0.1363261
 ,0.0000199,-0.0867991,-0.0000876,0.1719774,-0.0000204,0.0701008,0.0766
 737,-0.0000575,-0.165385,-0.0000386,-0.1903204,0.0000847,-0.0306343,0.
 0000366,-0.430048,0.2231888,0.0000654,-0.0305949,-0.0000005,0.3645206,
 0.0000038,-0.0446294,-0.0000692,0.2310029,-0.3958045,-0.0000787,0.1958
 566,0.000095,-0.3162629,-0.0001202,0.2754214,0.0000683,-0.1960929\Pola
 r=46.5056965,-0.0001081,12.1667033,-0.6554474,-0.000507,41.6628076\PG=
 CS [SG(C3H4N2)]\NImag=0\\0.30086631,-0.00000329,0.02186483,0.14070481,
 -0.00000236,0.13147836,-0.29607867,0.00000344,-0.12500663,0.84706650,0
 .00000859,-0.02896616,0.00000570,-0.00000991,0.13155915,-0.13332110,0.
 00000092,-0.12680292,0.11291520,-0.00000191,0.60245960,0.00027387,-0.0
 0000101,-0.00098611,0.00093122,0.00000274,0.02895609,0.08210104,-0.000
 00068,-0.00320597,-0.00000049,-0.00000298,-0.00020211,0.00000309,0.000
 00096,0.02437629,0.00063306,0.00000291,-0.00002513,-0.00494330,-0.0000
 0763,-0.00088127,-0.09494034,-0.00000265,0.35359703,-0.00772052,0.0000
 0374,0.01108523,-0.32342182,-0.00000817,0.06708196,-0.08776084,0.00000
 262,0.08885902,0.59980565,0.00000279,0.00262278,0.00000180,-0.00000361
 ,-0.07286022,-0.00000134,0.00000089,-0.03095553,-0.00000239,-0.0000020
 2,0.13326169,-0.01676595,-0.00000137,0.01269889,0.08917461,0.00000265,
 -0.13830016,0.08569670,-0.00000049,-0.34016650,-0.12975523,0.00000090,
 0.82104847,-0.00034062,0.00000263,0.00020120,-0.00008724,-0.00000662,-
 0.00050822,-0.00014963,0.00000070,-0.00073999,-0.00533798,-0.00000270,
 0.00508776,0.37867498,-0.00000175,0.00065763,-0.00000130,0.00000030,0.
 00438376,0.00000163,-0.00000005,-0.00205955,-0.00000019,0.00000219,0.0
 0171607,-0.00000099,0.00000136,0.02573008,-0.00096896,0.00000010,0.000
 95233,-0.00307133,-0.00000034,-0.00636368,0.00097937,0.00000033,0.0003
 1227,-0.02378168,-0.00000018,0.00668757,0.01444896,0.00000012,0.056532
 19,-0.00386716,-0.00000421,0.00490768,-0.07097441,0.00000959,-0.007888
 40,0.01280324,0.00000346,0.01414608,-0.16772419,0.00000237,-0.08440403
 ,-0.36043743,-0.00000121,-0.02499433,0.87245056,-0.00000269,0.00534229
 ,-0.00000168,0.00000755,0.01500520,-0.00000080,-0.00000194,-0.00150249
 ,0.00000549,0.00000014,-0.07401340,0.,0.00000261,-0.03321653,-0.000000
 01,-0.00000492,0.14763585,0.00075632,-0.00000333,-0.00258637,-0.069080
 21,0.00000989,0.03199685,-0.01800644,-0.00000332,-0.01086756,-0.056532
 78,0.00000426,-0.20692272,-0.01736593,-0.00000026,-0.05818314,-0.00151
 844,-0.00000515,0.54021400,0.00127536,-0.00000141,0.00119806,-0.054980
 34,0.00000342,-0.04994163,-0.00220589,-0.00000440,-0.00078910,0.020045
 40,0.00000219,0.03323357,-0.01306623,-0.00000103,0.02926262,-0.1548022
 6,0.00000025,0.12379136,0.39128795,0.00000315,0.00572923,0.00000211,-0
 .00000637,0.01617950,-0.00000048,0.00000155,0.00611428,-0.00000425,-0.
 00000156,0.02256542,0.00000016,-0.00000269,-0.00674189,-0.00000009,0.0
 0000419,-0.07215750,0.00000552,0.00000059,0.09888884,0.00314024,0.0000
 0089,-0.00426181,-0.01915673,-0.00000313,-0.06837431,-0.00556126,0.000
 00271,-0.00247864,-0.03099499,-0.00000208,-0.08389652,-0.00282698,-0.0
 0000016,0.00330945,0.07334802,0.00000203,-0.25552587,-0.05347583,-0.00
 000226,0.49633576,-0.00022947,0.00000109,0.00058635,0.00934479,-0.0000
 0214,-0.00710044,0.00058532,0.00000367,-0.00002607,0.00197422,-0.00000
 132,-0.00343536,-0.00027296,0.00000090,0.00136355,-0.00646689,-0.00000
 096,-0.00564591,-0.01676128,0.00000007,0.02512260,0.28411038,-0.000000
 49,-0.00152954,-0.00000039,0.00000062,-0.00634562,0.00000043,-0.000000
 16,0.00203683,0.00000026,0.00000010,0.00343564,-0.00000048,0.00000067,
 0.00187557,0.,-0.00000089,0.00427228,0.00000057,-0.00000005,-0.0102812
 5,-0.00000037,-0.00000003,0.01383932,-0.00071134,-0.00000028,-0.000156
 29,0.02648018,0.00000056,-0.00492121,0.00121479,-0.00000332,0.00012298
 ,-0.00266708,0.00000086,-0.00615037,-0.00044653,-0.00000063,0.00107267
 ,-0.00695907,0.00000117,0.00033606,-0.01216039,-0.00000033,0.01390872,
 -0.19956798,0.00000008,0.24632858,0.00582093,-0.00000099,-0.03269059,-
 0.11180006,0.00000249,-0.01019347,-0.00657831,-0.00000334,-0.00219937,
 -0.02985993,0.00000140,0.02116793,0.00101713,-0.00000071,0.00676179,-0
 .12098147,-0.00000003,0.04360203,-0.17079269,0.00000105,0.01040493,-0.
 27228409,0.00000023,0.19481741,0.70545847,-0.00000563,-0.00251509,-0.0
 0000339,0.00001096,-0.05875350,-0.00000154,-0.00000297,0.00539824,0.00
 000844,0.00000296,0.01422755,-0.00000036,0.00000404,0.00765486,0.00000
 005,-0.00000838,0.00863430,-0.00000818,0.00000043,-0.06029662,0.000002
 36,-0.00000130,-0.00730322,0.00000190,-0.00000010,0.09295348,0.0065329
 2,0.00000252,-0.01129706,-0.00731181,-0.00000578,-0.28881292,0.0026471
 8,0.00000413,0.00038684,0.07670556,-0.00000183,-0.06499869,0.00214974,
 0.00000177,-0.00431968,0.03336246,-0.00000105,-0.03846126,-0.07111865,
 -0.00000037,-0.09901678,0.18870324,-0.00000011,-0.25054115,-0.23167064
 ,0.00000072,0.75706069\\-0.00004972,0.,0.00008821,0.00007786,0.,-0.000
 83233,0.00003830,0.,0.00005054,-0.00041692,0.,0.00038616,-0.00001278,0
 .,0.00002800,0.00033036,0.,-0.00000818,0.00018767,0.,-0.00011112,0.000
 01584,0.,-0.00005765,-0.00017060,0.,0.00045636\\\@


 ... THE UNIVERSE IS NOT ONLY QUEERER THAN WE SUPPOSE,
 BUT QUEERER THAN WE CAN SUPPOSE ... 

                                   -- J. B. S. HALDANE
 Job cpu time:  0 days  0 hours 11 minutes 53.5 seconds.
 File lengths (MBytes):  RWF=   10 Int=    0 D2E=    0 Chk=    3 Scr=    1
 Normal termination of Gaussian 98.
