 Entering Link 1 = C:\G03W\l1.exe PID=      1712.
  
 Copyright (c) 1988,1990,1992,1993,1995,1998,2003, Gaussian, Inc.
                  All Rights Reserved.
  
 This is the Gaussian(R) 03 program.  It is based on the
 the Gaussian(R) 98 system (copyright 1998, Gaussian, Inc.),
 the Gaussian(R) 94 system (copyright 1995, Gaussian, Inc.),
 the Gaussian 92(TM) system (copyright 1992, Gaussian, Inc.),
 the Gaussian 90(TM) system (copyright 1990, Gaussian, Inc.),
 the Gaussian 88(TM) system (copyright 1988, Gaussian, Inc.),
 the Gaussian 86(TM) system (copyright 1986, Carnegie Mellon
 University), and the Gaussian 82(TM) system (copyright 1983,
 Carnegie Mellon University). Gaussian is a federally registered
 trademark of Gaussian, Inc.
  
 This software contains proprietary and confidential information,
 including trade secrets, belonging to Gaussian, Inc.
  
 This software is provided under written license and may be
 used, copied, transmitted, or stored only in accord with that
 written license.
  
 The following legend is applicable only to US Government
 contracts under DFARS:
  
                    RESTRICTED RIGHTS LEGEND
  
 Use, duplication or disclosure by the US Government is subject
 to restrictions as set forth in subparagraph (c)(1)(ii) of the
 Rights in Technical Data and Computer Software clause at DFARS
 252.227-7013.
  
 Gaussian, Inc.
 Carnegie Office Park, Building 6, Pittsburgh, PA 15106 USA
  
 The following legend is applicable only to US Government
 contracts under FAR:
  
                    RESTRICTED RIGHTS LEGEND
  
 Use, reproduction and disclosure by the US Government is subject
 to restrictions as set forth in subparagraph (c) of the
 Commercial Computer Software - Restricted Rights clause at FAR
 52.227-19.
  
 Gaussian, Inc.
 Carnegie Office Park, Building 6, Pittsburgh, PA 15106 USA
  
  
 ---------------------------------------------------------------
 Warning -- This program may not be used in any manner that
 competes with the business of Gaussian, Inc. or will provide
 assistance to any competitor of Gaussian, Inc.  The licensee
 of this program is prohibited from giving any competitor of
 Gaussian, Inc. access to this program.  By using this program,
 the user acknowledges that Gaussian, Inc. is engaged in the
 business of creating and licensing software in the field of
 computational chemistry and represents and warrants to the
 licensee that it is not a competitor of Gaussian, Inc. and that
 it will not use this program in any manner prohibited above.
 ---------------------------------------------------------------
  

 Cite this work as:
 Gaussian 03, Revision B.05,
 M. J. Frisch, G. W. Trucks, H. B. Schlegel, G. E. Scuseria, 
 M. A. Robb, J. R. Cheeseman, J. A. Montgomery, Jr., T. Vreven, 
 K. N. Kudin, J. C. Burant, J. M. Millam, S. S. Iyengar, J. Tomasi, 
 V. Barone, B. Mennucci, M. Cossi, G. Scalmani, N. Rega, 
 G. A. Petersson, H. Nakatsuji, M. Hada, M. Ehara, K. Toyota, 
 R. Fukuda, J. Hasegawa, M. Ishida, T. Nakajima, Y. Honda, O. Kitao, 
 H. Nakai, M. Klene, X. Li, J. E. Knox, H. P. Hratchian, J. B. Cross, 
 C. Adamo, J. Jaramillo, R. Gomperts, R. E. Stratmann, O. Yazyev, 
 A. J. Austin, R. Cammi, C. Pomelli, J. W. Ochterski, P. Y. Ayala, 
 K. Morokuma, G. A. Voth, P. Salvador, J. J. Dannenberg, 
 V. G. Zakrzewski, S. Dapprich, A. D. Daniels, M. C. Strain, 
 O. Farkas, D. K. Malick, A. D. Rabuck, K. Raghavachari, 
 J. B. Foresman, J. V. Ortiz, Q. Cui, A. G. Baboul, S. Clifford, 
 J. Cioslowski, B. B. Stefanov, G. Liu, A. Liashenko, P. Piskorz, 
 I. Komaromi, R. L. Martin, D. J. Fox, T. Keith, M. A. Al-Laham, 
 C. Y. Peng, A. Nanayakkara, M. Challacombe, P. M. W. Gill, 
 B. Johnson, W. Chen, M. W. Wong, C. Gonzalez, and J. A. Pople, 
 Gaussian, Inc., Pittsburgh PA, 2003.
 
 **********************************************
 Gaussian 03:  x86-Win32-G03RevB.05  8-Nov-2003
                  17-May-2004 
 **********************************************
 %mem=56000000
 Default route:  MaxDisk=2000MB
 ---------------------------
 #BLYP/6-31G(2df,p) opt freq
 ---------------------------
 1/14=-1,18=20,26=3,38=1/1,3;
 2/9=110,17=6,18=5,40=1/2;
 3/5=1,6=6,7=104,11=2,16=1,25=1,30=1,74=402/1,2,3;
 4//1;
 5/5=2,38=5/2;
 6/7=2,8=2,9=2,10=2,28=1/1;
 7//1,2,3,16;
 1/14=-1,18=20/3(1);
 99//99;
 2/9=110/2;
 3/5=1,6=6,7=104,11=2,16=1,25=1,30=1,74=402/1,2,3;
 4/5=5,16=3/1;
 5/5=2,38=5/2;
 7//1,2,3,16;
 1/14=-1,18=20/3(-5);
 2/9=110/2;
 6/7=2,8=2,9=2,10=2,19=2,28=1/1;
 99/9=1/99;
 ----------------------------------------
 1himidaz casno=288324 method=13 basis=19
 ----------------------------------------
 Symbolic Z-matrix:
 Charge =  0 Multiplicity = 1
 N                    -0.74106  -0.96596   0. 
 H                    -0.01273   2.08825   0. 
 C                     1.10986   0.28827   0. 
 H                     2.10334   0.68144   0. 
 C                     0.63018  -0.97392   0. 
 H                     1.18224  -1.89044   0. 
 H                    -2.07716   0.65597   0. 
 C                    -1.07476   0.2791    0. 
 N                     0.        1.09512   0. 
 

 GradGradGradGradGradGradGradGradGradGradGradGradGradGradGradGradGradGrad
 Berny optimization.
 Initialization pass.
                           ----------------------------
                           !    Initial Parameters    !
                           ! (Angstroms and Degrees)  !
 --------------------------                            --------------------------
 ! Name  Definition              Value          Derivative Info.                !
 --------------------------------------------------------------------------------
 ! R1    R(1,5)                  1.3713         estimate D2E/DX2                !
 ! R2    R(1,8)                  1.289          estimate D2E/DX2                !
 ! R3    R(2,9)                  0.9932         estimate D2E/DX2                !
 ! R4    R(3,4)                  1.0684         estimate D2E/DX2                !
 ! R5    R(3,5)                  1.3503         estimate D2E/DX2                !
 ! R6    R(3,9)                  1.3721         estimate D2E/DX2                !
 ! R7    R(5,6)                  1.0699         estimate D2E/DX2                !
 ! R8    R(7,8)                  1.0709         estimate D2E/DX2                !
 ! R9    R(8,9)                  1.3494         estimate D2E/DX2                !
 ! A1    A(5,1,8)              105.3363         estimate D2E/DX2                !
 ! A2    A(4,3,5)              132.3996         estimate D2E/DX2                !
 ! A3    A(4,3,9)              122.3927         estimate D2E/DX2                !
 ! A4    A(5,3,9)              105.2077         estimate D2E/DX2                !
 ! A5    A(1,5,3)              110.476          estimate D2E/DX2                !
 ! A6    A(1,5,6)              121.3948         estimate D2E/DX2                !
 ! A7    A(3,5,6)              128.1292         estimate D2E/DX2                !
 ! A8    A(1,8,7)              125.6083         estimate D2E/DX2                !
 ! A9    A(1,8,9)              112.2043         estimate D2E/DX2                !
 ! A10   A(7,8,9)              122.1873         estimate D2E/DX2                !
 ! A11   A(2,9,3)              126.7509         estimate D2E/DX2                !
 ! A12   A(2,9,8)              126.4734         estimate D2E/DX2                !
 ! A13   A(3,9,8)              106.7757         estimate D2E/DX2                !
 ! D1    D(8,1,5,3)              0.0            estimate D2E/DX2                !
 ! D2    D(8,1,5,6)            180.0            estimate D2E/DX2                !
 ! D3    D(5,1,8,7)            180.0            estimate D2E/DX2                !
 ! D4    D(5,1,8,9)              0.0            estimate D2E/DX2                !
 ! D5    D(4,3,5,1)            180.0            estimate D2E/DX2                !
 ! D6    D(4,3,5,6)              0.0            estimate D2E/DX2                !
 ! D7    D(9,3,5,1)              0.0            estimate D2E/DX2                !
 ! D8    D(9,3,5,6)            180.0            estimate D2E/DX2                !
 ! D9    D(4,3,9,2)              0.0            estimate D2E/DX2                !
 ! D10   D(4,3,9,8)            180.0            estimate D2E/DX2                !
 ! D11   D(5,3,9,2)            180.0            estimate D2E/DX2                !
 ! D12   D(5,3,9,8)              0.0            estimate D2E/DX2                !
 ! D13   D(1,8,9,2)            180.0            estimate D2E/DX2                !
 ! D14   D(1,8,9,3)              0.0            estimate D2E/DX2                !
 ! D15   D(7,8,9,2)              0.0            estimate D2E/DX2                !
 ! D16   D(7,8,9,3)            180.0            estimate D2E/DX2                !
 --------------------------------------------------------------------------------
 Trust Radius=3.00D-01 FncErr=1.00D-07 GrdErr=1.00D-06
 Number of steps in this run=  48 maximum allowed number of steps= 100.
 GradGradGradGradGradGradGradGradGradGradGradGradGradGradGradGradGradGrad

                          Input orientation:                          
 ---------------------------------------------------------------------
 Center     Atomic     Atomic              Coordinates (Angstroms)
 Number     Number      Type              X           Y           Z
 ---------------------------------------------------------------------
    1          7             0       -0.741059   -0.965959    0.000000
    2          1             0       -0.012734    2.088247    0.000000
    3          6             0        1.109862    0.288272    0.000000
    4          1             0        2.103339    0.681436    0.000000
    5          6             0        0.630182   -0.973920    0.000000
    6          1             0        1.182239   -1.890444    0.000000
    7          1             0       -2.077162    0.655969    0.000000
    8          6             0       -1.074756    0.279096    0.000000
    9          7             0        0.000000    1.095117    0.000000
 ---------------------------------------------------------------------
                    Distance matrix (angstroms):
                    1          2          3          4          5
     1  N    0.000000
     2  H    3.139846   0.000000
     3  C    2.235845   2.121351   0.000000
     4  H    3.287021   2.541040   1.068445   0.000000
     5  C    1.371264   3.128931   1.350267   2.215941   0.000000
     6  H    2.133951   4.154268   2.179918   2.731848   1.069945
     7  H    2.101386   2.512625   3.208165   4.180579   3.160103
     8  C    1.288998   2.097837   2.184637   3.203461   2.115860
     9  N    2.190252   0.993212   1.372149   2.143634   2.162879
                    6          7          8          9
     6  H    0.000000
     7  H    4.136171   0.000000
     8  C    3.130644   1.070911   0.000000
     9  N    3.211116   2.123076   1.349441   0.000000
 Stoichiometry    C3H4N2
 Framework group  CS[SG(C3H4N2)]
 Deg. of freedom    15
 Full point group                 CS      NOp   2
 Largest Abelian subgroup         CS      NOp   2
 Largest concise Abelian subgroup C1      NOp   1
                         Standard orientation:                         
 ---------------------------------------------------------------------
 Center     Atomic     Atomic              Coordinates (Angstroms)
 Number     Number      Type              X           Y           Z
 ---------------------------------------------------------------------
    1          7             0       -0.741059   -0.965959    0.000000
    2          1             0       -0.012734    2.088247    0.000000
    3          6             0        1.109862    0.288272    0.000000
    4          1             0        2.103339    0.681436    0.000000
    5          6             0        0.630182   -0.973920    0.000000
    6          1             0        1.182239   -1.890444    0.000000
    7          1             0       -2.077162    0.655969    0.000000
    8          6             0       -1.074756    0.279096    0.000000
    9          7             0        0.000000    1.095117    0.000000
 ---------------------------------------------------------------------
 Rotational constants (GHZ):      9.9280198      9.6396664      4.8908592
 Standard basis: 6-31G(2df,p) (6D, 7F)
 There are   111 symmetry adapted basis functions of A'  symmetry.
 There are    49 symmetry adapted basis functions of A"  symmetry.
 Integral buffers will be    262144 words long.
 Raffenetti 2 integral format.
 Two-electron integral symmetry is turned on.
   160 basis functions,   248 primitive gaussians,   175 cartesian basis functions
    18 alpha electrons       18 beta electrons
       nuclear repulsion energy       164.9791768016 Hartrees.
 NAtoms=    9 NActive=    9 NUniq=    9 SFac= 1.00D+00 NAtFMM=   60 Big=F
 One-electron integrals computed using PRISM.
 NBasis=   160 RedAO= T  NBF=   111    49
 NBsUse=   160 1.00D-06 NBFU=   111    49
 Harris functional with IExCor=  402 diagonalized for initial guess.
 ExpMin= 1.61D-01 ExpMax= 4.17D+03 ExpMxC= 6.27D+02 IAcc=1 IRadAn=         1 AccDes= 1.00D-06
 HarFok:  IExCor= 402 AccDes= 1.00D-06 IRadAn=         1 IDoV=1
 ScaDFX=  1.000000  1.000000  1.000000  1.000000
 Initial guess orbital symmetries:
       Occupied  (A') (A') (A') (A') (A') (A') (A') (A') (A') (A')
                 (A') (A') (A') (A') (A") (A') (A") (A")
       Virtual   (A") (A") (A') (A') (A') (A') (A') (A') (A') (A')
                 (A') (A') (A') (A") (A') (A') (A") (A') (A') (A")
                 (A") (A') (A') (A') (A") (A") (A') (A') (A') (A")
                 (A") (A') (A') (A") (A") (A') (A') (A') (A') (A')
                 (A') (A") (A") (A') (A') (A") (A') (A") (A') (A')
                 (A') (A') (A") (A') (A') (A') (A') (A") (A') (A')
                 (A') (A") (A') (A") (A') (A") (A') (A') (A") (A')
                 (A") (A') (A') (A') (A') (A") (A') (A") (A') (A")
                 (A') (A") (A') (A') (A') (A") (A') (A') (A") (A')
                 (A") (A') (A') (A') (A') (A") (A') (A') (A") (A')
                 (A") (A") (A') (A") (A") (A') (A") (A") (A") (A')
                 (A") (A') (A") (A") (A') (A") (A") (A') (A") (A')
                 (A') (A') (A') (A') (A') (A') (A") (A') (A') (A')
                 (A') (A') (A') (A') (A') (A') (A') (A') (A') (A')
                 (A') (A')
 The electronic state of the initial guess is 1-A'.
 Requested convergence on RMS density matrix=1.00D-08 within 128 cycles.
 Requested convergence on MAX density matrix=1.00D-06.
 Requested convergence on             energy=1.00D-06.
 No special actions if energy rises.
 Integral accuracy reduced to 1.0D-05 until final iterations.
 Initial convergence to 1.0D-05 achieved.  Increase integral accuracy.
 SCF Done:  E(RB-LYP) =  -226.145060371     A.U. after   15 cycles
             Convg  =    0.5669D-08             -V/T =  2.0052
             S**2   =   0.0000

 **********************************************************************

            Population analysis using the SCF density.

 **********************************************************************

 Orbital symmetries:
       Occupied  (A') (A') (A') (A') (A') (A') (A') (A') (A') (A')
                 (A') (A') (A') (A") (A') (A") (A') (A")
       Virtual   (A") (A") (A') (A') (A') (A') (A') (A') (A') (A')
                 (A') (A') (A") (A') (A') (A") (A') (A') (A") (A')
                 (A") (A') (A') (A") (A') (A') (A") (A') (A') (A")
                 (A") (A') (A') (A") (A') (A") (A') (A') (A') (A')
                 (A') (A") (A") (A') (A") (A') (A') (A") (A') (A')
                 (A') (A') (A") (A') (A') (A') (A') (A") (A') (A')
                 (A') (A") (A') (A") (A') (A") (A') (A') (A') (A")
                 (A") (A') (A') (A') (A') (A") (A') (A") (A') (A")
                 (A") (A') (A') (A') (A') (A") (A') (A') (A") (A')
                 (A") (A') (A') (A') (A') (A") (A') (A') (A") (A')
                 (A") (A") (A') (A") (A") (A") (A') (A") (A') (A")
                 (A") (A') (A") (A") (A') (A") (A") (A') (A") (A')
                 (A') (A') (A') (A') (A') (A") (A') (A') (A') (A')
                 (A') (A') (A') (A') (A') (A') (A') (A') (A') (A')
                 (A') (A')
 The electronic state is 1-A'.
 Alpha  occ. eigenvalues --  -14.06832 -13.98440  -9.95468  -9.93430  -9.91626
 Alpha  occ. eigenvalues --   -0.91915  -0.77928  -0.66104  -0.54497  -0.52014
 Alpha  occ. eigenvalues --   -0.49701  -0.38037  -0.37810  -0.37301  -0.34691
 Alpha  occ. eigenvalues --   -0.23355  -0.20525  -0.18937
 Alpha virt. eigenvalues --    0.01460   0.05148   0.05435   0.11390   0.12954
 Alpha virt. eigenvalues --    0.14810   0.19195   0.21827   0.25490   0.30156
 Alpha virt. eigenvalues --    0.37090   0.41957   0.44236   0.44837   0.49745
 Alpha virt. eigenvalues --    0.50314   0.52429   0.54535   0.54727   0.55714
 Alpha virt. eigenvalues --    0.62060   0.65684   0.67197   0.68445   0.69479
 Alpha virt. eigenvalues --    0.74657   0.75002   0.77308   0.78671   0.81834
 Alpha virt. eigenvalues --    0.82840   0.83628   0.86851   0.98932   0.99561
 Alpha virt. eigenvalues --    1.00180   1.06338   1.12970   1.17894   1.21859
 Alpha virt. eigenvalues --    1.27790   1.30052   1.31020   1.38701   1.41177
 Alpha virt. eigenvalues --    1.42582   1.45634   1.48627   1.51648   1.57273
 Alpha virt. eigenvalues --    1.63197   1.68638   1.70563   1.73304   1.81517
 Alpha virt. eigenvalues --    1.89336   1.92906   2.03336   2.07319   2.14676
 Alpha virt. eigenvalues --    2.20825   2.30428   2.32015   2.42658   2.44672
 Alpha virt. eigenvalues --    2.56984   2.59178   2.66373   2.77528   2.78714
 Alpha virt. eigenvalues --    2.81248   2.82898   2.91935   2.94141   2.98587
 Alpha virt. eigenvalues --    3.00643   3.03213   3.05443   3.09684   3.12038
 Alpha virt. eigenvalues --    3.13234   3.13249   3.15951   3.25002   3.29541
 Alpha virt. eigenvalues --    3.36347   3.38175   3.47228   3.53640   3.55389
 Alpha virt. eigenvalues --    3.58607   3.71814   3.72910   3.79116   3.86429
 Alpha virt. eigenvalues --    3.89978   3.94282   4.00776   4.02598   4.03846
 Alpha virt. eigenvalues --    4.07522   4.11142   4.16732   4.25188   4.32551
 Alpha virt. eigenvalues --    4.34903   4.35703   4.36915   4.41804   4.42526
 Alpha virt. eigenvalues --    4.45858   4.49570   4.50643   4.54760   4.59062
 Alpha virt. eigenvalues --    4.61432   4.65849   4.68912   4.71812   4.77419
 Alpha virt. eigenvalues --    4.78966   4.89473   4.92812   5.05316   5.12339
 Alpha virt. eigenvalues --    5.17802   5.18443   5.27463   5.35374   5.42056
 Alpha virt. eigenvalues --    5.53110   5.57948   5.84231   5.96831   6.19055
 Alpha virt. eigenvalues --    9.94237  10.31279  10.65737  11.18467  11.28294
 Alpha virt. eigenvalues --   14.33804  15.15948
          Condensed to atoms (all electrons):
              1          2          3          4          5          6
     1  N    6.239985   0.008738  -0.037890   0.007239   0.524557  -0.022718
     2  H    0.008738   0.485513  -0.034985   0.000162   0.005295  -0.000180
     3  C   -0.037890  -0.034985   4.893203   0.341956   0.617209  -0.051362
     4  H    0.007239   0.000162   0.341956   0.605802  -0.030120   0.001549
     5  C    0.524557   0.005295   0.617209  -0.030120   4.743941   0.361024
     6  H   -0.022718  -0.000180  -0.051362   0.001549   0.361024   0.620481
     7  H   -0.021033   0.000496   0.005813  -0.000200   0.007662  -0.000296
     8  C    0.603560  -0.037648  -0.079534   0.003693  -0.139801   0.006444
     9  N   -0.083495   0.333155   0.437902  -0.032248  -0.028455   0.003150
              7          8          9
     1  N   -0.021033   0.603560  -0.083495
     2  H    0.000496  -0.037648   0.333155
     3  C    0.005813  -0.079534   0.437902
     4  H   -0.000200   0.003693  -0.032248
     5  C    0.007662  -0.139801  -0.028455
     6  H   -0.000296   0.006444   0.003150
     7  H    0.596675   0.349487  -0.040737
     8  C    0.349487   4.789574   0.484047
     9  N   -0.040737   0.484047   6.099953
 Mulliken atomic charges:
              1
     1  N   -0.218943
     2  H    0.239454
     3  C   -0.092312
     4  H    0.102167
     5  C   -0.061312
     6  H    0.081907
     7  H    0.102133
     8  C    0.020177
     9  N   -0.173272
 Sum of Mulliken charges=   0.00000
 Atomic charges with hydrogens summed into heavy atoms:
              1
     1  N   -0.218943
     2  H    0.000000
     3  C    0.009855
     4  H    0.000000
     5  C    0.020595
     6  H    0.000000
     7  H    0.000000
     8  C    0.122310
     9  N    0.066182
 Sum of Mulliken charges=   0.00000
 Electronic spatial extent (au):  <R**2>=   279.5907
 Charge=     0.0000 electrons
 Dipole moment (field-independent basis, Debye):
    X=     1.0545    Y=     3.3388    Z=     0.0000  Tot=     3.5013
 Quadrupole moment (field-independent basis, Debye-Ang):
   XX=   -26.6861   YY=   -25.3928   ZZ=   -30.5158
   XY=    -2.8549   XZ=     0.0000   YZ=     0.0000
 Traceless Quadrupole moment (field-independent basis, Debye-Ang):
   XX=     0.8455   YY=     2.1387   ZZ=    -2.9842
   XY=    -2.8549   XZ=     0.0000   YZ=     0.0000
 Octapole moment (field-independent basis, Debye-Ang**2):
  XXX=     0.0898  YYY=    14.6985  ZZZ=     0.0000  XYY=     4.5900
  XXY=     5.4511  XXZ=     0.0000  XZZ=    -0.9119  YZZ=     0.9875
  YYZ=     0.0000  XYZ=     0.0000
 Hexadecapole moment (field-independent basis, Debye-Ang**3):
 XXXX=  -157.2560 YYYY=  -137.1879 ZZZZ=   -29.0136 XXXY=    -1.5170
 XXXZ=     0.0000 YYYX=    -6.7925 YYYZ=     0.0000 ZZZX=     0.0000
 ZZZY=     0.0000 XXYY=   -56.3107 XXZZ=   -36.4637 YYZZ=   -33.6445
 XXYZ=     0.0000 YYXZ=     0.0000 ZZXY=     0.7961
 N-N= 1.649791768016D+02 E-N=-8.567182510631D+02  KE= 2.249690177022D+02
 Symmetry A'   KE= 2.167306328350D+02
 Symmetry A"   KE= 8.238384867225D+00
 Calling FoFCou, ICntrl=  2527 FMM=F ISym2X=1 I1Cent= 0 ISCF1= 0.
 ***** Axes restored to original set *****
 -------------------------------------------------------------------
 Center     Atomic                   Forces (Hartrees/Bohr)
 Number     Number              X              Y              Z
 -------------------------------------------------------------------
    1          7          -0.005652124   -0.039898028    0.000000000
    2          1           0.000775200    0.019051813    0.000000000
    3          6           0.016542836    0.013950634    0.000000000
    4          1           0.009758527    0.005162664    0.000000000
    5          6           0.000970828   -0.020224948    0.000000000
    6          1           0.005903232   -0.009811772    0.000000000
    7          1          -0.010667035    0.005049148    0.000000000
    8          6          -0.024763095    0.019164576    0.000000000
    9          7           0.007131631    0.007555914    0.000000000
 -------------------------------------------------------------------
 Cartesian Forces:  Max     0.039898028 RMS     0.012687662

 GradGradGradGradGradGradGradGradGradGradGradGradGradGradGradGradGradGrad
 Berny optimization.
 Internal  Forces:  Max     0.040983710 RMS     0.011451346
 Search for a local minimum.
 Step number   1 out of a maximum of  48
 All quantities printed in internal units (Hartrees-Bohrs-Radians)
 Second derivative matrix not updated -- first step.
     Eigenvalues ---    0.02198   0.02341   0.02379   0.02551   0.02603
     Eigenvalues ---    0.02705   0.16000   0.16000   0.16000   0.16000
     Eigenvalues ---    0.22000   0.22911   0.37115   0.37237   0.37427
     Eigenvalues ---    0.45111   0.47811   0.48902   0.51454   0.54834
     Eigenvalues ---    0.671221000.000001000.000001000.000001000.00000
     Eigenvalues --- 1000.000001000.000001000.000001000.000001000.00000
     Eigenvalues --- 1000.000001000.000001000.000001000.000001000.00000
     Eigenvalues --- 1000.000001000.000001000.00000
 RFO step:  Lambda=-8.81046234D-03.
 Linear search not attempted -- first point.
 Iteration  1 RMS(Cart)=  0.02767125 RMS(Int)=  0.00005906
 Iteration  2 RMS(Cart)=  0.00007026 RMS(Int)=  0.00001460
 Iteration  3 RMS(Cart)=  0.00000000 RMS(Int)=  0.00001460
 Variable       Old X    -DE/DX   Delta X   Delta X   Delta X     New X
                                 (Linear)    (Quad)   (Total)
    R1        2.59131   0.01813   0.00000   0.03547   0.03547   2.62678
    R2        2.43585   0.04098   0.00000   0.05936   0.05939   2.49524
    R3        1.87690   0.01904   0.00000   0.03825   0.03825   1.91514
    R4        2.01907   0.01097   0.00000   0.02865   0.02865   2.04771
    R5        2.55164   0.03283   0.00000   0.05673   0.05671   2.60834
    R6        2.59299   0.01907   0.00000   0.03531   0.03530   2.62828
    R7        2.02190   0.01145   0.00000   0.03004   0.03004   2.05194
    R8        2.02373   0.01176   0.00000   0.03095   0.03095   2.05468
    R9        2.55007   0.02727   0.00000   0.04984   0.04986   2.59993
    A1        1.83847  -0.00122   0.00000   0.00265   0.00268   1.84115
    A2        2.31081   0.00005   0.00000   0.00657   0.00659   2.31740
    A3        2.13616  -0.00240   0.00000  -0.00796  -0.00793   2.12822
    A4        1.83622   0.00234   0.00000   0.00139   0.00135   1.83757
    A5        1.92817   0.00078   0.00000  -0.00083  -0.00086   1.92731
    A6        2.11874  -0.00039   0.00000   0.00041   0.00043   2.11917
    A7        2.23628  -0.00039   0.00000   0.00042   0.00043   2.23671
    A8        2.19228   0.00264   0.00000   0.00966   0.00964   2.20192
    A9        1.95834  -0.00331   0.00000  -0.00772  -0.00768   1.95065
   A10        2.13257   0.00068   0.00000  -0.00194  -0.00195   2.13062
   A11        2.21222  -0.00166   0.00000  -0.00790  -0.00790   2.20432
   A12        2.20738   0.00024   0.00000   0.00338   0.00338   2.21076
   A13        1.86359   0.00142   0.00000   0.00452   0.00452   1.86810
    D1        0.00000   0.00000   0.00000   0.00000   0.00000   0.00000
    D2        3.14159   0.00000   0.00000   0.00000   0.00000   3.14159
    D3        3.14159   0.00000   0.00000   0.00000   0.00000   3.14159
    D4        0.00000   0.00000   0.00000   0.00000   0.00000   0.00000
    D5        3.14159   0.00000   0.00000   0.00000   0.00000   3.14159
    D6        0.00000   0.00000   0.00000   0.00000   0.00000   0.00000
    D7        0.00000   0.00000   0.00000   0.00000   0.00000   0.00000
    D8        3.14159   0.00000   0.00000   0.00000   0.00000   3.14159
    D9        0.00000   0.00000   0.00000   0.00000   0.00000   0.00000
   D10        3.14159   0.00000   0.00000   0.00000   0.00000   3.14159
   D11        3.14159   0.00000   0.00000   0.00000   0.00000   3.14159
   D12        0.00000   0.00000   0.00000   0.00000   0.00000   0.00000
   D13        3.14159   0.00000   0.00000   0.00000   0.00000   3.14159
   D14        0.00000   0.00000   0.00000   0.00000   0.00000   0.00000
   D15        0.00000   0.00000   0.00000   0.00000   0.00000   0.00000
   D16        3.14159   0.00000   0.00000   0.00000   0.00000   3.14159
         Item               Value     Threshold  Converged?
 Maximum Force            0.040984     0.000450     NO 
 RMS     Force            0.011451     0.000300     NO 
 Maximum Displacement     0.071004     0.001800     NO 
 RMS     Displacement     0.027674     0.001200     NO 
 Predicted change in Energy=-4.476394D-03
 GradGradGradGradGradGradGradGradGradGradGradGradGradGradGradGradGradGrad

                          Input orientation:                          
 ---------------------------------------------------------------------
 Center     Atomic     Atomic              Coordinates (Angstroms)
 Number     Number      Type              X           Y           Z
 ---------------------------------------------------------------------
    1          7             0       -0.752069   -0.992542    0.000000
    2          1             0       -0.006326    2.122933    0.000000
    3          6             0        1.125343    0.292726    0.000000
    4          1             0        2.129339    0.700391    0.000000
    5          6             0        0.637951   -0.998634    0.000000
    6          1             0        1.199931   -1.927737    0.000000
    7          1             0       -2.114736    0.669721    0.000000
    8          6             0       -1.099132    0.281455    0.000000
    9          7             0       -0.000391    1.109500    0.000000
 ---------------------------------------------------------------------
                    Distance matrix (angstroms):
                    1          2          3          4          5
     1  N    0.000000
     2  H    3.203486   0.000000
     3  C    2.275212   2.151821   0.000000
     4  H    3.341936   2.566066   1.083604   0.000000
     5  C    1.390034   3.187362   1.380276   2.260735   0.000000
     6  H    2.164461   4.226463   2.221715   2.787625   1.085842
     7  H    2.149414   2.560707   3.261938   4.244186   3.218803
     8  C    1.320425   2.141324   2.224504   3.255539   2.157797
     9  N    2.232398   1.013451   1.390826   2.168668   2.202660
                    6          7          8          9
     6  H    0.000000
     7  H    4.211152   0.000000
     8  C    3.188451   1.087291   0.000000
     9  N    3.265820   2.159597   1.375824   0.000000
 Stoichiometry    C3H4N2
 Framework group  CS[SG(C3H4N2)]
 Deg. of freedom    15
 Full point group                 CS      NOp   2
 Largest Abelian subgroup         CS      NOp   2
 Largest concise Abelian subgroup C1      NOp   1
                         Standard orientation:                         
 ---------------------------------------------------------------------
 Center     Atomic     Atomic              Coordinates (Angstroms)
 Number     Number      Type              X           Y           Z
 ---------------------------------------------------------------------
    1          7             0       -0.748534   -0.989143    0.000000
    2          1             0       -0.007450    2.127444    0.000000
    3          6             0        1.126954    0.298931    0.000000
    4          1             0        2.130339    0.708096    0.000000
    5          6             0        0.641494   -0.993156    0.000000
    6          1             0        1.204861   -1.921418    0.000000
    7          1             0       -2.113685    0.671081    0.000000
    8          6             0       -1.097502    0.284334    0.000000
    9          7             0        0.000000    1.114021    0.000000
 ---------------------------------------------------------------------
 Rotational constants (GHZ):      9.6002719      9.2700359      4.7161321
 Standard basis: 6-31G(2df,p) (6D, 7F)
 There are   111 symmetry adapted basis functions of A'  symmetry.
 There are    49 symmetry adapted basis functions of A"  symmetry.
 Integral buffers will be    262144 words long.
 Raffenetti 2 integral format.
 Two-electron integral symmetry is turned on.
   160 basis functions,   248 primitive gaussians,   175 cartesian basis functions
    18 alpha electrons       18 beta electrons
       nuclear repulsion energy       162.0073352518 Hartrees.
 NAtoms=    9 NActive=    9 NUniq=    9 SFac= 1.00D+00 NAtFMM=   60 Big=F
 One-electron integrals computed using PRISM.
 NBasis=   160 RedAO= T  NBF=   111    49
 NBsUse=   160 1.00D-06 NBFU=   111    49
 Initial guess read from the read-write file:
 Initial guess orbital symmetries:
       Occupied  (A') (A') (A') (A') (A') (A') (A') (A') (A') (A')
                 (A') (A') (A') (A") (A') (A") (A') (A")
       Virtual   (A") (A") (A') (A') (A') (A') (A') (A') (A') (A')
                 (A') (A') (A") (A') (A') (A") (A') (A') (A") (A')
                 (A") (A') (A') (A") (A') (A') (A") (A') (A') (A")
                 (A") (A') (A') (A") (A') (A") (A') (A') (A') (A')
                 (A') (A") (A") (A') (A") (A') (A') (A") (A') (A')
                 (A') (A') (A") (A') (A') (A') (A') (A") (A') (A')
                 (A') (A") (A') (A") (A') (A") (A') (A') (A') (A")
                 (A") (A') (A') (A') (A') (A") (A') (A") (A') (A")
                 (A") (A') (A') (A') (A') (A") (A') (A') (A") (A')
                 (A") (A') (A') (A') (A') (A") (A') (A') (A") (A')
                 (A") (A") (A') (A") (A") (A") (A') (A") (A') (A")
                 (A") (A') (A") (A") (A') (A") (A") (A') (A") (A')
                 (A') (A') (A') (A') (A') (A") (A') (A') (A') (A')
                 (A') (A') (A') (A') (A') (A') (A') (A') (A') (A')
                 (A') (A')
 Harris functional with IExCor=  402 diagonalized for initial guess.
 ExpMin= 1.61D-01 ExpMax= 4.17D+03 ExpMxC= 6.27D+02 IAcc=1 IRadAn=         1 AccDes= 1.00D-06
 HarFok:  IExCor= 402 AccDes= 1.00D-06 IRadAn=         1 IDoV=1
 ScaDFX=  1.000000  1.000000  1.000000  1.000000
 Requested convergence on RMS density matrix=1.00D-08 within 128 cycles.
 Requested convergence on MAX density matrix=1.00D-06.
 Requested convergence on             energy=1.00D-06.
 No special actions if energy rises.
 Integral accuracy reduced to 1.0D-05 until final iterations.
 Initial convergence to 1.0D-05 achieved.  Increase integral accuracy.
 SCF Done:  E(RB-LYP) =  -226.149498836     A.U. after   13 cycles
             Convg  =    0.5674D-08             -V/T =  2.0072
             S**2   =   0.0000
 Calling FoFCou, ICntrl=  2527 FMM=F ISym2X=1 I1Cent= 0 ISCF1= 0.
 ***** Axes restored to original set *****
 -------------------------------------------------------------------
 Center     Atomic                   Forces (Hartrees/Bohr)
 Number     Number              X              Y              Z
 -------------------------------------------------------------------
    1          7           0.000872876   -0.006050474    0.000000000
    2          1           0.000431505    0.000623993    0.000000000
    3          6           0.001239450    0.000516398    0.000000000
    4          1          -0.000167408    0.000690987    0.000000000
    5          6          -0.002160750    0.002105623    0.000000000
    6          1          -0.000242733    0.000126027    0.000000000
    7          1           0.000719967   -0.000240290    0.000000000
    8          6          -0.002566669    0.003525685    0.000000000
    9          7           0.001873763   -0.001297949    0.000000000
 -------------------------------------------------------------------
 Cartesian Forces:  Max     0.006050474 RMS     0.001657993

 GradGradGradGradGradGradGradGradGradGradGradGradGradGradGradGradGradGrad
 Berny optimization.
 Internal  Forces:  Max     0.003891141 RMS     0.000969870
 Search for a local minimum.
 Step number   2 out of a maximum of  48
 All quantities printed in internal units (Hartrees-Bohrs-Radians)
 Update second derivatives using D2CorX and points  1  2
 Trust test= 9.92D-01 RLast= 1.27D-01 DXMaxT set to 3.82D-01
     Eigenvalues ---    0.02200   0.02341   0.02381   0.02553   0.02604
     Eigenvalues ---    0.02708   0.15938   0.16000   0.16000   0.16005
     Eigenvalues ---    0.21910   0.22974   0.37167   0.37351   0.37727
     Eigenvalues ---    0.45312   0.47967   0.49333   0.51975   0.54619
     Eigenvalues ---    0.646461000.000001000.000001000.000001000.00000
     Eigenvalues --- 1000.000001000.000001000.000001000.000001000.00000
     Eigenvalues --- 1000.000001000.000001000.000001000.000001000.00000
     Eigenvalues --- 1000.000001000.000001000.00000
 RFO step:  Lambda=-9.20364630D-05.
 Quartic linear search produced a step of  0.03582.
 Iteration  1 RMS(Cart)=  0.00337224 RMS(Int)=  0.00000772
 Iteration  2 RMS(Cart)=  0.00000813 RMS(Int)=  0.00000241
 Iteration  3 RMS(Cart)=  0.00000000 RMS(Int)=  0.00000241
 Variable       Old X    -DE/DX   Delta X   Delta X   Delta X     New X
                                 (Linear)    (Quad)   (Total)
    R1        2.62678  -0.00050   0.00127  -0.00188  -0.00060   2.62618
    R2        2.49524   0.00389   0.00213   0.00477   0.00690   2.50214
    R3        1.91514   0.00062   0.00137   0.00044   0.00181   1.91695
    R4        2.04771   0.00011   0.00103  -0.00035   0.00068   2.04840
    R5        2.60834   0.00057   0.00203  -0.00081   0.00122   2.60956
    R6        2.62828  -0.00145   0.00126  -0.00414  -0.00287   2.62541
    R7        2.05194  -0.00023   0.00108  -0.00132  -0.00024   2.05171
    R8        2.05468  -0.00076   0.00111  -0.00280  -0.00169   2.05299
    R9        2.59993   0.00156   0.00179   0.00216   0.00395   2.60388
    A1        1.84115  -0.00208   0.00010  -0.00740  -0.00730   1.83385
    A2        2.31740   0.00100   0.00024   0.00706   0.00730   2.32469
    A3        2.12822  -0.00045  -0.00028  -0.00203  -0.00231   2.12591
    A4        1.83757  -0.00055   0.00005  -0.00503  -0.00498   1.83259
    A5        1.92731   0.00223  -0.00003   0.00888   0.00885   1.93616
    A6        2.11917  -0.00126   0.00002  -0.00536  -0.00535   2.11381
    A7        2.23671  -0.00097   0.00002  -0.00351  -0.00350   2.23321
    A8        2.20192   0.00016   0.00035  -0.00025   0.00009   2.20201
    A9        1.95065  -0.00026  -0.00028   0.00069   0.00041   1.95106
   A10        2.13062   0.00010  -0.00007  -0.00044  -0.00051   2.13011
   A11        2.20432  -0.00075  -0.00028  -0.00401  -0.00429   2.20003
   A12        2.21076   0.00008   0.00012   0.00115   0.00127   2.21203
   A13        1.86810   0.00067   0.00016   0.00286   0.00301   1.87112
    D1        0.00000   0.00000   0.00000   0.00000   0.00000   0.00000
    D2        3.14159   0.00000   0.00000   0.00000   0.00000   3.14159
    D3        3.14159   0.00000   0.00000   0.00000   0.00000   3.14159
    D4        0.00000   0.00000   0.00000   0.00000   0.00000   0.00000
    D5        3.14159   0.00000   0.00000   0.00000   0.00000   3.14159
    D6        0.00000   0.00000   0.00000   0.00000   0.00000   0.00000
    D7        0.00000   0.00000   0.00000   0.00000   0.00000   0.00000
    D8        3.14159   0.00000   0.00000   0.00000   0.00000   3.14159
    D9        0.00000   0.00000   0.00000   0.00000   0.00000   0.00000
   D10        3.14159   0.00000   0.00000   0.00000   0.00000   3.14159
   D11        3.14159   0.00000   0.00000   0.00000   0.00000   3.14159
   D12        0.00000   0.00000   0.00000   0.00000   0.00000   0.00000
   D13        3.14159   0.00000   0.00000   0.00000   0.00000   3.14159
   D14        0.00000   0.00000   0.00000   0.00000   0.00000   0.00000
   D15        0.00000   0.00000   0.00000   0.00000   0.00000   0.00000
   D16        3.14159   0.00000   0.00000   0.00000   0.00000   3.14159
         Item               Value     Threshold  Converged?
 Maximum Force            0.003891     0.000450     NO 
 RMS     Force            0.000970     0.000300     NO 
 Maximum Displacement     0.010860     0.001800     NO 
 RMS     Displacement     0.003372     0.001200     NO 
 Predicted change in Energy=-5.054535D-05
 GradGradGradGradGradGradGradGradGradGradGradGradGradGradGradGradGradGrad

                          Input orientation:                          
 ---------------------------------------------------------------------
 Center     Atomic     Atomic              Coordinates (Angstroms)
 Number     Number      Type              X           Y           Z
 ---------------------------------------------------------------------
    1          7             0       -0.754455   -0.998289    0.000000
    2          1             0       -0.002004    2.122064    0.000000
    3          6             0        1.127151    0.293664    0.000000
    4          1             0        2.129847    0.705464    0.000000
    5          6             0        0.635258   -0.996679    0.000000
    6          1             0        1.197348   -1.925567    0.000000
    7          1             0       -2.114283    0.669658    0.000000
    8          6             0       -1.100236    0.279837    0.000000
    9          7             0        0.001284    1.107662    0.000000
 ---------------------------------------------------------------------
                    Distance matrix (angstroms):
                    1          2          3          4          5
     1  N    0.000000
     2  H    3.209796   0.000000
     3  C    2.282451   2.148963   0.000000
     4  H    3.349921   2.559599   1.083964   0.000000
     5  C    1.389714   3.183184   1.380921   2.265190   0.000000
     6  H    2.160875   4.221583   2.220341   2.791393   1.085716
     7  H    2.152018   2.563437   3.263168   4.244281   3.215067
     8  C    1.324074   2.144741   2.227430   3.258004   2.154399
     9  N    2.237448   1.014408   1.389305   2.166228   2.197765
                    6          7          8          9
     6  H    0.000000
     7  H    4.207385   0.000000
     8  C    3.184761   1.086394   0.000000
     9  N    3.260529   2.160434   1.377912   0.000000
 Stoichiometry    C3H4N2
 Framework group  CS[SG(C3H4N2)]
 Deg. of freedom    15
 Full point group                 CS      NOp   2
 Largest Abelian subgroup         CS      NOp   2
 Largest concise Abelian subgroup C1      NOp   1
                         Standard orientation:                         
 ---------------------------------------------------------------------
 Center     Atomic     Atomic              Coordinates (Angstroms)
 Number     Number      Type              X           Y           Z
 ---------------------------------------------------------------------
    1          7             0       -0.748668   -0.995200    0.000000
    2          1             0       -0.006692    2.127660    0.000000
    3          6             0        1.128592    0.303059    0.000000
    4          1             0        2.129900    0.718221    0.000000
    5          6             0        0.641031   -0.988927    0.000000
    6          1             0        1.206235   -1.915924    0.000000
    7          1             0       -2.114086    0.668174    0.000000
    8          6             0       -1.098736    0.281759    0.000000
    9          7             0        0.000000    1.113275    0.000000
 ---------------------------------------------------------------------
 Rotational constants (GHZ):      9.6219645      9.2292681      4.7107630
 Standard basis: 6-31G(2df,p) (6D, 7F)
 There are   111 symmetry adapted basis functions of A'  symmetry.
 There are    49 symmetry adapted basis functions of A"  symmetry.
 Integral buffers will be    262144 words long.
 Raffenetti 2 integral format.
 Two-electron integral symmetry is turned on.
   160 basis functions,   248 primitive gaussians,   175 cartesian basis functions
    18 alpha electrons       18 beta electrons
       nuclear repulsion energy       161.9169501563 Hartrees.
 NAtoms=    9 NActive=    9 NUniq=    9 SFac= 1.00D+00 NAtFMM=   60 Big=F
 One-electron integrals computed using PRISM.
 NBasis=   160 RedAO= T  NBF=   111    49
 NBsUse=   160 1.00D-06 NBFU=   111    49
 Initial guess read from the read-write file:
 Initial guess orbital symmetries:
       Occupied  (A') (A') (A') (A') (A') (A') (A') (A') (A') (A')
                 (A') (A') (A') (A") (A') (A") (A') (A")
       Virtual   (A") (A") (A') (A') (A') (A') (A') (A') (A') (A')
                 (A') (A') (A') (A") (A') (A") (A') (A') (A') (A")
                 (A") (A') (A') (A') (A") (A') (A") (A') (A') (A")
                 (A') (A") (A') (A") (A') (A") (A') (A') (A') (A')
                 (A') (A") (A") (A') (A") (A') (A') (A") (A') (A')
                 (A') (A') (A") (A') (A') (A') (A') (A") (A') (A')
                 (A') (A") (A') (A") (A') (A") (A') (A') (A') (A")
                 (A') (A") (A') (A') (A') (A") (A') (A") (A') (A')
                 (A") (A') (A") (A') (A') (A") (A') (A') (A') (A")
                 (A") (A') (A') (A') (A') (A') (A") (A') (A') (A")
                 (A") (A") (A') (A") (A") (A') (A") (A") (A') (A")
                 (A") (A') (A") (A") (A') (A") (A") (A') (A") (A')
                 (A') (A') (A') (A') (A') (A") (A') (A') (A') (A')
                 (A') (A') (A') (A') (A') (A') (A') (A') (A') (A')
                 (A') (A')
 Requested convergence on RMS density matrix=1.00D-08 within 128 cycles.
 Requested convergence on MAX density matrix=1.00D-06.
 Requested convergence on             energy=1.00D-06.
 No special actions if energy rises.
 SCF Done:  E(RB-LYP) =  -226.149546768     A.U. after    9 cycles
             Convg  =    0.3072D-08             -V/T =  2.0072
             S**2   =   0.0000
 Calling FoFCou, ICntrl=  2527 FMM=F ISym2X=1 I1Cent= 0 ISCF1= 0.
 ***** Axes restored to original set *****
 -------------------------------------------------------------------
 Center     Atomic                   Forces (Hartrees/Bohr)
 Number     Number              X              Y              Z
 -------------------------------------------------------------------
    1          7           0.001704091   -0.000843192    0.000000000
    2          1          -0.000058350   -0.000145787    0.000000000
    3          6          -0.000204623   -0.000418673    0.000000000
    4          1          -0.000310293    0.000020494    0.000000000
    5          6          -0.000242589   -0.000424857    0.000000000
    6          1           0.000058189   -0.000026415    0.000000000
    7          1           0.000220104   -0.000033572    0.000000000
    8          6          -0.000804076    0.002221869    0.000000000
    9          7          -0.000362454   -0.000349867    0.000000000
 -------------------------------------------------------------------
 Cartesian Forces:  Max     0.002221869 RMS     0.000611115

 GradGradGradGradGradGradGradGradGradGradGradGradGradGradGradGradGradGrad
 Berny optimization.
 Internal  Forces:  Max     0.001540945 RMS     0.000380185
 Search for a local minimum.
 Step number   3 out of a maximum of  48
 All quantities printed in internal units (Hartrees-Bohrs-Radians)
 Update second derivatives using D2CorX and points  1  2  3
 Trust test= 9.48D-01 RLast= 1.91D-02 DXMaxT set to 3.82D-01
     Eigenvalues ---    0.02200   0.02341   0.02382   0.02554   0.02604
     Eigenvalues ---    0.02707   0.15130   0.16000   0.16003   0.16049
     Eigenvalues ---    0.21292   0.29006   0.36884   0.37569   0.37699
     Eigenvalues ---    0.43869   0.46363   0.49258   0.51668   0.55185
     Eigenvalues ---    0.614331000.000001000.000001000.000001000.00000
     Eigenvalues --- 1000.000001000.000001000.000001000.000001000.00000
     Eigenvalues --- 1000.000001000.000001000.000001000.000001000.00000
     Eigenvalues --- 1000.000001000.000001000.00000
 RFO step:  Lambda=-1.16779530D-05.
 Quartic linear search produced a step of -0.05473.
 Iteration  1 RMS(Cart)=  0.00099239 RMS(Int)=  0.00000074
 Iteration  2 RMS(Cart)=  0.00000065 RMS(Int)=  0.00000039
 Variable       Old X    -DE/DX   Delta X   Delta X   Delta X     New X
                                 (Linear)    (Quad)   (Total)
    R1        2.62618  -0.00071   0.00003  -0.00139  -0.00135   2.62482
    R2        2.50214   0.00154  -0.00038   0.00338   0.00301   2.50514
    R3        1.91695  -0.00015  -0.00010   0.00004  -0.00006   1.91689
    R4        2.04840  -0.00028  -0.00004  -0.00058  -0.00062   2.04778
    R5        2.60956  -0.00022  -0.00007  -0.00028  -0.00035   2.60922
    R6        2.62541   0.00022   0.00016  -0.00016  -0.00001   2.62540
    R7        2.05171   0.00005   0.00001   0.00011   0.00012   2.05183
    R8        2.05299  -0.00022   0.00009  -0.00083  -0.00073   2.05225
    R9        2.60388  -0.00084  -0.00022  -0.00069  -0.00091   2.60297
    A1        1.83385   0.00052   0.00040   0.00135   0.00175   1.83560
    A2        2.32469  -0.00010  -0.00040   0.00129   0.00089   2.32558
    A3        2.12591  -0.00038   0.00013  -0.00199  -0.00186   2.12404
    A4        1.83259   0.00048   0.00027   0.00070   0.00098   1.83356
    A5        1.93616  -0.00048  -0.00048  -0.00078  -0.00126   1.93490
    A6        2.11381   0.00028   0.00029   0.00046   0.00076   2.11457
    A7        2.23321   0.00020   0.00019   0.00032   0.00051   2.23372
    A8        2.20201   0.00037  -0.00001   0.00143   0.00142   2.20344
    A9        1.95106  -0.00064  -0.00002  -0.00219  -0.00222   1.94885
   A10        2.13011   0.00027   0.00003   0.00076   0.00079   2.13090
   A11        2.20003   0.00000   0.00023  -0.00058  -0.00035   2.19968
   A12        2.21203  -0.00012  -0.00007  -0.00034  -0.00041   2.21163
   A13        1.87112   0.00012  -0.00017   0.00092   0.00076   1.87188
    D1        0.00000   0.00000   0.00000   0.00000   0.00000   0.00000
    D2        3.14159   0.00000   0.00000   0.00000   0.00000   3.14159
    D3        3.14159   0.00000   0.00000   0.00000   0.00000   3.14159
    D4        0.00000   0.00000   0.00000   0.00000   0.00000   0.00000
    D5        3.14159   0.00000   0.00000   0.00000   0.00000   3.14159
    D6        0.00000   0.00000   0.00000   0.00000   0.00000   0.00000
    D7        0.00000   0.00000   0.00000   0.00000   0.00000   0.00000
    D8        3.14159   0.00000   0.00000   0.00000   0.00000   3.14159
    D9        0.00000   0.00000   0.00000   0.00000   0.00000   0.00000
   D10        3.14159   0.00000   0.00000   0.00000   0.00000   3.14159
   D11        3.14159   0.00000   0.00000   0.00000   0.00000   3.14159
   D12        0.00000   0.00000   0.00000   0.00000   0.00000   0.00000
   D13        3.14159   0.00000   0.00000   0.00000   0.00000   3.14159
   D14        0.00000   0.00000   0.00000   0.00000   0.00000   0.00000
   D15        0.00000   0.00000   0.00000   0.00000   0.00000   0.00000
   D16        3.14159   0.00000   0.00000   0.00000   0.00000   3.14159
         Item               Value     Threshold  Converged?
 Maximum Force            0.001541     0.000450     NO 
 RMS     Force            0.000380     0.000300     NO 
 Maximum Displacement     0.002643     0.001800     NO 
 RMS     Displacement     0.000993     0.001200     YES
 Predicted change in Energy=-5.999898D-06
 GradGradGradGradGradGradGradGradGradGradGradGradGradGradGradGradGradGrad

                          Input orientation:                          
 ---------------------------------------------------------------------
 Center     Atomic     Atomic              Coordinates (Angstroms)
 Number     Number      Type              X           Y           Z
 ---------------------------------------------------------------------
    1          7             0       -0.753201   -0.998344    0.000000
    2          1             0       -0.001590    2.121681    0.000000
    3          6             0        1.126713    0.293008    0.000000
    4          1             0        2.128448    0.706281    0.000000
    5          6             0        0.635796   -0.997510    0.000000
    6          1             0        1.198102   -1.926342    0.000000
    7          1             0       -2.114509    0.670826    0.000000
    8          6             0       -1.100917    0.280905    0.000000
    9          7             0        0.001069    1.107309    0.000000
 ---------------------------------------------------------------------
                    Distance matrix (angstroms):
                    1          2          3          4          5
     1  N    0.000000
     2  H    3.209279   0.000000
     3  C    2.280716   2.148746   0.000000
     4  H    3.348081   2.557424   1.083637   0.000000
     5  C    1.388997   3.183648   1.380737   2.265152   0.000000
     6  H    2.160732   4.222055   2.220498   2.792176   1.085779
     7  H    2.153901   2.563085   3.263168   4.243106   3.216757
     8  C    1.325664   2.144055   2.227662   3.257260   2.156506
     9  N    2.236671   1.014376   1.389302   2.164848   2.198440
                    6          7          8          9
     6  H    0.000000
     7  H    4.209356   0.000000
     8  C    3.187072   1.086006   0.000000
     9  N    3.261276   2.160136   1.377430   0.000000
 Stoichiometry    C3H4N2
 Framework group  CS[SG(C3H4N2)]
 Deg. of freedom    15
 Full point group                 CS      NOp   2
 Largest Abelian subgroup         CS      NOp   2
 Largest concise Abelian subgroup C1      NOp   1
                         Standard orientation:                         
 ---------------------------------------------------------------------
 Center     Atomic     Atomic              Coordinates (Angstroms)
 Number     Number      Type              X           Y           Z
 ---------------------------------------------------------------------
    1          7             0       -0.747782   -0.994919    0.000000
    2          1             0       -0.005782    2.127406    0.000000
    3          6             0        1.128146    0.302216    0.000000
    4          1             0        2.128604    0.718572    0.000000
    5          6             0        0.641206   -0.989807    0.000000
    6          1             0        1.206370   -1.916903    0.000000
    7          1             0       -2.114224    0.670052    0.000000
    8          6             0       -1.099435    0.283254    0.000000
    9          7             0        0.000000    1.113047    0.000000
 ---------------------------------------------------------------------
 Rotational constants (GHZ):      9.6134520      9.2368612      4.7106974
 Standard basis: 6-31G(2df,p) (6D, 7F)
 There are   111 symmetry adapted basis functions of A'  symmetry.
 There are    49 symmetry adapted basis functions of A"  symmetry.
 Integral buffers will be    262144 words long.
 Raffenetti 2 integral format.
 Two-electron integral symmetry is turned on.
   160 basis functions,   248 primitive gaussians,   175 cartesian basis functions
    18 alpha electrons       18 beta electrons
       nuclear repulsion energy       161.9132011508 Hartrees.
 NAtoms=    9 NActive=    9 NUniq=    9 SFac= 1.00D+00 NAtFMM=   60 Big=F
 One-electron integrals computed using PRISM.
 NBasis=   160 RedAO= T  NBF=   111    49
 NBsUse=   160 1.00D-06 NBFU=   111    49
 Initial guess read from the read-write file:
 Initial guess orbital symmetries:
       Occupied  (A') (A') (A') (A') (A') (A') (A') (A') (A') (A')
                 (A') (A') (A') (A") (A') (A") (A') (A")
       Virtual   (A") (A") (A') (A') (A') (A') (A') (A') (A') (A')
                 (A') (A') (A') (A") (A') (A") (A') (A') (A') (A")
                 (A") (A') (A') (A') (A") (A') (A") (A') (A') (A")
                 (A') (A") (A') (A") (A') (A") (A') (A') (A') (A')
                 (A') (A") (A") (A') (A") (A') (A') (A") (A') (A')
                 (A') (A') (A") (A') (A') (A') (A') (A") (A') (A')
                 (A') (A") (A') (A") (A') (A") (A') (A') (A') (A")
                 (A') (A") (A') (A') (A') (A') (A") (A") (A') (A')
                 (A") (A') (A") (A') (A') (A") (A') (A') (A') (A")
                 (A") (A') (A') (A') (A') (A') (A") (A') (A') (A")
                 (A") (A") (A') (A") (A") (A') (A") (A") (A') (A")
                 (A") (A') (A") (A") (A') (A") (A") (A') (A") (A')
                 (A') (A') (A') (A') (A') (A") (A') (A') (A') (A')
                 (A') (A') (A') (A') (A') (A') (A') (A') (A') (A')
                 (A') (A')
 Requested convergence on RMS density matrix=1.00D-08 within 128 cycles.
 Requested convergence on MAX density matrix=1.00D-06.
 Requested convergence on             energy=1.00D-06.
 No special actions if energy rises.
 SCF Done:  E(RB-LYP) =  -226.149553550     A.U. after    8 cycles
             Convg  =    0.9653D-08             -V/T =  2.0073
             S**2   =   0.0000
 Calling FoFCou, ICntrl=  2527 FMM=F ISym2X=1 I1Cent= 0 ISCF1= 0.
 ***** Axes restored to original set *****
 -------------------------------------------------------------------
 Center     Atomic                   Forces (Hartrees/Bohr)
 Number     Number              X              Y              Z
 -------------------------------------------------------------------
    1          7           0.000447216   -0.000163915    0.000000000
    2          1          -0.000001082   -0.000086092    0.000000000
    3          6          -0.000024884    0.000014074    0.000000000
    4          1          -0.000030863    0.000027259    0.000000000
    5          6          -0.000463447   -0.000024832    0.000000000
    6          1           0.000003132    0.000015059    0.000000000
    7          1           0.000007660   -0.000075420    0.000000000
    8          6           0.000307277    0.000521833    0.000000000
    9          7          -0.000245009   -0.000227965    0.000000000
 -------------------------------------------------------------------
 Cartesian Forces:  Max     0.000521833 RMS     0.000186280

 GradGradGradGradGradGradGradGradGradGradGradGradGradGradGradGradGradGrad
 Berny optimization.
 Internal  Forces:  Max     0.000437426 RMS     0.000106309
 Search for a local minimum.
 Step number   4 out of a maximum of  48
 All quantities printed in internal units (Hartrees-Bohrs-Radians)
 Update second derivatives using D2CorX and points  1  2  3  4
 Trust test= 1.13D+00 RLast= 5.65D-03 DXMaxT set to 3.82D-01
     Eigenvalues ---    0.02200   0.02341   0.02382   0.02554   0.02604
     Eigenvalues ---    0.02707   0.14549   0.16000   0.16031   0.16167
     Eigenvalues ---    0.21334   0.30116   0.36211   0.37472   0.37689
     Eigenvalues ---    0.40315   0.46134   0.48853   0.50594   0.54865
     Eigenvalues ---    0.597811000.000001000.000001000.000001000.00000
     Eigenvalues --- 1000.000001000.000001000.000001000.000001000.00000
     Eigenvalues --- 1000.000001000.000001000.000001000.000001000.00000
     Eigenvalues --- 1000.000001000.000001000.00000
 RFO step:  Lambda=-8.61646286D-07.
 Quartic linear search produced a step of  0.14861.
 Iteration  1 RMS(Cart)=  0.00026367 RMS(Int)=  0.00000006
 Iteration  2 RMS(Cart)=  0.00000005 RMS(Int)=  0.00000004
 Variable       Old X    -DE/DX   Delta X   Delta X   Delta X     New X
                                 (Linear)    (Quad)   (Total)
    R1        2.62482  -0.00044  -0.00020  -0.00088  -0.00108   2.62374
    R2        2.50514   0.00017   0.00045   0.00019   0.00064   2.50578
    R3        1.91689  -0.00009  -0.00001  -0.00015  -0.00016   1.91673
    R4        2.04778  -0.00002  -0.00009   0.00002  -0.00007   2.04770
    R5        2.60922   0.00001  -0.00005   0.00010   0.00004   2.60926
    R6        2.62540  -0.00009   0.00000  -0.00024  -0.00024   2.62516
    R7        2.05183  -0.00001   0.00002  -0.00003  -0.00002   2.05181
    R8        2.05225  -0.00003  -0.00011  -0.00006  -0.00017   2.05208
    R9        2.60297  -0.00042  -0.00014  -0.00073  -0.00087   2.60210
    A1        1.83560   0.00000   0.00026  -0.00025   0.00001   1.83560
    A2        2.32558   0.00004   0.00013   0.00036   0.00049   2.32607
    A3        2.12404  -0.00004  -0.00028  -0.00017  -0.00045   2.12360
    A4        1.83356  -0.00001   0.00015  -0.00019  -0.00005   1.83351
    A5        1.93490  -0.00001  -0.00019   0.00025   0.00006   1.93495
    A6        2.11457   0.00002   0.00011  -0.00006   0.00005   2.11462
    A7        2.23372  -0.00001   0.00008  -0.00018  -0.00011   2.23361
    A8        2.20344  -0.00008   0.00021  -0.00063  -0.00042   2.20302
    A9        1.94885   0.00001  -0.00033   0.00021  -0.00011   1.94873
   A10        2.13090   0.00006   0.00012   0.00042   0.00053   2.13144
   A11        2.19968   0.00000  -0.00005  -0.00003  -0.00008   2.19960
   A12        2.21163   0.00000  -0.00006   0.00005  -0.00001   2.21161
   A13        1.87188   0.00000   0.00011  -0.00002   0.00010   1.87197
    D1        0.00000   0.00000   0.00000   0.00000   0.00000   0.00000
    D2        3.14159   0.00000   0.00000   0.00000   0.00000   3.14159
    D3        3.14159   0.00000   0.00000   0.00000   0.00000   3.14159
    D4        0.00000   0.00000   0.00000   0.00000   0.00000   0.00000
    D5        3.14159   0.00000   0.00000   0.00000   0.00000   3.14159
    D6        0.00000   0.00000   0.00000   0.00000   0.00000   0.00000
    D7        0.00000   0.00000   0.00000   0.00000   0.00000   0.00000
    D8        3.14159   0.00000   0.00000   0.00000   0.00000   3.14159
    D9        0.00000   0.00000   0.00000   0.00000   0.00000   0.00000
   D10        3.14159   0.00000   0.00000   0.00000   0.00000   3.14159
   D11        3.14159   0.00000   0.00000   0.00000   0.00000   3.14159
   D12        0.00000   0.00000   0.00000   0.00000   0.00000   0.00000
   D13        3.14159   0.00000   0.00000   0.00000   0.00000   3.14159
   D14        0.00000   0.00000   0.00000   0.00000   0.00000   0.00000
   D15        0.00000   0.00000   0.00000   0.00000   0.00000   0.00000
   D16        3.14159   0.00000   0.00000   0.00000   0.00000   3.14159
         Item               Value     Threshold  Converged?
 Maximum Force            0.000437     0.000450     YES
 RMS     Force            0.000106     0.000300     YES
 Maximum Displacement     0.000630     0.001800     YES
 RMS     Displacement     0.000264     0.001200     YES
 Predicted change in Energy=-5.468883D-07
 Optimization completed.
    -- Stationary point found.
                           ----------------------------
                           !   Optimized Parameters   !
                           ! (Angstroms and Degrees)  !
 --------------------------                            --------------------------
 ! Name  Definition              Value          Derivative Info.                !
 --------------------------------------------------------------------------------
 ! R1    R(1,5)                  1.389          -DE/DX =   -0.0004              !
 ! R2    R(1,8)                  1.3257         -DE/DX =    0.0002              !
 ! R3    R(2,9)                  1.0144         -DE/DX =   -0.0001              !
 ! R4    R(3,4)                  1.0836         -DE/DX =    0.0                 !
 ! R5    R(3,5)                  1.3807         -DE/DX =    0.0                 !
 ! R6    R(3,9)                  1.3893         -DE/DX =   -0.0001              !
 ! R7    R(5,6)                  1.0858         -DE/DX =    0.0                 !
 ! R8    R(7,8)                  1.086          -DE/DX =    0.0                 !
 ! R9    R(8,9)                  1.3774         -DE/DX =   -0.0004              !
 ! A1    A(5,1,8)              105.1719         -DE/DX =    0.0                 !
 ! A2    A(4,3,5)              133.2459         -DE/DX =    0.0                 !
 ! A3    A(4,3,9)              121.6987         -DE/DX =    0.0                 !
 ! A4    A(5,3,9)              105.0554         -DE/DX =    0.0                 !
 ! A5    A(1,5,3)              110.8614         -DE/DX =    0.0                 !
 ! A6    A(1,5,6)              121.1559         -DE/DX =    0.0                 !
 ! A7    A(3,5,6)              127.9827         -DE/DX =    0.0                 !
 ! A8    A(1,8,7)              126.2477         -DE/DX =   -0.0001              !
 ! A9    A(1,8,9)              111.6607         -DE/DX =    0.0                 !
 ! A10   A(7,8,9)              122.0916         -DE/DX =    0.0001              !
 ! A11   A(2,9,3)              126.0325         -DE/DX =    0.0                 !
 ! A12   A(2,9,8)              126.7169         -DE/DX =    0.0                 !
 ! A13   A(3,9,8)              107.2506         -DE/DX =    0.0                 !
 ! D1    D(8,1,5,3)              0.0            -DE/DX =    0.0                 !
 ! D2    D(8,1,5,6)            180.0            -DE/DX =    0.0                 !
 ! D3    D(5,1,8,7)            180.0            -DE/DX =    0.0                 !
 ! D4    D(5,1,8,9)              0.0            -DE/DX =    0.0                 !
 ! D5    D(4,3,5,1)            180.0            -DE/DX =    0.0                 !
 ! D6    D(4,3,5,6)              0.0            -DE/DX =    0.0                 !
 ! D7    D(9,3,5,1)              0.0            -DE/DX =    0.0                 !
 ! D8    D(9,3,5,6)            180.0            -DE/DX =    0.0                 !
 ! D9    D(4,3,9,2)              0.0            -DE/DX =    0.0                 !
 ! D10   D(4,3,9,8)            180.0            -DE/DX =    0.0                 !
 ! D11   D(5,3,9,2)            180.0            -DE/DX =    0.0                 !
 ! D12   D(5,3,9,8)              0.0            -DE/DX =    0.0                 !
 ! D13   D(1,8,9,2)            180.0            -DE/DX =    0.0                 !
 ! D14   D(1,8,9,3)              0.0            -DE/DX =    0.0                 !
 ! D15   D(7,8,9,2)              0.0            -DE/DX =    0.0                 !
 ! D16   D(7,8,9,3)            180.0            -DE/DX =    0.0                 !
 --------------------------------------------------------------------------------
 GradGradGradGradGradGradGradGradGradGradGradGradGradGradGradGradGradGrad

                          Input orientation:                          
 ---------------------------------------------------------------------
 Center     Atomic     Atomic              Coordinates (Angstroms)
 Number     Number      Type              X           Y           Z
 ---------------------------------------------------------------------
    1          7             0       -0.753201   -0.998344    0.000000
    2          1             0       -0.001590    2.121681    0.000000
    3          6             0        1.126713    0.293008    0.000000
    4          1             0        2.128448    0.706281    0.000000
    5          6             0        0.635796   -0.997510    0.000000
    6          1             0        1.198102   -1.926342    0.000000
    7          1             0       -2.114509    0.670826    0.000000
    8          6             0       -1.100917    0.280905    0.000000
    9          7             0        0.001069    1.107309    0.000000
 ---------------------------------------------------------------------
                    Distance matrix (angstroms):
                    1          2          3          4          5
     1  N    0.000000
     2  H    3.209279   0.000000
     3  C    2.280716   2.148746   0.000000
     4  H    3.348081   2.557424   1.083637   0.000000
     5  C    1.388997   3.183648   1.380737   2.265152   0.000000
     6  H    2.160732   4.222055   2.220498   2.792176   1.085779
     7  H    2.153901   2.563085   3.263168   4.243106   3.216757
     8  C    1.325664   2.144055   2.227662   3.257260   2.156506
     9  N    2.236671   1.014376   1.389302   2.164848   2.198440
                    6          7          8          9
     6  H    0.000000
     7  H    4.209356   0.000000
     8  C    3.187072   1.086006   0.000000
     9  N    3.261276   2.160136   1.377430   0.000000
 Stoichiometry    C3H4N2
 Framework group  CS[SG(C3H4N2)]
 Deg. of freedom    15
 Full point group                 CS      NOp   2
 Largest Abelian subgroup         CS      NOp   2
 Largest concise Abelian subgroup C1      NOp   1
                         Standard orientation:                         
 ---------------------------------------------------------------------
 Center     Atomic     Atomic              Coordinates (Angstroms)
 Number     Number      Type              X           Y           Z
 ---------------------------------------------------------------------
    1          7             0       -0.747782   -0.994919    0.000000
    2          1             0       -0.005782    2.127406    0.000000
    3          6             0        1.128146    0.302216    0.000000
    4          1             0        2.128604    0.718572    0.000000
    5          6             0        0.641206   -0.989807    0.000000
    6          1             0        1.206370   -1.916903    0.000000
    7          1             0       -2.114224    0.670052    0.000000
    8          6             0       -1.099435    0.283254    0.000000
    9          7             0        0.000000    1.113047    0.000000
 ---------------------------------------------------------------------
 Rotational constants (GHZ):      9.6134520      9.2368612      4.7106974

 **********************************************************************

            Population analysis using the SCF density.

 **********************************************************************

 Orbital symmetries:
       Occupied  (A') (A') (A') (A') (A') (A') (A') (A') (A') (A')
                 (A') (A') (A') (A") (A') (A") (A') (A")
       Virtual   (A") (A") (A') (A') (A') (A') (A') (A') (A') (A')
                 (A') (A') (A') (A") (A') (A") (A') (A') (A') (A")
                 (A") (A') (A') (A') (A") (A') (A") (A') (A') (A")
                 (A') (A") (A') (A") (A') (A") (A') (A') (A') (A')
                 (A') (A") (A") (A') (A") (A') (A') (A") (A') (A')
                 (A') (A') (A") (A') (A') (A') (A') (A") (A') (A')
                 (A') (A") (A') (A") (A') (A") (A') (A') (A') (A")
                 (A') (A") (A') (A') (A') (A') (A") (A") (A') (A')
                 (A") (A') (A") (A') (A') (A") (A') (A') (A') (A")
                 (A") (A') (A') (A') (A') (A') (A") (A') (A') (A")
                 (A") (A") (A') (A") (A") (A') (A") (A") (A') (A")
                 (A") (A') (A") (A") (A') (A") (A") (A') (A") (A')
                 (A') (A') (A') (A') (A') (A") (A') (A') (A') (A')
                 (A') (A') (A') (A') (A') (A') (A') (A') (A') (A')
                 (A') (A')
 The electronic state is 1-A'.
 Alpha  occ. eigenvalues --  -14.07329 -13.99241  -9.96304  -9.94191  -9.92462
 Alpha  occ. eigenvalues --   -0.90293  -0.77041  -0.65329  -0.54007  -0.51436
 Alpha  occ. eigenvalues --   -0.49010  -0.37732  -0.37526  -0.36331  -0.34508
 Alpha  occ. eigenvalues --   -0.23147  -0.20808  -0.18646
 Alpha virt. eigenvalues --    0.00525   0.04209   0.04788   0.10640   0.12220
 Alpha virt. eigenvalues --    0.14183   0.18268   0.20374   0.25160   0.29788
 Alpha virt. eigenvalues --    0.36640   0.40080   0.43835   0.45042   0.48850
 Alpha virt. eigenvalues --    0.50792   0.50890   0.52438   0.54372   0.55055
 Alpha virt. eigenvalues --    0.61751   0.65168   0.66771   0.68428   0.68478
 Alpha virt. eigenvalues --    0.73158   0.74649   0.76713   0.78392   0.81162
 Alpha virt. eigenvalues --    0.81925   0.82005   0.85646   0.97286   0.98566
 Alpha virt. eigenvalues --    0.98709   1.05374   1.12069   1.17073   1.20462
 Alpha virt. eigenvalues --    1.26713   1.29019   1.29629   1.36861   1.40518
 Alpha virt. eigenvalues --    1.40916   1.43717   1.47722   1.48903   1.54897
 Alpha virt. eigenvalues --    1.62115   1.66964   1.68350   1.72022   1.77931
 Alpha virt. eigenvalues --    1.86953   1.90348   2.02352   2.04136   2.09302
 Alpha virt. eigenvalues --    2.17883   2.27216   2.27825   2.39760   2.40066
 Alpha virt. eigenvalues --    2.53412   2.56126   2.61997   2.73425   2.75580
 Alpha virt. eigenvalues --    2.79314   2.80905   2.87831   2.89630   2.96136
 Alpha virt. eigenvalues --    2.98760   2.98985   3.04063   3.05588   3.09785
 Alpha virt. eigenvalues --    3.10631   3.12273   3.12444   3.22317   3.25689
 Alpha virt. eigenvalues --    3.33620   3.35108   3.41628   3.49686   3.55786
 Alpha virt. eigenvalues --    3.60489   3.69120   3.70619   3.76883   3.83296
 Alpha virt. eigenvalues --    3.92059   3.97207   4.01138   4.05311   4.09112
 Alpha virt. eigenvalues --    4.09549   4.13435   4.14900   4.23500   4.30487
 Alpha virt. eigenvalues --    4.32294   4.32707   4.35625   4.37298   4.38975
 Alpha virt. eigenvalues --    4.43509   4.44460   4.47119   4.49868   4.54813
 Alpha virt. eigenvalues --    4.55905   4.59288   4.62529   4.63923   4.71614
 Alpha virt. eigenvalues --    4.74997   4.84160   4.88777   5.00454   5.04631
 Alpha virt. eigenvalues --    5.09449   5.16555   5.24020   5.29169   5.34093
 Alpha virt. eigenvalues --    5.45210   5.48405   5.74546   5.83930   6.03873
 Alpha virt. eigenvalues --    9.85730  10.27722  10.54380  11.18585  11.27824
 Alpha virt. eigenvalues --   13.66961  14.51689
          Condensed to atoms (all electrons):
              1          2          3          4          5          6
     1  N    6.266802   0.007411  -0.035538   0.006068   0.518997  -0.022778
     2  H    0.007411   0.484098  -0.034285   0.000117   0.005035  -0.000150
     3  C   -0.035538  -0.034285   4.906043   0.344068   0.603590  -0.050015
     4  H    0.006068   0.000117   0.344068   0.601526  -0.030211   0.001187
     5  C    0.518997   0.005035   0.603590  -0.030211   4.755513   0.361350
     6  H   -0.022778  -0.000150  -0.050015   0.001187   0.361350   0.615360
     7  H   -0.020538   0.000273   0.005317  -0.000164   0.006589  -0.000239
     8  C    0.586299  -0.034990  -0.081801   0.003922  -0.136045   0.006248
     9  N   -0.075117   0.328576   0.434564  -0.031423  -0.028250   0.002869
              7          8          9
     1  N   -0.020538   0.586299  -0.075117
     2  H    0.000273  -0.034990   0.328576
     3  C    0.005317  -0.081801   0.434564
     4  H   -0.000164   0.003922  -0.031423
     5  C    0.006589  -0.136045  -0.028250
     6  H   -0.000239   0.006248   0.002869
     7  H    0.585929   0.351130  -0.037653
     8  C    0.351130   4.813392   0.472533
     9  N   -0.037653   0.472533   6.117443
 Mulliken atomic charges:
              1
     1  N   -0.231606
     2  H    0.243916
     3  C   -0.091944
     4  H    0.104909
     5  C   -0.056569
     6  H    0.086168
     7  H    0.109357
     8  C    0.019312
     9  N   -0.183544
 Sum of Mulliken charges=   0.00000
 Atomic charges with hydrogens summed into heavy atoms:
              1
     1  N   -0.231606
     2  H    0.000000
     3  C    0.012965
     4  H    0.000000
     5  C    0.029599
     6  H    0.000000
     7  H    0.000000
     8  C    0.128670
     9  N    0.060372
 Sum of Mulliken charges=   0.00000
 Electronic spatial extent (au):  <R**2>=   287.9051
 Charge=     0.0000 electrons
 Dipole moment (field-independent basis, Debye):
    X=     1.0518    Y=     3.3789    Z=     0.0000  Tot=     3.5388
 Quadrupole moment (field-independent basis, Debye-Ang):
   XX=   -26.5451   YY=   -25.3356   ZZ=   -30.8347
   XY=    -2.9229   XZ=     0.0000   YZ=     0.0000
 Traceless Quadrupole moment (field-independent basis, Debye-Ang):
   XX=     1.0267   YY=     2.2362   ZZ=    -3.2629
   XY=    -2.9229   XZ=     0.0000   YZ=     0.0000
 Octapole moment (field-independent basis, Debye-Ang**2):
  XXX=    -0.1810  YYY=    15.2605  ZZZ=     0.0000  XYY=     4.9097
  XXY=     5.7467  XXZ=     0.0000  XZZ=    -0.9069  YZZ=     0.9663
  YYZ=     0.0000  XYZ=     0.0000
 Hexadecapole moment (field-independent basis, Debye-Ang**3):
 XXXX=  -161.0021 YYYY=  -141.6462 ZZZZ=   -29.5232 XXXY=    -1.9762
 XXXZ=     0.0000 YYYX=    -7.5151 YYYZ=     0.0000 ZZZX=     0.0000
 ZZZY=     0.0000 XXYY=   -57.8618 XXZZ=   -37.7218 YYZZ=   -34.9758
 XXYZ=     0.0000 YYXZ=     0.0000 ZZXY=     0.7405
 N-N= 1.619132011508D+02 E-N=-8.502839429565D+02  KE= 2.245216607182D+02
 Symmetry A'   KE= 2.163277713618D+02
 Symmetry A"   KE= 8.193889356408D+00
 1|1|UNPC-UNK|FOpt|RBLYP|6-31G(2df,p)|C3H4N2|PCUSER|17-May-2004|0||#BLY
 P/6-31G(2DF,P) OPT FREQ||1himidaz casno=288324 method=13 basis=19||0,1
 |N,-0.750841795,-0.9926113549,0.|H,0.0007690145,2.1274135735,0.|C,1.12
 90714866,0.2987407633,0.|H,2.1308070685,0.7120139131,0.|C,0.6381551038
 ,-0.9917770916,0.|H,1.2004610015,-1.9206089586,0.|H,-2.1121503032,0.67
 65592425,0.|C,-1.0985577603,0.2866382207,0.|N,0.0034275433,1.113041479
 9,0.||Version=x86-Win32-G03RevB.05|State=1-A'|HF=-226.1495536|RMSD=9.6
 53e-009|RMSF=1.863e-004|Dipole=0.417884,1.3280947,0.|PG=CS [SG(C3H4N2)
 ]||@


 IF YOU GIVE A BOY AND A PIG EVERYTHING THEY WANT,
 YOU'LL GET A BAD BOY AND A GOOD PIG.
 Job cpu time:  0 days  0 hours 14 minutes 29.0 seconds.
 File lengths (MBytes):  RWF=     26 Int=      0 D2E=      0 Chk=      6 Scr=      1
 Normal termination of Gaussian 03 at Mon May 17 09:24:53 2004.
 Link1:  Proceeding to internal job step number  2.
 ---------------------------------------------------------------------
 #N Geom=AllCheck Guess=Read SCRF=Check GenChk RBLYP/6-31G(2df,p) Freq
 ---------------------------------------------------------------------
 1/10=4,29=7,30=1,38=1,40=1,46=1/1,3;
 2/40=1/2;
 3/5=1,6=6,7=104,11=2,16=1,25=1,30=1,70=2,71=2,74=402/1,2,3;
 4/5=1,7=1/1;
 5/5=2,38=6/2;
 8/6=4,10=90,11=11,27=262144000/1;
 11/6=1,8=1,9=11,15=111,16=1/1,2,10;
 10/6=1/2;
 6/7=2,8=2,9=2,10=2,18=1,28=1/1;
 7/8=1,10=1,25=1/1,2,3,16;
 1/10=4,30=1,46=1/3;
 99//99;
 ----------------------------------------
 1himidaz casno=288324 method=13 basis=19
 ----------------------------------------
 Redundant internal coordinates taken from checkpoint file:
 gxx.chk
 Charge =  0 Multiplicity = 1
 N,0,-0.750841795,-0.9926113549,0.
 H,0,0.0007690145,2.1274135735,0.
 C,0,1.1290714866,0.2987407633,0.
 H,0,2.1308070685,0.7120139131,0.
 C,0,0.6381551038,-0.9917770916,0.
 H,0,1.2004610015,-1.9206089586,0.
 H,0,-2.1121503032,0.6765592425,0.
 C,0,-1.0985577603,0.2866382207,0.
 N,0,0.0034275433,1.1130414799,0.
 Recover connectivity data from disk.

 GradGradGradGradGradGradGradGradGradGradGradGradGradGradGradGradGradGrad
 Berny optimization.
 Initialization pass.
                           ----------------------------
                           !    Initial Parameters    !
                           ! (Angstroms and Degrees)  !
 --------------------------                            --------------------------
 ! Name  Definition              Value          Derivative Info.                !
 --------------------------------------------------------------------------------
 ! R1    R(1,5)                  1.389          calculate D2E/DX2 analytically  !
 ! R2    R(1,8)                  1.3257         calculate D2E/DX2 analytically  !
 ! R3    R(2,9)                  1.0144         calculate D2E/DX2 analytically  !
 ! R4    R(3,4)                  1.0836         calculate D2E/DX2 analytically  !
 ! R5    R(3,5)                  1.3807         calculate D2E/DX2 analytically  !
 ! R6    R(3,9)                  1.3893         calculate D2E/DX2 analytically  !
 ! R7    R(5,6)                  1.0858         calculate D2E/DX2 analytically  !
 ! R8    R(7,8)                  1.086          calculate D2E/DX2 analytically  !
 ! R9    R(8,9)                  1.3774         calculate D2E/DX2 analytically  !
 ! A1    A(5,1,8)              105.1719         calculate D2E/DX2 analytically  !
 ! A2    A(4,3,5)              133.2459         calculate D2E/DX2 analytically  !
 ! A3    A(4,3,9)              121.6987         calculate D2E/DX2 analytically  !
 ! A4    A(5,3,9)              105.0554         calculate D2E/DX2 analytically  !
 ! A5    A(1,5,3)              110.8614         calculate D2E/DX2 analytically  !
 ! A6    A(1,5,6)              121.1559         calculate D2E/DX2 analytically  !
 ! A7    A(3,5,6)              127.9827         calculate D2E/DX2 analytically  !
 ! A8    A(1,8,7)              126.2477         calculate D2E/DX2 analytically  !
 ! A9    A(1,8,9)              111.6607         calculate D2E/DX2 analytically  !
 ! A10   A(7,8,9)              122.0916         calculate D2E/DX2 analytically  !
 ! A11   A(2,9,3)              126.0325         calculate D2E/DX2 analytically  !
 ! A12   A(2,9,8)              126.7169         calculate D2E/DX2 analytically  !
 ! A13   A(3,9,8)              107.2506         calculate D2E/DX2 analytically  !
 ! D1    D(8,1,5,3)              0.0            calculate D2E/DX2 analytically  !
 ! D2    D(8,1,5,6)            180.0            calculate D2E/DX2 analytically  !
 ! D3    D(5,1,8,7)            180.0            calculate D2E/DX2 analytically  !
 ! D4    D(5,1,8,9)              0.0            calculate D2E/DX2 analytically  !
 ! D5    D(4,3,5,1)            180.0            calculate D2E/DX2 analytically  !
 ! D6    D(4,3,5,6)              0.0            calculate D2E/DX2 analytically  !
 ! D7    D(9,3,5,1)              0.0            calculate D2E/DX2 analytically  !
 ! D8    D(9,3,5,6)            180.0            calculate D2E/DX2 analytically  !
 ! D9    D(4,3,9,2)              0.0            calculate D2E/DX2 analytically  !
[...]
   8   6    -0.10   0.00   0.00     0.12  -0.19   0.00     0.15   0.10   0.00
   9   7    -0.02   0.04   0.00     0.03  -0.06   0.00    -0.26  -0.01   0.00
                    16                     17                     18
                    A'                     A'                     A'
 Frequencies --  1448.8202              1498.9888              3171.1799
 Red. masses --     2.9244                 3.0174                 1.0903
 Frc consts  --     3.6167                 3.9946                 6.4598
 IR Inten    --    13.5317                10.3076                 6.6090
 Atom AN      X      Y      Z        X      Y      Z        X      Y      Z
   1   7    -0.02  -0.11   0.00    -0.02   0.14   0.00     0.00   0.00   0.00
   2   1     0.03  -0.13   0.00     0.59   0.00   0.00     0.00  -0.01   0.00
   3   6    -0.03   0.24   0.00     0.10   0.20   0.00    -0.03  -0.01   0.00
   4   1     0.29  -0.51   0.00     0.31  -0.19   0.00     0.32   0.13   0.00
   5   6     0.04  -0.12   0.00    -0.12  -0.21   0.00     0.04  -0.07   0.00
   6   1    -0.06  -0.21   0.00     0.47   0.12   0.00    -0.47   0.78   0.00
   7   1    -0.29  -0.58   0.00     0.23   0.22   0.00    -0.19   0.07   0.00
   8   6     0.03   0.27   0.00     0.06  -0.16   0.00     0.02   0.00   0.00
   9   7    -0.01  -0.11   0.00    -0.13  -0.01   0.00     0.00   0.00   0.00
                    19                     20                     21
                    A'                     A'                     A'
 Frequencies --  3176.1624              3202.2305              3547.0463
 Red. masses --     1.0950                 1.1033                 1.0805
 Frc consts  --     6.5086                 6.6656                 8.0095
 IR Inten    --     1.8500                 3.5553                28.3429
 Atom AN      X      Y      Z        X      Y      Z        X      Y      Z
   1   7     0.00   0.00   0.00     0.00   0.00   0.00     0.00   0.00   0.00
   2   1    -0.01   0.02   0.00    -0.01  -0.02   0.00    -0.01   1.00   0.00
   3   6    -0.01  -0.01   0.00    -0.08  -0.04   0.00     0.00   0.00   0.00
   4   1     0.13   0.05   0.00     0.86   0.36   0.00     0.02   0.00   0.00
   5   6     0.01  -0.01   0.00    -0.01   0.03   0.00     0.00   0.00   0.00
   6   1    -0.08   0.14   0.00     0.18  -0.31   0.00     0.00   0.00   0.00
   7   1     0.91  -0.34   0.00    -0.07   0.03   0.00    -0.02   0.00   0.00
   8   6    -0.08   0.03   0.00     0.01   0.00   0.00     0.00   0.00   0.00
   9   7     0.00   0.00   0.00     0.00   0.00   0.00     0.00  -0.07   0.00

 -------------------
 - Thermochemistry -
 -------------------
 Temperature   298.150 Kelvin.  Pressure   1.00000 Atm.
 Atom  1 has atomic number  7 and mass  14.00307
 Atom  2 has atomic number  1 and mass   1.00783
 Atom  3 has atomic number  6 and mass  12.00000
 Atom  4 has atomic number  1 and mass   1.00783
 Atom  5 has atomic number  6 and mass  12.00000
 Atom  6 has atomic number  1 and mass   1.00783
 Atom  7 has atomic number  1 and mass   1.00783
 Atom  8 has atomic number  6 and mass  12.00000
 Atom  9 has atomic number  7 and mass  14.00307
 Molecular mass:    68.03745 amu.
 Principal axes and moments of inertia in atomic units:
                           1         2         3
     EIGENVALUES --   187.73082 195.38468 383.11550
           X            0.47729   0.87874   0.00000
           Y            0.87874  -0.47729   0.00000
           Z            0.00000   0.00000   1.00000
 This molecule is an asymmetric top.
 Rotational symmetry number  1.
 Rotational temperatures (Kelvin)      0.46137     0.44330     0.22608
 Rotational constants (GHZ):           9.61345     9.23686     4.71070
 Zero-point vibrational energy     180347.5 (Joules/Mol)
                                   43.10409 (Kcal/Mol)
 Warning -- explicit consideration of   1 degrees of freedom as
           vibrations may cause significant error
 Vibrational temperatures:    714.41   899.55   955.66   990.10  1096.18
          (Kelvin)           1170.64  1259.22  1316.44  1499.53  1528.97
                             1604.84  1607.38  1790.94  1886.34  1977.06
                             2084.53  2156.71  4562.62  4569.78  4607.29
                             5103.40
 
 Zero-point correction=                           0.068691 (Hartree/Particle)
 Thermal correction to Energy=                    0.072568
 Thermal correction to Enthalpy=                  0.073512
 Thermal correction to Gibbs Free Energy=         0.042357
 Sum of electronic and zero-point Energies=           -226.080863
 Sum of electronic and thermal Energies=              -226.076986
 Sum of electronic and thermal Enthalpies=            -226.076041
 Sum of electronic and thermal Free Energies=         -226.107196
 
                     E (Thermal)             CV                S
                      KCal/Mol        Cal/Mol-Kelvin    Cal/Mol-Kelvin
 Total                   45.537             14.088             65.571
 Electronic               0.000              0.000              0.000
 Translational            0.889              2.981             38.570
 Rotational               0.889              2.981             24.156
 Vibrational             43.760              8.127              2.845
 Vibration  1             0.852              1.258              0.667
                       Q            Log10(Q)             Ln(Q)
 Total Bot       0.328895D-19        -19.482943        -44.861133
 Total V=0       0.129581D+13         12.112540         27.890155
 Vib (Bot)       0.351363D-31        -31.454244        -72.426073
 Vib (Bot)  1    0.332010D+00         -0.478849         -1.102590
 Vib (V=0)       0.138433D+01          0.141239          0.325214
 Vib (V=0)  1    0.110019D+01          0.041469          0.095485
 Electronic      0.100000D+01          0.000000          0.000000
 Translational   0.220586D+08          7.343577         16.909211
 Rotational      0.424350D+05          4.627724         10.655729
 ***** Axes restored to original set *****
 -------------------------------------------------------------------
 Center     Atomic                   Forces (Hartrees/Bohr)
 Number     Number              X              Y              Z
 -------------------------------------------------------------------
    1          7           0.000447387   -0.000163651    0.000000000
    2          1          -0.000001092   -0.000086017    0.000000000
    3          6          -0.000025044    0.000013972    0.000000000
    4          1          -0.000030902    0.000027261    0.000000000
    5          6          -0.000463595   -0.000024610    0.000000000
    6          1           0.000003147    0.000015035    0.000000000
    7          1           0.000007604   -0.000075384    0.000000000
    8          6           0.000307298    0.000521512    0.000000000
    9          7          -0.000244803   -0.000228118    0.000000000
 -------------------------------------------------------------------
 Cartesian Forces:  Max     0.000521512 RMS     0.000186263

 GradGradGradGradGradGradGradGradGradGradGradGradGradGradGradGradGradGrad
 Berny optimization.
 Internal  Forces:  Max     0.000437609 RMS     0.000106314
 Search for a local minimum.
 Step number   1 out of a maximum of   2
 All quantities printed in internal units (Hartrees-Bohrs-Radians)
 Second derivative matrix not updated -- analytic derivatives used.
     Eigenvalues ---    0.00471   0.00936   0.01787   0.02575   0.05603
     Eigenvalues ---    0.05884   0.09204   0.09816   0.10419   0.11229
     Eigenvalues ---    0.21356   0.22775   0.31365   0.35138   0.35556
     Eigenvalues ---    0.35918   0.37765   0.41689   0.43665   0.45315
     Eigenvalues ---    0.531521000.000001000.000001000.000001000.00000
     Eigenvalues --- 1000.000001000.000001000.000001000.000001000.00000
     Eigenvalues --- 1000.000001000.000001000.000001000.000001000.00000
     Eigenvalues --- 1000.000001000.000001000.00000
 Angle between quadratic step and forces=  30.65 degrees.
 Linear search not attempted -- first point.
 Iteration  1 RMS(Cart)=  0.00031446 RMS(Int)=  0.00000011
 Iteration  2 RMS(Cart)=  0.00000012 RMS(Int)=  0.00000001
 Variable       Old X    -DE/DX   Delta X   Delta X   Delta X     New X
                                 (Linear)    (Quad)   (Total)
    R1        2.62482  -0.00044   0.00000  -0.00142  -0.00142   2.62341
    R2        2.50514   0.00017   0.00000   0.00068   0.00068   2.50582
    R3        1.91689  -0.00009   0.00000  -0.00017  -0.00017   1.91672
    R4        2.04778  -0.00002   0.00000  -0.00006  -0.00006   2.04772
    R5        2.60922   0.00001   0.00000   0.00024   0.00024   2.60946
    R6        2.62540  -0.00009   0.00000  -0.00010  -0.00010   2.62530
    R7        2.05183  -0.00001   0.00000   0.00002   0.00002   2.05185
    R8        2.05225  -0.00003   0.00000  -0.00012  -0.00012   2.05213
    R9        2.60297  -0.00042   0.00000  -0.00129  -0.00129   2.60167
    A1        1.83560   0.00000   0.00000   0.00002   0.00002   1.83562
    A2        2.32558   0.00004   0.00000   0.00066   0.00066   2.32624
    A3        2.12404  -0.00004   0.00000  -0.00032  -0.00032   2.12372
    A4        1.83356  -0.00001   0.00000  -0.00033  -0.00033   1.83323
    A5        1.93490  -0.00001   0.00000   0.00016   0.00016   1.93506
    A6        2.11457   0.00002   0.00000   0.00029   0.00029   2.11486
    A7        2.23372  -0.00001   0.00000  -0.00045  -0.00045   2.23327
    A8        2.20344  -0.00008   0.00000  -0.00083  -0.00083   2.20261
    A9        1.94885   0.00001   0.00000  -0.00012  -0.00012   1.94872
   A10        2.13090   0.00006   0.00000   0.00096   0.00096   2.13186
   A11        2.19968   0.00000   0.00000  -0.00016  -0.00016   2.19952
   A12        2.21163   0.00000   0.00000  -0.00011  -0.00011   2.21151
   A13        1.87188   0.00000   0.00000   0.00027   0.00027   1.87215
    D1        0.00000   0.00000   0.00000   0.00000   0.00000   0.00000
    D2        3.14159   0.00000   0.00000   0.00000   0.00000   3.14159
    D3        3.14159   0.00000   0.00000   0.00000   0.00000   3.14159
    D4        0.00000   0.00000   0.00000   0.00000   0.00000   0.00000
    D5        3.14159   0.00000   0.00000   0.00000   0.00000   3.14159
    D6        0.00000   0.00000   0.00000   0.00000   0.00000   0.00000
    D7        0.00000   0.00000   0.00000   0.00000   0.00000   0.00000
    D8        3.14159   0.00000   0.00000   0.00000   0.00000   3.14159
    D9        0.00000   0.00000   0.00000   0.00000   0.00000   0.00000
   D10        3.14159   0.00000   0.00000   0.00000   0.00000   3.14159
   D11        3.14159   0.00000   0.00000   0.00000   0.00000   3.14159
   D12        0.00000   0.00000   0.00000   0.00000   0.00000   0.00000
   D13        3.14159   0.00000   0.00000   0.00000   0.00000   3.14159
   D14        0.00000   0.00000   0.00000   0.00000   0.00000   0.00000
   D15        0.00000   0.00000   0.00000   0.00000   0.00000   0.00000
   D16        3.14159   0.00000   0.00000   0.00000   0.00000   3.14159
         Item               Value     Threshold  Converged?
 Maximum Force            0.000438     0.000450     YES
 RMS     Force            0.000106     0.000300     YES
 Maximum Displacement     0.000877     0.001800     YES
 RMS     Displacement     0.000314     0.001200     YES
 Predicted change in Energy=-7.439451D-07
 Optimization completed.
    -- Stationary point found.
                           ----------------------------
                           !   Optimized Parameters   !
                           ! (Angstroms and Degrees)  !
 --------------------------                            --------------------------
 ! Name  Definition              Value          Derivative Info.                !
 --------------------------------------------------------------------------------
 ! R1    R(1,5)                  1.389          -DE/DX =   -0.0004              !
 ! R2    R(1,8)                  1.3257         -DE/DX =    0.0002              !
 ! R3    R(2,9)                  1.0144         -DE/DX =   -0.0001              !
 ! R4    R(3,4)                  1.0836         -DE/DX =    0.0                 !
 ! R5    R(3,5)                  1.3807         -DE/DX =    0.0                 !
 ! R6    R(3,9)                  1.3893         -DE/DX =   -0.0001              !
 ! R7    R(5,6)                  1.0858         -DE/DX =    0.0                 !
 ! R8    R(7,8)                  1.086          -DE/DX =    0.0                 !
 ! R9    R(8,9)                  1.3774         -DE/DX =   -0.0004              !
 ! A1    A(5,1,8)              105.1719         -DE/DX =    0.0                 !
 ! A2    A(4,3,5)              133.2459         -DE/DX =    0.0                 !
 ! A3    A(4,3,9)              121.6987         -DE/DX =    0.0                 !
 ! A4    A(5,3,9)              105.0554         -DE/DX =    0.0                 !
 ! A5    A(1,5,3)              110.8614         -DE/DX =    0.0                 !
 ! A6    A(1,5,6)              121.1559         -DE/DX =    0.0                 !
 ! A7    A(3,5,6)              127.9827         -DE/DX =    0.0                 !
 ! A8    A(1,8,7)              126.2477         -DE/DX =   -0.0001              !
 ! A9    A(1,8,9)              111.6607         -DE/DX =    0.0                 !
 ! A10   A(7,8,9)              122.0916         -DE/DX =    0.0001              !
 ! A11   A(2,9,3)              126.0325         -DE/DX =    0.0                 !
 ! A12   A(2,9,8)              126.7169         -DE/DX =    0.0                 !
 ! A13   A(3,9,8)              107.2506         -DE/DX =    0.0                 !
 ! D1    D(8,1,5,3)              0.0            -DE/DX =    0.0                 !
 ! D2    D(8,1,5,6)            180.0            -DE/DX =    0.0                 !
 ! D3    D(5,1,8,7)            180.0            -DE/DX =    0.0                 !
 ! D4    D(5,1,8,9)              0.0            -DE/DX =    0.0                 !
 ! D5    D(4,3,5,1)            180.0            -DE/DX =    0.0                 !
 ! D6    D(4,3,5,6)              0.0            -DE/DX =    0.0                 !
 ! D7    D(9,3,5,1)              0.0            -DE/DX =    0.0                 !
 ! D8    D(9,3,5,6)            180.0            -DE/DX =    0.0                 !
 ! D9    D(4,3,9,2)              0.0            -DE/DX =    0.0                 !
 ! D10   D(4,3,9,8)            180.0            -DE/DX =    0.0                 !
 ! D11   D(5,3,9,2)            180.0            -DE/DX =    0.0                 !
 ! D12   D(5,3,9,8)              0.0            -DE/DX =    0.0                 !
 ! D13   D(1,8,9,2)            180.0            -DE/DX =    0.0                 !
 ! D14   D(1,8,9,3)              0.0            -DE/DX =    0.0                 !
 ! D15   D(7,8,9,2)              0.0            -DE/DX =    0.0                 !
 ! D16   D(7,8,9,3)            180.0            -DE/DX =    0.0                 !
 --------------------------------------------------------------------------------
 GradGradGradGradGradGradGradGradGradGradGradGradGradGradGradGradGradGrad

 1|1|UNPC-UNK|Freq|RBLYP|6-31G(2df,p)|C3H4N2|PCUSER|17-May-2004|0||#N G
 EOM=ALLCHECK GUESS=READ SCRF=CHECK GENCHK RBLYP/6-31G(2DF,P) FREQ||1hi
 midaz casno=288324 method=13 basis=19||0,1|N,-0.750841795,-0.992611354
 9,0.|H,0.0007690145,2.1274135735,0.|C,1.1290714866,0.2987407633,0.|H,2
 .1308070685,0.7120139131,0.|C,0.6381551038,-0.9917770916,0.|H,1.200461
 0015,-1.9206089586,0.|H,-2.1121503032,0.6765592425,0.|C,-1.0985577603,
 0.2866382207,0.|N,0.0034275433,1.1130414799,0.||Version=x86-Win32-G03R
 evB.05|State=1-A'|HF=-226.1495536|RMSD=5.874e-009|RMSF=1.863e-004|Dipo
 le=0.4178848,1.3280926,0.|DipoleDeriv=-0.3814909,-0.0769512,0.,-0.0778
 157,-0.5467721,0.,0.,0.,-0.2868576,0.16159,-0.0110118,0.,-0.0108492,0.
 1394385,0.,0.,0.,0.296098,-0.017529,-0.1637091,0.,0.0297962,0.2169619,
 0.,0.,0.,-0.1176107,-0.018196,-0.03137,0.,-0.0672398,0.0439531,0.,0.,0
 .,0.15446,0.1321802,-0.067137,0.,-0.0534868,0.1759896,0.,0.,0.,-0.0883
 157,0.0193844,0.0643249,0.,0.082987,-0.0096378,0.,0.,0.,0.1204303,-0.0
 118985,0.0515713,0.,0.0547249,0.0351279,0.,0.,0.,0.1333406,0.1788165,0
 .1936977,0.,0.0841192,0.4481288,0.,0.,0.,-0.0032408,-0.0628567,0.04058
 52,0.,-0.0422359,-0.5031899,0.,0.,0.,-0.2083042|Polar=51.087503,-1.507
 9254,48.9390515,0.,0.,21.0670721|PG=CS [SG(C3H4N2)]|NImag=0||0.4241385
 8,-0.03170310,0.53925468,0.,0.,0.09729080,-0.00541182,-0.00738846,0.,0
 .05373473,-0.00259934,-0.00226756,0.,-0.00211072,0.44755978,0.,0.,0.00
 690510,0.,0.,0.01054732,-0.05289909,-0.00449513,0.,0.01103878,-0.00671
 330,0.,0.75550312,-0.07255097,-0.00048874,0.,0.02388695,-0.00589438,0.
 ,0.13778211,0.61361258,0.,0.,0.01506561,0.,0.,-0.00742987,0.,0.,0.0950
 5599,0.00008037,-0.00035181,0.,-0.00006422,0.00013225,0.,-0.29701626,-
 0.10095519,0.,0.31509447,-0.00523328,-0.00428873,0.,-0.00083850,0.0003
 8798,0.,-0.11061789,-0.09989055,0.,0.10844307,0.09174875,0.,0.,0.00703
 811,0.,0.,-0.00106147,0.,0.,-0.01679380,0.,0.,0.01636449,-0.23394088,0
 .00275641,0.,-0.00752448,-0.00033664,0.,-0.11478321,-0.07197589,0.,-0.
 00023827,-0.02046435,0.,0.53975050,-0.01095757,-0.08954019,0.,0.005092
 01,-0.00083215,0.,-0.08939225,-0.33083906,0.,0.00302027,0.00704531,0.,
 -0.10828270,0.79818924,0.,0.,-0.06473888,0.,0.,0.00208838,0.,0.,-0.055
 66182,0.,0.,-0.00358805,0.,0.,0.11904427,-0.01519251,0.02619478,0.,0.0
 0115150,-0.00018281,0.,0.00960947,-0.01005589,0.,-0.00014601,0.0005036
 1,0.,-0.11933826,0.11979766,0.,0.13139051,-0.00047567,0.00616594,0.,0.
 00108082,-0.00001453,0.,0.01570377,-0.01008285,0.,-0.00031217,-0.00032
 631,0.,0.12152224,-0.26760703,0.,-0.13361591,0.27448452,0.,0.,-0.00564
 197,0.,0.,0.00196520,0.,0.,-0.00217067,0.,0.,-0.00134661,0.,0.,-0.0250
 3178,0.,0.,0.02112159,-0.00133340,0.00336166,0.,-0.00059437,-0.0002389
 4,0.,-0.00023006,-0.00437650,0.,-0.00038745,0.00074782,0.,0.00167633,0
 .00104069,0.,-0.00000182,-0.00003399,0.,0.31725991,0.02842654,-0.00723
 847,0.,0.00069676,0.00027460,0.,-0.00212691,-0.00429440,0.,-0.00068391
 ,0.00110170,0.,0.00111159,-0.00513625,0.,0.00154581,0.00037355,0.,-0.0
 9967083,0.09172154,0.,0.,-0.00605870,0.,0.,-0.00109617,0.,0.,0.0022844
 0,0.,0.,0.00188646,0.,0.,0.00655080,0.,0.,0.00125808,0.,0.,0.01846623,
 -0.10669464,0.05626887,0.,0.01476499,0.00856296,0.,-0.09357893,0.02378
 904,0.,-0.00135539,0.00299242,0.,-0.06422107,0.02923008,0.,-0.00645625
 ,-0.00145729,0.,-0.29895073,0.09322611,0.,0.78184288,0.08412752,-0.345
 95841,0.,-0.02130865,-0.00858058,0.,-0.02441873,-0.00332814,0.,0.00253
 428,-0.00711930,0.,0.08224319,-0.02900616,0.,-0.00046117,0.00090463,0.
 ,0.08897096,-0.08725035,0.,-0.13235129,0.62662391,0.,0.,-0.06926494,0.
 ,0.,-0.00895289,0.,0.,0.01555557,0.,0.,0.00244900,0.,0.,0.00926931,0.,
 0.,0.00515828,0.,0.,-0.02018411,0.,0.,0.11772607,-0.00874661,-0.044643
 22,0.,-0.06709510,0.00348654,0.,-0.21764381,0.07445634,0.,-0.01596723,
 0.02446710,0.,-0.00138066,0.05045181,0.,-0.00101662,-0.00241181,0.,-0.
 01743841,-0.02252517,0.,-0.22535086,-0.07933611,0.,0.55463931,0.010965
 87,-0.09563852,0.,0.00088978,-0.43063316,0.,0.08427834,-0.15879445,0.,
 -0.01182680,0.01134116,0.,-0.00657385,-0.08227372,0.,-0.00372608,-0.00
 389793,0.,0.01019911,0.01044807,0.,-0.08026090,-0.14628560,0.,-0.00394
 547,0.89573414,0.,0.,0.01940486,0.,0.,-0.00296560,0.,0.,-0.04590541,0.
 ,0.,-0.00494812,0.,0.,0.01206778,0.,0.,0.00468790,0.,0.,-0.00310700,0.
 ,0.,-0.05175629,0.,0.,0.07252186||-0.00044739,0.00016365,0.,0.00000109
 ,0.00008602,0.,0.00002504,-0.00001397,0.,0.00003090,-0.00002726,0.,0.0
 0046359,0.00002461,0.,-0.00000315,-0.00001503,0.,-0.00000760,0.0000753
 8,0.,-0.00030730,-0.00052151,0.,0.00024480,0.00022812,0.|||@


 IF YOU GIVE EVERYONE A PIECE OF YOUR MIND,
 PRETTY SOON IT WILL BE ALL GONE.
 Job cpu time:  0 days  0 hours 25 minutes  8.0 seconds.
 File lengths (MBytes):  RWF=     28 Int=      0 D2E=      0 Chk=      6 Scr=      1
 Normal termination of Gaussian 03 at Mon May 17 09:50:01 2004.
