 Entering Gaussian System, Link 0=g98
 Initial command:
 /usr/local/apps/g98/g98/l1.exe /wrk/Gau-7912.inp -scrdir=/wrk/
 Entering Link 1 = /usr/local/apps/g98/g98/l1.exe PID=     17282.
  
 Copyright (c) 1988,1990,1992,1993,1995,1998 Gaussian, Inc.
                  All Rights Reserved.
  
 This is part of the Gaussian(R) 98 program.  It is based on
 the Gaussian 94(TM) system (copyright 1995 Gaussian, Inc.),
 the Gaussian 92(TM) system (copyright 1992 Gaussian, Inc.),
 the Gaussian 90(TM) system (copyright 1990 Gaussian, Inc.),
 the Gaussian 88(TM) system (copyright 1988 Gaussian, Inc.),
 the Gaussian 86(TM) system (copyright 1986 Carnegie Mellon
 University), and the Gaussian 82(TM) system (copyright 1983
 Carnegie Mellon University). Gaussian is a federally registered
 trademark of Gaussian, Inc.
  
 This software contains proprietary and confidential information,
 including trade secrets, belonging to Gaussian, Inc.
  
 This software is provided under written license and may be
 used, copied, transmitted, or stored only in accord with that
 written license.
  
 The following legend is applicable only to US Government
 contracts under DFARS:
  
                    RESTRICTED RIGHTS LEGEND
  
 Use, duplication or disclosure by the US Government is subject
 to restrictions as set forth in subparagraph (c)(1)(ii) of the
 Rights in Technical Data and Computer Software clause at DFARS
 252.227-7013.
  
 Gaussian, Inc.
 Carnegie Office Park, Building 6, Pittsburgh, PA 15106 USA
  
 The following legend is applicable only to US Government
 contracts under FAR:
  
                    RESTRICTED RIGHTS LEGEND
  
 Use, reproduction and disclosure by the US Government is subject
 to restrictions as set forth in subparagraph (c) of the
 Commercial Computer Software - Restricted Rights clause at FAR
 52.227-19.
  
 Gaussian, Inc.
 Carnegie Office Park, Building 6, Pittsburgh, PA 15106 USA
  
  
 ---------------------------------------------------------------
 Warning -- This program may not be used in any manner that
 competes with the business of Gaussian, Inc. or will provide
 assistance to any competitor of Gaussian, Inc.  The licensee
 of this program is prohibited from giving any competitor of
 Gaussian, Inc. access to this program.  By using this program,
 the user acknowledges that Gaussian, Inc. is engaged in the
 business of creating and licensing software in the field of
 computational chemistry and represents and warrants to the
 licensee that it is not a competitor of Gaussian, Inc. and that
 it will not use this program in any manner prohibited above.
 ---------------------------------------------------------------
  

 Cite this work as:
 Gaussian 98, Revision A.7,
 M. J. Frisch, G. W. Trucks, H. B. Schlegel, G. E. Scuseria, 
 M. A. Robb, J. R. Cheeseman, V. G. Zakrzewski, J. A. Montgomery, Jr., 
 R. E. Stratmann, J. C. Burant, S. Dapprich, J. M. Millam, 
 A. D. Daniels, K. N. Kudin, M. C. Strain, O. Farkas, J. Tomasi, 
 V. Barone, M. Cossi, R. Cammi, B. Mennucci, C. Pomelli, C. Adamo, 
 S. Clifford, J. Ochterski, G. A. Petersson, P. Y. Ayala, Q. Cui, 
 K. Morokuma, D. K. Malick, A. D. Rabuck, K. Raghavachari, 
 J. B. Foresman, J. Cioslowski, J. V. Ortiz, A. G. Baboul, 
 B. B. Stefanov, G. Liu, A. Liashenko, P. Piskorz, I. Komaromi, 
 R. Gomperts, R. L. Martin, D. J. Fox, T. Keith, M. A. Al-Laham, 
 C. Y. Peng, A. Nanayakkara, C. Gonzalez, M. Challacombe, 
 P. M. W. Gill, B. Johnson, W. Chen, M. W. Wong, J. L. Andres, 
 C. Gonzalez, M. Head-Gordon, E. S. Replogle, and J. A. Pople, 
 Gaussian, Inc., Pittsburgh PA, 1998.

 **********************************************
 Gaussian 98:  IBM-RS6000-G98RevA.7 11-Apr-1999
                  29-Jan-2001 
 **********************************************
 %mem=24000000
 ----------------------
 #BLYP/cc-pVDZ opt freq
 ----------------------
 1/14=-1,18=20,26=3,38=1/1,3;
 2/9=110,17=6,18=5/2;
 3/5=16,11=2,25=1,30=1/1,2,3;
 4//1;
 5/5=2,38=4,42=402/2;
 6/7=2,8=2,9=2,10=2,28=1/1;
 7//1,2,3,16;
 1/14=-1,18=20/3(1);
 99//99;
 2/9=110/2;
 3/5=16,11=2,25=1,30=1/1,2,3;
 4/5=5,16=2/1;
 5/5=2,38=4,42=402/2;
 7//1,2,3,16;
 1/14=-1,18=20/3(-5);
 2/9=110/2;
 6/7=2,8=2,9=2,10=2,19=2,28=1/1;
 99/9=1/99;
 --------------------------------
 1H imidazole C3H4N2 casno=288324
 --------------------------------
 Symbolic Z-matrix:
 Charge =  0 Multiplicity = 1
 N                     0.30938   0.        1.30938 
 H                     0.3125    0.       -1.6875 
 C                    -1.06875   0.       -0.28438 
 H                    -1.91875   0.       -0.79063 
 C                    -0.93438   0.        1.02812 
 H                    -1.675     0.        1.6875 
 H                     1.91875   0.        0.09063 
 C                     0.93438   0.        0.19063 
 N                     0.09688   0.       -0.775 

 GradGradGradGradGradGradGradGradGradGradGradGradGradGradGradGradGradGrad
 Berny optimization.
 Initialization pass.
                         ----------------------------
                         !    Initial Parameters    !
                         ! (Angstroms and Degrees)  !
 ------------------------                            -------------------------
 ! Name  Definition              Value          Derivative Info.             !
 -----------------------------------------------------------------------------
 ! R1    R(1,5)                  1.2752         estimate D2E/DX2             !
 ! R2    R(1,8)                  1.2815         estimate D2E/DX2             !
 ! R3    R(2,9)                  0.9376         estimate D2E/DX2             !
 ! R4    R(3,4)                  0.9893         estimate D2E/DX2             !
 ! R5    R(3,5)                  1.3194         estimate D2E/DX2             !
 ! R6    R(3,9)                  1.2647         estimate D2E/DX2             !
 ! R7    R(5,6)                  0.9916         estimate D2E/DX2             !
 ! R8    R(7,8)                  0.9894         estimate D2E/DX2             !
 ! R9    R(8,9)                  1.2782         estimate D2E/DX2             !
 ! A1    A(5,1,8)              106.4483         estimate D2E/DX2             !
 ! A2    A(4,3,5)              126.6232         estimate D2E/DX2             !
 ! A3    A(4,3,9)              126.3957         estimate D2E/DX2             !
 ! A4    A(5,3,9)              106.9812         estimate D2E/DX2             !
 ! A5    A(1,5,3)              108.5877         estimate D2E/DX2             !
 ! A6    A(1,5,6)              125.5794         estimate D2E/DX2             !
 ! A7    A(3,5,6)              125.8329         estimate D2E/DX2             !
 ! A8    A(1,8,7)              124.9909         estimate D2E/DX2             !
 ! A9    A(1,8,9)              109.8741         estimate D2E/DX2             !
 ! A10   A(7,8,9)              125.1349         estimate D2E/DX2             !
 ! A11   A(2,9,3)              126.122          estimate D2E/DX2             !
 ! A12   A(2,9,8)              125.7693         estimate D2E/DX2             !
 ! A13   A(3,9,8)              108.1088         estimate D2E/DX2             !
 ! D1    D(8,1,5,3)              0.             estimate D2E/DX2             !
 ! D2    D(8,1,5,6)            180.             estimate D2E/DX2             !
 ! D3    D(5,1,8,7)            180.             estimate D2E/DX2             !
 ! D4    D(5,1,8,9)              0.             estimate D2E/DX2             !
 ! D5    D(4,3,5,1)            180.             estimate D2E/DX2             !
 ! D6    D(4,3,5,6)              0.             estimate D2E/DX2             !
 ! D7    D(9,3,5,1)              0.             estimate D2E/DX2             !
 ! D8    D(9,3,5,6)            180.             estimate D2E/DX2             !
 ! D9    D(4,3,9,2)              0.             estimate D2E/DX2             !
 ! D10   D(4,3,9,8)            180.             estimate D2E/DX2             !
 ! D11   D(5,3,9,2)            180.             estimate D2E/DX2             !
 ! D12   D(5,3,9,8)              0.             estimate D2E/DX2             !
 ! D13   D(1,8,9,2)            180.             estimate D2E/DX2             !
 ! D14   D(1,8,9,3)              0.             estimate D2E/DX2             !
 ! D15   D(7,8,9,2)              0.             estimate D2E/DX2             !
 ! D16   D(7,8,9,3)            180.             estimate D2E/DX2             !
 -----------------------------------------------------------------------------
 Trust Radius=3.00D-01 FncErr=1.00D-07 GrdErr=1.00D-06
 Number of steps in this run=  48 maximum allowed number of steps= 100.
 GradGradGradGradGradGradGradGradGradGradGradGradGradGradGradGradGradGrad

                          Input orientation:                          
 ---------------------------------------------------------------------
 Center     Atomic     Atomic              Coordinates (Angstroms)
 Number     Number      Type              X           Y           Z
 ---------------------------------------------------------------------
    1          7             0         .309375     .000000    1.309375
    2          1             0         .312500     .000000   -1.687500
    3          6             0       -1.068750     .000000    -.284375
    4          1             0       -1.918750     .000000    -.790625
    5          6             0        -.934375     .000000    1.028125
    6          1             0       -1.675000     .000000    1.687500
    7          1             0        1.918750     .000000     .090625
    8          6             0         .934375     .000000     .190625
    9          7             0         .096875     .000000    -.775000
 ---------------------------------------------------------------------
                    Distance matrix (angstroms):
                    1          2          3          4          5
     1  N     .000000
     2  H    2.996877    .000000
     3  C    2.106957   1.968911    .000000
     4  H    3.061787   2.404758    .989338    .000000
     5  C    1.275153   2.988196   1.319361   2.068054    .000000
     6  H    2.020080   3.916731   2.062966   2.490084    .991615
     7  H    2.018772   2.396199   3.010944   3.937386   3.003203
     8  C    1.281494   1.978404   2.058673   3.017147   2.047836
     9  N    2.095179    .937630   1.264672   2.015686   2.077194
                    6          7          8          9
     6  H     .000000
     7  H    3.932563    .000000
     8  C    3.008234    .989441    .000000
     9  N    3.033718   2.017061   1.278217    .000000
 Stoichiometry    C3H4N2
 Framework group  CS[SG(C3H4N2)]
 Deg. of freedom   15
 Full point group                 CS      NOp   2
 Largest Abelian subgroup         CS      NOp   2
 Largest concise Abelian subgroup C1      NOp   1
                         Standard orientation:                         
 ---------------------------------------------------------------------
 Center     Atomic     Atomic              Coordinates (Angstroms)
 Number     Number      Type              X           Y           Z
 ---------------------------------------------------------------------
    1          7             0        -.674969    -.941702     .000000
    2          1             0        -.005288    1.979393     .000000
    3          6             0        1.025744     .302019     .000000
    4          1             0        1.967693     .604544     .000000
    5          6             0         .600174    -.946822     .000000
    6          1             0        1.173884   -1.755622     .000000
    7          1             0       -1.969692     .607211     .000000
    8          6             0       -1.032886     .288794     .000000
    9          7             0         .000000    1.041778     .000000
 ---------------------------------------------------------------------
 Rotational constants (GHZ):     11.1543393     10.4769603      5.4025219
 Isotopes: N-14,H-1,C-12,H-1,C-12,H-1,H-1,C-12,N-14
 Standard basis: CC-pVDZ (5D, 7F)
 There are    66 symmetry adapted basis functions of A'  symmetry.
 There are    24 symmetry adapted basis functions of A"  symmetry.
 Crude estimate of integral set expansion from redundant integrals=1.000.
 Integral buffers will be    262144 words long.
 Raffenetti 2 integral format.
 Two-electron integral symmetry is turned on.
    90 basis functions      203 primitive gaussians
    18 alpha electrons       18 beta electrons
       nuclear repulsion energy       173.5664837334 Hartrees.
 One-electron integrals computed using PRISM.
 NBasis=    90 RedAO= T  NBF=    66    24
 NBsUse=    90 1.00D-04 NBFU=    66    24
 Projected INDO Guess.
 Initial guess orbital symmetries:
       Occupied  (A') (A') (A') (A') (A') (A') (A') (A') (A') (A')
                 (A') (A") (A') (A') (A') (A") (A') (A")
       Virtual   (A") (A') (A') (A") (A') (A') (A') (A') (A') (A')
                 (A') (A') (A') (A') (A') (A') (A') (A') (A') (A')
                 (A') (A') (A') (A') (A') (A') (A') (A') (A') (A')
                 (A') (A') (A') (A') (A') (A') (A') (A') (A') (A')
                 (A') (A') (A') (A') (A') (A') (A') (A') (A') (A')
                 (A') (A') (A') (A") (A") (A") (A") (A") (A") (A")
                 (A") (A") (A") (A") (A") (A") (A") (A") (A") (A")
                 (A") (A")
 Requested convergence on RMS density matrix=1.00D-08 within  64 cycles.
 Requested convergence on MAX density matrix=1.00D-06.
 Keep R1 and R2 integrals in memory in canonical form, NReq=    21270441.
 Integral accuracy reduced to 1.0D-05 until final iterations.
 Initial convergence to 1.0D-05 achieved.  Increase integral accuracy.
 SCF Done:  E(RB-LYP) =  -226.066829532     A.U. after   16 cycles
             Convg  =     .3287D-08             -V/T =  1.9980
             S**2   =    .0000

 **********************************************************************

            Population analysis using the SCF density.

 **********************************************************************

 Orbital Symmetries:
       Occupied  (A') (A') (A') (A') (A') (A') (A') (A') (A') (A')
                 (A') (A") (A') (A') (A') (A") (A') (A")
       Virtual   (A") (A') (A") (A') (A') (A') (A') (A') (A') (A')
                 (A') (A") (A') (A') (A") (A') (A") (A') (A') (A')
                 (A') (A') (A') (A") (A') (A") (A') (A") (A') (A')
                 (A') (A") (A") (A') (A") (A') (A') (A") (A') (A')
                 (A') (A') (A') (A") (A') (A") (A") (A') (A') (A")
                 (A') (A') (A") (A') (A') (A") (A') (A') (A') (A')
                 (A") (A") (A") (A') (A') (A') (A') (A') (A') (A')
                 (A') (A')
  The electronic state is 1-A'.
 Alpha  occ. eigenvalues --  -14.06727 -13.96807  -9.93836  -9.91308  -9.89520
 Alpha  occ. eigenvalues --    -.97409   -.80933   -.68143   -.57699   -.54191
 Alpha  occ. eigenvalues --    -.52144   -.40627   -.40435   -.38150   -.36200
 Alpha  occ. eigenvalues --    -.24863   -.19249   -.18774
 Alpha virt. eigenvalues --     .02935    .03558    .06971    .09564    .10572
 Alpha virt. eigenvalues --     .12712    .21831    .22410    .27401    .28526
 Alpha virt. eigenvalues --     .39167    .41937    .43205    .47357    .47699
 Alpha virt. eigenvalues --     .49990    .51993    .55436    .58238    .60315
 Alpha virt. eigenvalues --     .68564    .69564    .71965    .73193    .74539
 Alpha virt. eigenvalues --     .82695    .83264    .83967    .85473    .90434
 Alpha virt. eigenvalues --     .96001   1.04004   1.06913   1.08520   1.10773
 Alpha virt. eigenvalues --    1.16903   1.20006   1.22132   1.30761   1.36861
 Alpha virt. eigenvalues --    1.49304   1.52153   1.54909   1.54927   1.57093
 Alpha virt. eigenvalues --    1.62404   1.70551   1.72778   1.78709   1.84518
 Alpha virt. eigenvalues --    1.85356   1.87524   1.89269   1.94742   1.98558
 Alpha virt. eigenvalues --    2.09864   2.17556   2.20495   2.31903   2.34608
 Alpha virt. eigenvalues --    2.36472   2.46059   2.51689   2.59274   2.67449
 Alpha virt. eigenvalues --    2.71050   2.83849   2.86438   2.90919   2.95697
 Alpha virt. eigenvalues --    3.36885   3.64107
          Condensed to atoms (all electrons):
              1          2          3          4          5          6
  1  N    6.068412    .009020   -.125322    .010371    .642501   -.019389
  2  H     .009020    .674170   -.048845   -.009384    .017894   -.000198
  3  C    -.125322   -.048845   4.903348    .343549    .548631   -.064539
  4  H     .010371   -.009384    .343549    .817808   -.030074   -.005060
  5  C     .642501    .017894    .548631   -.030074   4.589545    .378813
  6  H    -.019389   -.000198   -.064539   -.005060    .378813    .819339
  7  H    -.015430   -.006486    .008968   -.001237    .004668   -.001389
  8  C     .620712   -.037038   -.113192    .007370   -.175209    .006717
  9  N    -.077329    .382902    .515628   -.029775   -.062860    .004949
              7          8          9
  1  N    -.015430    .620712   -.077329
  2  H    -.006486   -.037038    .382902
  3  C     .008968   -.113192    .515628
  4  H    -.001237    .007370   -.029775
  5  C     .004668   -.175209   -.062860
  6  H    -.001389    .006717    .004949
  7  H     .774682    .358632   -.028905
  8  C     .358632   4.715006    .514945
  9  N    -.028905    .514945   5.588473
 Total atomic charges:
              1
  1  N    -.113545
  2  H     .017965
  3  C     .031774
  4  H    -.103568
  5  C     .086092
  6  H    -.119242
  7  H    -.093504
  8  C     .102057
  9  N     .191972
 Sum of Mulliken charges=    .00000
 Atomic charges with hydrogens summed into heavy atoms:
              1
  1  N    -.113545
  2  H     .000000
  3  C    -.071794
  4  H     .000000
  5  C    -.033150
  6  H     .000000
  7  H     .000000
  8  C     .008553
  9  N     .209936
 Sum of Mulliken charges=    .00000
 Electronic spatial extent (au):  <R**2>=   258.5115
 Charge=      .0000 electrons
 Dipole moment (Debye):
    X=      .9603    Y=     3.4955    Z=      .0000  Tot=     3.6250
 Quadrupole moment (Debye-Ang):
   XX=   -27.3430   YY=   -25.5587   ZZ=   -29.8632
   XY=    -2.6756   XZ=      .0000   YZ=      .0000
 Octapole moment (Debye-Ang**2):
  XXX=     -.2773  YYY=    14.4792  ZZZ=      .0000  XYY=     3.6857
  XXY=     4.1857  XXZ=      .0000  XZZ=     -.7711  YZZ=     1.2222
  YYZ=      .0000  XYZ=      .0000
 Hexadecapole moment (Debye-Ang**3):
 XXXX=  -146.5865 YYYY=  -131.4216 ZZZZ=   -28.7915 XXXY=    -1.1960
 XXXZ=      .0000 YYYX=    -4.4687 YYYZ=      .0000 ZZZX=      .0000
 ZZZY=      .0000 XXYY=   -52.3799 XXZZ=   -33.3534 YYZZ=   -30.8450
 XXYZ=      .0000 YYXZ=      .0000 ZZXY=      .9424
 N-N= 1.735664837334D+02 E-N=-8.746987641942D+02  KE= 2.265102028826D+02
 Symmetry A'   KE= 2.181771022288D+02
 Symmetry A"   KE= 8.333100653772D+00
 ***** Axes restored to original set *****
 -------------------------------------------------------------------
 Center     Atomic                   Forces (Hartrees/Bohr)
 Number     Number              X              Y              Z
 -------------------------------------------------------------------
    1          7            .086856893     .000000000     .105733094
    2          1            .020666900     .000000000    -.088850011
    3          6           -.084221889     .000000000     .010747988
    4          1           -.078041809     .000000000    -.056543716
    5          6           -.032919586     .000000000    -.005645713
    6          1           -.067998828     .000000000     .066603754
    7          1            .095415582     .000000000    -.012464316
    8          6            .027545597     .000000000     .041420467
    9          7            .032697140     .000000000    -.061001547
 -------------------------------------------------------------------
 Cartesian Forces:  Max      .105733094 RMS      .051005187

 GradGradGradGradGradGradGradGradGradGradGradGradGradGradGradGradGradGrad
 Berny optimization.
 Internal  Forces:  Max      .144699931 RMS      .053275616
 Search for a local minimum.
 Step number   1 out of a maximum of  48
 All quantities printed in internal units (Hartrees-Bohrs-Radians)
 Second derivative matrix not updated -- first step.
     Eigenvalues ---     .03211    .03261    .03288    .03318    .03352
     Eigenvalues ---     .03407    .16000    .16000    .16000    .16000
     Eigenvalues ---     .22000    .22917    .49193    .49594    .49613
     Eigenvalues ---     .54578    .60577    .63413    .68379    .73836
     Eigenvalues ---     .765081000.000001000.000001000.000001000.00000
     Eigenvalues --- 1000.000001000.000001000.000001000.000001000.00000
     Eigenvalues --- 1000.000001000.000001000.000001000.000001000.00000
     Eigenvalues --- 1000.000001000.000001000.00000
 RFO step:  Lambda=-1.38432080D-01.
 Linear search not attempted -- first point.
 Maximum step size (    .300) exceeded in Quadratic search.
    -- Step size scaled by    .701
 Iteration  1 RMS(Cart)=   .06606549 RMS(Int)=   .00035959
 Iteration  2 RMS(Cart)=   .00041452 RMS(Int)=   .00008410
 Iteration  3 RMS(Cart)=   .00000019 RMS(Int)=   .00008410
 Variable       Old X    -DE/DX   Delta X   Delta X   Delta X     New X
                                 (Linear)    (Quad)   (Total)
    R1        2.40969    .13243    .00000    .10291    .10284   2.51253
    R2        2.42167    .08090    .00000    .06420    .06405   2.48572
    R3        1.77186    .09122    .00000    .08591    .08591   1.85778
    R4        1.86958    .09598    .00000    .10602    .10602   1.97559
    R5        2.49323    .09904    .00000    .09155    .09166   2.58489
    R6        2.38988    .14470    .00000    .11243    .11256   2.50244
    R7        1.87388    .09507    .00000    .10571    .10571   1.97959
    R8        1.86977    .09619    .00000    .10627    .10627   1.97605
    R9        2.41548    .12849    .00000    .10414    .10411   2.51959
    A1        1.85787    .00355    .00000   -.00288   -.00315   1.85472
    A2        2.20999    .01548    .00000    .03070    .03058   2.24057
    A3        2.20602   -.00067    .00000   -.00724   -.00736   2.19866
    A4        1.86717   -.01482    .00000   -.02346   -.02322   1.84395
    A5        1.89521    .01048    .00000    .01699    .01705   1.91226
    A6        2.19177   -.00949    .00000   -.01848   -.01851   2.17327
    A7        2.19620   -.00099    .00000    .00149    .00146   2.19766
    A8        2.18150    .00178    .00000    .00441    .00448   2.18598
    A9        1.91767    .00160    .00000    .00332    .00318   1.92085
   A10        2.18402   -.00338    .00000   -.00773   -.00766   2.17636
   A11        2.20124    .00011    .00000   -.00369   -.00375   2.19750
   A12        2.19509    .00069    .00000   -.00234   -.00239   2.19270
   A13        1.88685   -.00080    .00000    .00603    .00614   1.89299
    D1         .00000    .00000    .00000    .00000    .00000    .00000
    D2        3.14159    .00000    .00000    .00000    .00000   3.14159
    D3        3.14159    .00000    .00000    .00000    .00000   3.14159
    D4         .00000    .00000    .00000    .00000    .00000    .00000
    D5        3.14159    .00000    .00000    .00000    .00000   3.14159
    D6         .00000    .00000    .00000    .00000    .00000    .00000
    D7         .00000    .00000    .00000    .00000    .00000    .00000
    D8        3.14159    .00000    .00000    .00000    .00000   3.14159
    D9         .00000    .00000    .00000    .00000    .00000    .00000
   D10        3.14159    .00000    .00000    .00000    .00000   3.14159
   D11        3.14159    .00000    .00000    .00000    .00000   3.14159
   D12         .00000    .00000    .00000    .00000    .00000    .00000
   D13        3.14159    .00000    .00000    .00000    .00000   3.14159
   D14         .00000    .00000    .00000    .00000    .00000    .00000
   D15         .00000    .00000    .00000    .00000    .00000    .00000
   D16        3.14159    .00000    .00000    .00000    .00000   3.14159
         Item               Value     Threshold  Converged?
 Maximum Force             .144700      .000450     NO 
 RMS     Force             .053276      .000300     NO 
 Maximum Displacement      .189582      .001800     NO 
 RMS     Displacement      .066020      .001200     NO 
 Predicted change in Energy=-2.777510D-02
 GradGradGradGradGradGradGradGradGradGradGradGradGradGradGradGradGradGrad

                          Input orientation:                          
 ---------------------------------------------------------------------
 Center     Atomic     Atomic              Coordinates (Angstroms)
 Number     Number      Type              X           Y           Z
 ---------------------------------------------------------------------
    1          7             0         .476016     .000000    1.114326
    2          1             0         .475264     .000000   -1.999502
    3          6             0        -.979857     .000000    -.540153
    4          1             0       -1.869594     .000000   -1.089072
    5          6             0        -.820201     .000000     .818365
    6          1             0       -1.591065     .000000    1.527689
    7          1             0        2.156051     .000000    -.146139
    8          6             0        1.116328     .000000    -.034694
    9          7             0         .244869     .000000   -1.043787
 ---------------------------------------------------------------------
                    Distance matrix (angstroms):
                    1          2          3          4          5
     1  N     .000000
     2  H    3.113828    .000000
     3  C    2.203830   2.060844    .000000
     4  H    3.218206   2.515401   1.045439    .000000
     5  C    1.329576   3.101387   1.367867   2.177048    .000000
     6  H    2.108007   4.087883   2.156280   2.631542   1.047556
     7  H    2.100308   2.501999   3.160565   4.134603   3.128633
     8  C    1.315389   2.066744   2.156266   3.166614   2.116094
     9  N    2.170457    .983093   1.324237   2.114948   2.145223
                    6          7          8          9
     6  H     .000000
     7  H    4.103972    .000000
     8  C    3.125863   1.045679    .000000
     9  N    3.159611   2.111490   1.333307    .000000
 Stoichiometry    C3H4N2
 Framework group  CS[SG(C3H4N2)]
 Deg. of freedom   15
 Full point group                 CS      NOp   2
 Largest Abelian subgroup         CS      NOp   2
 Largest concise Abelian subgroup C1      NOp   1
                         Standard orientation:                         
 ---------------------------------------------------------------------
 Center     Atomic     Atomic              Coordinates (Angstroms)
 Number     Number      Type              X           Y           Z
 ---------------------------------------------------------------------
    1          7             0        -.709066    -.973255     .000000
    2          1             0        -.010280    2.061151     .000000
    3          6             0        1.080651     .312739     .000000
    4          1             0        2.070798     .648227     .000000
    5          6             0         .620508    -.975410     .000000
    6          1             0        1.212737   -1.839492     .000000
    7          1             0       -2.063772     .631757     .000000
    8          6             0       -1.075495     .290065     .000000
    9          7             0         .000000    1.078112     .000000
 ---------------------------------------------------------------------
 Rotational constants (GHZ):     10.2032819      9.7705824      4.9911226
 Isotopes: N-14,H-1,C-12,H-1,C-12,H-1,H-1,C-12,N-14
 Standard basis: CC-pVDZ (5D, 7F)
 There are    66 symmetry adapted basis functions of A'  symmetry.
 There are    24 symmetry adapted basis functions of A"  symmetry.
 Crude estimate of integral set expansion from redundant integrals=1.000.
 Integral buffers will be    262144 words long.
 Raffenetti 2 integral format.
 Two-electron integral symmetry is turned on.
    90 basis functions      203 primitive gaussians
    18 alpha electrons       18 beta electrons
       nuclear repulsion energy       166.7130004021 Hartrees.
 One-electron integrals computed using PRISM.
 NBasis=    90 RedAO= T  NBF=    66    24
 NBsUse=    90 1.00D-04 NBFU=    66    24
 Initial guess read from the read-write file:
 Initial guess orbital symmetries:
       Occupied  (A') (A') (A') (A') (A') (A') (A') (A') (A') (A')
                 (A') (A") (A') (A') (A') (A") (A') (A")
       Virtual   (A") (A') (A") (A') (A') (A') (A') (A') (A') (A')
                 (A') (A") (A') (A') (A") (A') (A") (A') (A') (A')
                 (A') (A') (A') (A") (A') (A") (A') (A") (A') (A')
                 (A') (A") (A") (A') (A") (A') (A') (A") (A') (A')
                 (A') (A') (A') (A") (A') (A") (A") (A') (A') (A")
                 (A') (A') (A") (A') (A') (A") (A') (A') (A') (A')
                 (A") (A") (A") (A') (A') (A') (A') (A') (A') (A')
                 (A') (A')
 Requested convergence on RMS density matrix=1.00D-08 within  64 cycles.
 Requested convergence on MAX density matrix=1.00D-06.
 Keep R1 and R2 integrals in memory in canonical form, NReq=    21270441.
 Integral accuracy reduced to 1.0D-05 until final iterations.
 Initial convergence to 1.0D-05 achieved.  Increase integral accuracy.
 SCF Done:  E(RB-LYP) =  -226.132800432     A.U. after   14 cycles
             Convg  =     .2550D-08             -V/T =  2.0035
             S**2   =    .0000
 ***** Axes restored to original set *****
 -------------------------------------------------------------------
 Center     Atomic                   Forces (Hartrees/Bohr)
 Number     Number              X              Y              Z
 -------------------------------------------------------------------
    1          7            .039233974     .000000000     .043465970
    2          1            .007879741     .000000000    -.034730667
    3          6           -.038235411     .000000000     .017058972
    4          1           -.027962566     .000000000    -.025242141
    5          6           -.014774067     .000000000    -.013544057
    6          1           -.024697462     .000000000     .027871056
    7          1            .036923792     .000000000    -.006493107
    8          6            .003494167     .000000000     .022335357
    9          7            .018137832     .000000000    -.030721383
 -------------------------------------------------------------------
 Cartesian Forces:  Max      .043465970 RMS      .021813005

 GradGradGradGradGradGradGradGradGradGradGradGradGradGradGradGradGradGrad
 Berny optimization.
 Internal  Forces:  Max      .059549363 RMS      .020861444
 Search for a local minimum.
 Step number   2 out of a maximum of  48
 All quantities printed in internal units (Hartrees-Bohrs-Radians)
 Update second derivatives using information from points  1  2
 Trust test= 2.38D+00 RLast= 3.00D-01 DXMaxT set to 4.24D-01
     Eigenvalues ---     .03210    .03262    .03288    .03315    .03351
     Eigenvalues ---     .03406    .15939    .16000    .16000    .16000
     Eigenvalues ---     .22086    .22836    .49309    .49603    .51443
     Eigenvalues ---     .55704    .60991    .64004    .70367    .73479
     Eigenvalues ---     .757141000.000001000.000001000.000001000.00000
     Eigenvalues --- 1000.000001000.000001000.000001000.000001000.00000
     Eigenvalues --- 1000.000001000.000001000.000001000.000001000.00000
     Eigenvalues --- 1000.000001000.000001000.00000
 RFO step:  Lambda=-2.38330545D-03.
 Quartic linear search produced a step of   .86712.
 Iteration  1 RMS(Cart)=   .05892062 RMS(Int)=   .00113228
 Iteration  2 RMS(Cart)=   .00135719 RMS(Int)=   .00010775
 Iteration  3 RMS(Cart)=   .00000219 RMS(Int)=   .00010773
 Iteration  4 RMS(Cart)=   .00000000 RMS(Int)=   .00010773
 Variable       Old X    -DE/DX   Delta X   Delta X   Delta X     New X
                                 (Linear)    (Quad)   (Total)
    R1        2.51253    .05380    .08918    .00213    .09119   2.60372
    R2        2.48572    .02821    .05554   -.01015    .04522   2.53095
    R3        1.85778    .03561    .07450    .00139    .07589   1.93367
    R4        1.97559    .03705    .09193    .00484    .09677   2.07236
    R5        2.58489    .03326    .07948   -.01531    .06426   2.64915
    R6        2.50244    .05955    .09760    .00491    .10269   2.60514
    R7        1.97959    .03705    .09166    .00634    .09801   2.07760
    R8        1.97605    .03741    .09215    .00589    .09804   2.07409
    R9        2.51959    .05006    .09027   -.00158    .08870   2.60829
    A1        1.85472   -.00176   -.00273   -.02991   -.03302   1.82170
    A2        2.24057    .00931    .02651    .05265    .07902   2.31959
    A3        2.19866   -.00412   -.00638   -.05078   -.05731   2.14136
    A4        1.84395   -.00520   -.02013   -.00187   -.02171   1.82224
    A5        1.91226    .00632    .01478    .02138    .03616   1.94842
    A6        2.17327   -.00691   -.01605   -.04040   -.05645   2.11682
    A7        2.19766    .00059    .00126    .01902    .02029   2.21794
    A8        2.18598    .00050    .00388    .00566    .00960   2.19558
    A9        1.92085    .00399    .00276    .02973    .03237   1.95321
   A10        2.17636   -.00449   -.00664   -.03538   -.04197   2.13439
   A11        2.19750    .00123   -.00325    .00543    .00207   2.19957
   A12        2.19270    .00212   -.00207    .01390    .01172   2.20442
   A13        1.89299   -.00335    .00532   -.01933   -.01380   1.87920
    D1         .00000    .00000    .00000    .00000    .00000    .00000
    D2        3.14159    .00000    .00000    .00000    .00000   3.14159
    D3        3.14159    .00000    .00000    .00000    .00000   3.14159
    D4         .00000    .00000    .00000    .00000    .00000    .00000
    D5        3.14159    .00000    .00000    .00000    .00000   3.14159
    D6         .00000    .00000    .00000    .00000    .00000    .00000
    D7         .00000    .00000    .00000    .00000    .00000    .00000
    D8        3.14159    .00000    .00000    .00000    .00000   3.14159
    D9         .00000    .00000    .00000    .00000    .00000    .00000
   D10        3.14159    .00000    .00000    .00000    .00000   3.14159
   D11        3.14159    .00000    .00000    .00000    .00000   3.14159
   D12         .00000    .00000    .00000    .00000    .00000    .00000
   D13        3.14159    .00000    .00000    .00000    .00000   3.14159
   D14         .00000    .00000    .00000    .00000    .00000    .00000
   D15         .00000    .00000    .00000    .00000    .00000    .00000
   D16        3.14159    .00000    .00000    .00000    .00000   3.14159
         Item               Value     Threshold  Converged?
 Maximum Force             .059549      .000450     NO 
 RMS     Force             .020861      .000300     NO 
 Maximum Displacement      .169306      .001800     NO 
 RMS     Displacement      .058753      .001200     NO 
 Predicted change in Energy=-2.340462D-02
 GradGradGradGradGradGradGradGradGradGradGradGradGradGradGradGradGradGrad

                          Input orientation:                          
 ---------------------------------------------------------------------
 Center     Atomic     Atomic              Coordinates (Angstroms)
 Number     Number      Type              X           Y           Z
 ---------------------------------------------------------------------
    1          7             0         .499495     .000000    1.163573
    2          1             0         .491257     .000000   -2.069504
    3          6             0       -1.029074     .000000    -.554426
    4          1             0       -1.926436     .000000   -1.184800
    5          6             0        -.838443     .000000     .834425
    6          1             0       -1.617283     .000000    1.610397
    7          1             0        2.220243     .000000    -.161982
    8          6             0        1.132325     .000000    -.016809
    9          7             0         .247110     .000000   -1.075804
 ---------------------------------------------------------------------
                    Distance matrix (angstroms):
                    1          2          3          4          5
     1  N     .000000
     2  H    3.233087    .000000
     3  C    2.299574   2.146361    .000000
     4  H    3.376389   2.574479   1.096645    .000000
     5  C    1.377830   3.193885   1.401873   2.293687    .000000
     6  H    2.163423   4.241180   2.243311   2.812242   1.099420
     7  H    2.172113   2.574497   3.272931   4.270961   3.216891
     8  C    1.339320   2.150471   2.227258   3.274176   2.146748
     9  N    2.253555   1.023253   1.378579   2.176277   2.197134
                    6          7          8          9
     6  H     .000000
     7  H    4.227048    .000000
     8  C    3.195018   1.097562    .000000
     9  N    3.269807   2.174472   1.380245    .000000
 Stoichiometry    C3H4N2
 Framework group  CS[SG(C3H4N2)]
 Deg. of freedom   15
 Full point group                 CS      NOp   2
 Largest Abelian subgroup         CS      NOp   2
 Largest concise Abelian subgroup C1      NOp   1
                         Standard orientation:                         
 ---------------------------------------------------------------------
 Center     Atomic     Atomic              Coordinates (Angstroms)
 Number     Number      Type              X           Y           Z
 ---------------------------------------------------------------------
    1          7             0        -.743589   -1.012920     .000000
    2          1             0        -.017280    2.137529     .000000
    3          6             0        1.128459     .322550     .000000
    4          1             0        2.143442     .737808     .000000
    5          6             0         .634037    -.989240     .000000
    6          1             0        1.221019   -1.918851     .000000
    7          1             0       -2.126843     .661799     .000000
    8          6             0       -1.098365     .278556     .000000
    9          7             0         .000000    1.114422     .000000
 ---------------------------------------------------------------------
 Rotational constants (GHZ):      9.6795440      9.0679291      4.6818800
 Isotopes: N-14,H-1,C-12,H-1,C-12,H-1,H-1,C-12,N-14
 Standard basis: CC-pVDZ (5D, 7F)
 There are    66 symmetry adapted basis functions of A'  symmetry.
 There are    24 symmetry adapted basis functions of A"  symmetry.
 Crude estimate of integral set expansion from redundant integrals=1.000.
 Integral buffers will be    262144 words long.
 Raffenetti 2 integral format.
 Two-electron integral symmetry is turned on.
    90 basis functions      203 primitive gaussians
    18 alpha electrons       18 beta electrons
       nuclear repulsion energy       161.3913791722 Hartrees.
 One-electron integrals computed using PRISM.
 NBasis=    90 RedAO= T  NBF=    66    24
 NBsUse=    90 1.00D-04 NBFU=    66    24
 Initial guess read from the read-write file:
 Initial guess orbital symmetries:
       Occupied  (A') (A') (A') (A') (A') (A') (A') (A') (A') (A')
                 (A') (A') (A") (A') (A') (A") (A') (A")
       Virtual   (A") (A') (A") (A') (A') (A') (A') (A') (A') (A')
                 (A') (A') (A") (A') (A') (A") (A") (A') (A') (A')
                 (A') (A') (A') (A") (A') (A") (A') (A') (A") (A')
                 (A') (A") (A') (A") (A") (A') (A') (A") (A') (A')
                 (A') (A') (A") (A') (A') (A") (A') (A") (A') (A")
                 (A') (A') (A") (A') (A') (A") (A') (A') (A') (A')
                 (A") (A") (A") (A') (A') (A') (A') (A') (A') (A')
                 (A') (A')
 Requested convergence on RMS density matrix=1.00D-08 within  64 cycles.
 Requested convergence on MAX density matrix=1.00D-06.
 Keep R1 and R2 integrals in memory in canonical form, NReq=    21270441.
 Integral accuracy reduced to 1.0D-05 until final iterations.
 Initial convergence to 1.0D-05 achieved.  Increase integral accuracy.
 SCF Done:  E(RB-LYP) =  -226.149068997     A.U. after   13 cycles
             Convg  =     .7171D-08             -V/T =  2.0071
             S**2   =    .0000
 ***** Axes restored to original set *****
 -------------------------------------------------------------------
 Center     Atomic                   Forces (Hartrees/Bohr)
 Number     Number              X              Y              Z
 -------------------------------------------------------------------
    1          7            .006650431     .000000000    -.007507666
    2          1           -.000289570     .000000000     .002329782
    3          6           -.007684319     .000000000     .011970179
    4          1            .002518882     .000000000     .001410017
    5          6           -.013561402     .000000000    -.004948523
    6          1            .001717959     .000000000    -.001755110
    7          1           -.001905219     .000000000    -.000069911
    8          6            .004271809     .000000000     .004051288
    9          7            .008281429     .000000000    -.005480055
 -------------------------------------------------------------------
 Cartesian Forces:  Max      .013561402 RMS      .004974425

 GradGradGradGradGradGradGradGradGradGradGradGradGradGradGradGradGradGrad
 Berny optimization.
 Internal  Forces:  Max      .009994601 RMS      .002981257
 Search for a local minimum.
 Step number   3 out of a maximum of  48
 All quantities printed in internal units (Hartrees-Bohrs-Radians)
 Update second derivatives using information from points  1  2  3
 Trust test= 6.95D-01 RLast= 2.94D-01 DXMaxT set to 4.24D-01
     Eigenvalues ---     .03205    .03260    .03287    .03303    .03349
     Eigenvalues ---     .03404    .15541    .16000    .16000    .16002
     Eigenvalues ---     .22085    .23279    .44837    .49336    .49615
     Eigenvalues ---     .55911    .58846    .64106    .66041    .71879
     Eigenvalues ---     .747121000.000001000.000001000.000001000.00000
     Eigenvalues --- 1000.000001000.000001000.000001000.000001000.00000
     Eigenvalues --- 1000.000001000.000001000.000001000.000001000.00000
     Eigenvalues --- 1000.000001000.000001000.00000
 RFO step:  Lambda=-6.34777749D-04.
 Quartic linear search produced a step of  -.01596.
 Iteration  1 RMS(Cart)=   .00676920 RMS(Int)=   .00002888
 Iteration  2 RMS(Cart)=   .00002782 RMS(Int)=   .00000556
 Iteration  3 RMS(Cart)=   .00000000 RMS(Int)=   .00000556
 Variable       Old X    -DE/DX   Delta X   Delta X   Delta X     New X
                                 (Linear)    (Quad)   (Total)
    R1        2.60372    .00744   -.00146    .01222    .01078   2.61450
    R2        2.53095   -.00420   -.00072   -.00446   -.00518   2.52577
    R3        1.93367   -.00233   -.00121   -.00159   -.00280   1.93087
    R4        2.07236   -.00287   -.00154   -.00295   -.00450   2.06786
    R5        2.64915   -.00907   -.00103   -.01235   -.01337   2.63579
    R6        2.60514    .00999   -.00164    .01587    .01422   2.61936
    R7        2.07760   -.00246   -.00156   -.00215   -.00371   2.07389
    R8        2.07409   -.00188   -.00156   -.00096   -.00252   2.07157
    R9        2.60829   -.00065   -.00142    .00190    .00047   2.60876
    A1        1.82170    .00506    .00053    .01808    .01862   1.84032
    A2        2.31959   -.00037   -.00126   -.00042   -.00168   2.31790
    A3        2.14136   -.00097    .00091   -.00664   -.00572   2.13563
    A4        1.82224    .00134    .00035    .00706    .00741   1.82965
    A5        1.94842   -.00327   -.00058   -.01397   -.01453   1.93389
    A6        2.11682    .00166    .00090    .00646    .00735   2.12417
    A7        2.21794    .00161   -.00032    .00751    .00718   2.22512
    A8        2.19558    .00186   -.00015    .00883    .00868   2.20426
    A9        1.95321   -.00306   -.00052   -.01260   -.01313   1.94009
   A10        2.13439    .00119    .00067    .00377    .00445   2.13884
   A11        2.19957    .00030   -.00003    .00081    .00079   2.20036
   A12        2.20442   -.00023   -.00019   -.00224   -.00242   2.20200
   A13        1.87920   -.00008    .00022    .00143    .00163   1.88083
    D1         .00000    .00000    .00000    .00000    .00000    .00000
    D2        3.14159    .00000    .00000    .00000    .00000   3.14159
    D3        3.14159    .00000    .00000    .00000    .00000   3.14159
    D4         .00000    .00000    .00000    .00000    .00000    .00000
    D5        3.14159    .00000    .00000    .00000    .00000   3.14159
    D6         .00000    .00000    .00000    .00000    .00000    .00000
    D7         .00000    .00000    .00000    .00000    .00000    .00000
    D8        3.14159    .00000    .00000    .00000    .00000   3.14159
    D9         .00000    .00000    .00000    .00000    .00000    .00000
   D10        3.14159    .00000    .00000    .00000    .00000   3.14159
   D11        3.14159    .00000    .00000    .00000    .00000   3.14159
   D12         .00000    .00000    .00000    .00000    .00000    .00000
   D13        3.14159    .00000    .00000    .00000    .00000   3.14159
   D14         .00000    .00000    .00000    .00000    .00000    .00000
   D15         .00000    .00000    .00000    .00000    .00000    .00000
   D16        3.14159    .00000    .00000    .00000    .00000   3.14159
         Item               Value     Threshold  Converged?
 Maximum Force             .009995      .000450     NO 
 RMS     Force             .002981      .000300     NO 
 Maximum Displacement      .020559      .001800     NO 
 RMS     Displacement      .006765      .001200     NO 
 Predicted change in Energy=-3.213401D-04
 GradGradGradGradGradGradGradGradGradGradGradGradGradGradGradGradGradGrad

                          Input orientation:                          
 ---------------------------------------------------------------------
 Center     Atomic     Atomic              Coordinates (Angstroms)
 Number     Number      Type              X           Y           Z
 ---------------------------------------------------------------------
    1          7             0         .498430     .000000    1.141926
    2          1             0         .493197     .000000   -2.078508
    3          6             0       -1.030882     .000000    -.558548
    4          1             0       -1.924202     .000000   -1.190525
    5          6             0        -.848132     .000000     .824226
    6          1             0       -1.623894     .000000    1.600499
    7          1             0        2.227303     .000000    -.174803
    8          6             0        1.140650     .000000    -.030251
    9          7             0         .251006     .000000   -1.085855
 ---------------------------------------------------------------------
                    Distance matrix (angstroms):
                    1          2          3          4          5
     1  N     .000000
     2  H    3.220438    .000000
     3  C    2.287009   2.152463    .000000
     4  H    3.362956   2.575332   1.094265    .000000
     5  C    1.383533   3.197660   1.394799   2.284108    .000000
     6  H    2.171301   4.244663   2.239006   2.807134   1.097454
     7  H    2.173195   2.575115   3.280706   4.273954   3.233629
     8  C    1.336580   2.148151   2.234871   3.277125   2.164575
     9  N    2.241479   1.021772   1.386106   2.177725   2.203750
                    6          7          8          9
     6  H     .000000
     7  H    4.240686    .000000
     8  C    3.209680   1.096226    .000000
     9  N    3.275934   2.176182   1.380495    .000000
 Stoichiometry    C3H4N2
 Framework group  CS[SG(C3H4N2)]
 Deg. of freedom   15
 Full point group                 CS      NOp   2
 Largest Abelian subgroup         CS      NOp   2
 Largest concise Abelian subgroup C1      NOp   1
                         Standard orientation:                         
 ---------------------------------------------------------------------
 Center     Atomic     Atomic              Coordinates (Angstroms)
 Number     Number      Type              X           Y           Z
 ---------------------------------------------------------------------
    1          7             0        -.743867   -1.000921     .000000
    2          1             0        -.011892    2.135229     .000000
    3          6             0        1.129791     .310494     .000000
    4          1             0        2.142701     .724534     .000000
    5          6             0         .639654    -.995350     .000000
    6          1             0        1.220187   -1.926686     .000000
    7          1             0       -2.130931     .672049     .000000
    8          6             0       -1.104945     .285962     .000000
    9          7             0         .000000    1.113526     .000000
 ---------------------------------------------------------------------
 Rotational constants (GHZ):      9.5596450      9.1646070      4.6789794
 Isotopes: N-14,H-1,C-12,H-1,C-12,H-1,H-1,C-12,N-14
 Standard basis: CC-pVDZ (5D, 7F)
 There are    66 symmetry adapted basis functions of A'  symmetry.
 There are    24 symmetry adapted basis functions of A"  symmetry.
 Crude estimate of integral set expansion from redundant integrals=1.000.
 Integral buffers will be    262144 words long.
 Raffenetti 2 integral format.
 Two-electron integral symmetry is turned on.
    90 basis functions      203 primitive gaussians
    18 alpha electrons       18 beta electrons
       nuclear repulsion energy       161.3289346401 Hartrees.
 One-electron integrals computed using PRISM.
 NBasis=    90 RedAO= T  NBF=    66    24
 NBsUse=    90 1.00D-04 NBFU=    66    24
 Initial guess read from the read-write file:
 Initial guess orbital symmetries:
       Occupied  (A') (A') (A') (A') (A') (A') (A') (A') (A') (A')
                 (A') (A') (A') (A") (A') (A") (A') (A")
       Virtual   (A") (A') (A") (A') (A') (A') (A') (A') (A') (A')
                 (A') (A') (A') (A") (A') (A") (A') (A') (A") (A')
                 (A') (A') (A') (A") (A') (A") (A') (A') (A") (A')
                 (A') (A") (A') (A") (A") (A') (A') (A") (A') (A')
                 (A') (A') (A") (A') (A') (A') (A") (A") (A') (A')
                 (A") (A') (A') (A") (A') (A') (A") (A') (A') (A')
                 (A") (A') (A") (A") (A') (A') (A') (A') (A') (A')
                 (A') (A')
 Requested convergence on RMS density matrix=1.00D-08 within  64 cycles.
 Requested convergence on MAX density matrix=1.00D-06.
 Keep R1 and R2 integrals in memory in canonical form, NReq=    21270441.
 Integral accuracy reduced to 1.0D-05 until final iterations.
 Initial convergence to 1.0D-05 achieved.  Increase integral accuracy.
 SCF Done:  E(RB-LYP) =  -226.149411342     A.U. after   11 cycles
             Convg  =     .9995D-08             -V/T =  2.0071
             S**2   =    .0000
 ***** Axes restored to original set *****
 -------------------------------------------------------------------
 Center     Atomic                   Forces (Hartrees/Bohr)
 Number     Number              X              Y              Z
 -------------------------------------------------------------------
    1          7            .006126435     .000000000     .000052019
    2          1           -.000650838     .000000000     .000803109
    3          6           -.003475129     .000000000     .005291690
    4          1            .001211089     .000000000     .000143513
    5          6           -.003769843     .000000000    -.005293636
    6          1            .001504168     .000000000    -.000748877
    7          1           -.001190928     .000000000     .000194269
    8          6           -.003657508     .000000000     .003952544
    9          7            .003902554     .000000000    -.004394631
 -------------------------------------------------------------------
 Cartesian Forces:  Max      .006126435 RMS      .002654323

 GradGradGradGradGradGradGradGradGradGradGradGradGradGradGradGradGradGrad
 Berny optimization.
 Internal  Forces:  Max      .003680560 RMS      .001319322
 Search for a local minimum.
 Step number   4 out of a maximum of  48
 All quantities printed in internal units (Hartrees-Bohrs-Radians)
 Update second derivatives using information from points  1  2  3  4
 Trust test= 1.07D+00 RLast= 4.00D-02 DXMaxT set to 4.24D-01
     Eigenvalues ---     .03205    .03261    .03286    .03303    .03350
     Eigenvalues ---     .03404    .15099    .16000    .16000    .16053
     Eigenvalues ---     .21318    .34166    .42419    .46286    .49441
     Eigenvalues ---     .49691    .56927    .59739    .64658    .67877
     Eigenvalues ---     .770421000.000001000.000001000.000001000.00000
     Eigenvalues --- 1000.000001000.000001000.000001000.000001000.00000
     Eigenvalues --- 1000.000001000.000001000.000001000.000001000.00000
     Eigenvalues --- 1000.000001000.000001000.00000
 RFO step:  Lambda=-1.70131973D-04.
 Quartic linear search produced a step of   .07361.
 Iteration  1 RMS(Cart)=   .00255723 RMS(Int)=   .00000555
 Iteration  2 RMS(Cart)=   .00000624 RMS(Int)=   .00000272
 Iteration  3 RMS(Cart)=   .00000000 RMS(Int)=   .00000272
 Variable       Old X    -DE/DX   Delta X   Delta X   Delta X     New X
                                 (Linear)    (Quad)   (Total)
    R1        2.61450    .00312    .00079    .00725    .00804   2.62254
    R2        2.52577   -.00361   -.00038   -.00604   -.00642   2.51935
    R3        1.93087   -.00093   -.00021   -.00144   -.00164   1.92923
    R4        2.06786   -.00107   -.00033   -.00219   -.00252   2.06534
    R5        2.63579   -.00368   -.00098   -.00804   -.00903   2.62676
    R6        2.61936    .00236    .00105    .00720    .00825   2.62761
    R7        2.07389   -.00159   -.00027   -.00319   -.00347   2.07042
    R8        2.07157   -.00121   -.00019   -.00209   -.00228   2.06929
    R9        2.60876    .00058    .00003    .00187    .00191   2.61066
    A1        1.84032   -.00168    .00137   -.00553   -.00416   1.83615
    A2        2.31790    .00071   -.00012    .00416    .00404   2.32195
    A3        2.13563   -.00049   -.00042   -.00525   -.00566   2.12997
    A4        1.82965   -.00023    .00055    .00108    .00162   1.83127
    A5        1.93389    .00131   -.00107    .00336    .00229   1.93618
    A6        2.12417   -.00121    .00054   -.00553   -.00499   2.11918
    A7        2.22512   -.00010    .00053    .00217    .00270   2.22782
    A8        2.20426   -.00112    .00064   -.00347   -.00283   2.20143
    A9        1.94009    .00217   -.00097    .00744    .00648   1.94656
   A10        2.13884   -.00105    .00033   -.00397   -.00365   2.13519
   A11        2.20036    .00036    .00006    .00061    .00067   2.20103
   A12        2.20200    .00121   -.00018    .00574    .00556   2.20755
   A13        1.88083   -.00157    .00012   -.00635   -.00622   1.87461
    D1         .00000    .00000    .00000    .00000    .00000    .00000
    D2        3.14159    .00000    .00000    .00000    .00000   3.14159
    D3        3.14159    .00000    .00000    .00000    .00000   3.14159
    D4         .00000    .00000    .00000    .00000    .00000    .00000
    D5        3.14159    .00000    .00000    .00000    .00000   3.14159
    D6         .00000    .00000    .00000    .00000    .00000    .00000
    D7         .00000    .00000    .00000    .00000    .00000    .00000
    D8        3.14159    .00000    .00000    .00000    .00000   3.14159
    D9         .00000    .00000    .00000    .00000    .00000    .00000
   D10        3.14159    .00000    .00000    .00000    .00000   3.14159
   D11        3.14159    .00000    .00000    .00000    .00000   3.14159
   D12         .00000    .00000    .00000    .00000    .00000    .00000
   D13        3.14159    .00000    .00000    .00000    .00000   3.14159
   D14         .00000    .00000    .00000    .00000    .00000    .00000
   D15         .00000    .00000    .00000    .00000    .00000    .00000
   D16        3.14159    .00000    .00000    .00000    .00000   3.14159
         Item               Value     Threshold  Converged?
 Maximum Force             .003681      .000450     NO 
 RMS     Force             .001319      .000300     NO 
 Maximum Displacement      .006201      .001800     NO 
 RMS     Displacement      .002558      .001200     NO 
 Predicted change in Energy=-8.664305D-05
 GradGradGradGradGradGradGradGradGradGradGradGradGradGradGradGradGradGrad

                          Input orientation:                          
 ---------------------------------------------------------------------
 Center     Atomic     Atomic              Coordinates (Angstroms)
 Number     Number      Type              X           Y           Z
 ---------------------------------------------------------------------
    1          7             0         .501392     .000000    1.143595
    2          1             0         .492868     .000000   -2.079298
    3          6             0       -1.032038     .000000    -.555008
    4          1             0       -1.922209     .000000   -1.189118
    5          6             0        -.848833     .000000     .822888
    6          1             0       -1.620593     .000000    1.600555
    7          1             0        2.224348     .000000    -.171512
    8          6             0        1.138866     .000000    -.027304
    9          7             0         .252609     .000000   -1.087069
 ---------------------------------------------------------------------
                    Distance matrix (angstroms):
                    1          2          3          4          5
     1  N     .000000
     2  H    3.222905    .000000
     3  C    2.288375   2.156107    .000000
     4  H    3.363836   2.573911   1.092932    .000000
     5  C    1.387789   3.197318   1.390022   2.280418    .000000
     6  H    2.170629   4.243588   2.234469   2.805931   1.095619
     7  H    2.167507   2.576368   3.278889   4.269597   3.230057
     8  C    1.333184   2.151277   2.234120   3.274140   2.161891
     9  N    2.244494   1.020903   1.390470   2.177211   2.204792
                    6          7          8          9
     6  H     .000000
     7  H    4.233650    .000000
     8  C    3.203832   1.095019    .000000
     9  N    3.276005   2.173936   1.381504    .000000
 Stoichiometry    C3H4N2
 Framework group  CS[SG(C3H4N2)]
 Deg. of freedom   15
 Full point group                 CS      NOp   2
 Largest Abelian subgroup         CS      NOp   2
 Largest concise Abelian subgroup C1      NOp   1
                         Standard orientation:                         
 ---------------------------------------------------------------------
 Center     Atomic     Atomic              Coordinates (Angstroms)
 Number     Number      Type              X           Y           Z
 ---------------------------------------------------------------------
    1          7             0        -.747209   -1.000443     .000000
    2          1             0        -.009445    2.136884     .000000
    3          6             0        1.130883     .307007     .000000
    4          1             0        2.141477     .723183     .000000
    5          6             0         .640563    -.993665     .000000
    6          1             0        1.216280   -1.925829     .000000
    7          1             0       -2.127795     .670506     .000000
    8          6             0       -1.103122     .284355     .000000
    9          7             0         .000000    1.116024     .000000
 ---------------------------------------------------------------------
 Rotational constants (GHZ):      9.5611724      9.1592242      4.6779416
 Isotopes: N-14,H-1,C-12,H-1,C-12,H-1,H-1,C-12,N-14
 Standard basis: CC-pVDZ (5D, 7F)
 There are    66 symmetry adapted basis functions of A'  symmetry.
 There are    24 symmetry adapted basis functions of A"  symmetry.
 Crude estimate of integral set expansion from redundant integrals=1.000.
 Integral buffers will be    262144 words long.
 Raffenetti 2 integral format.
 Two-electron integral symmetry is turned on.
    90 basis functions      203 primitive gaussians
    18 alpha electrons       18 beta electrons
       nuclear repulsion energy       161.3205353545 Hartrees.
 One-electron integrals computed using PRISM.
 NBasis=    90 RedAO= T  NBF=    66    24
 NBsUse=    90 1.00D-04 NBFU=    66    24
 Initial guess read from the read-write file:
 Initial guess orbital symmetries:
       Occupied  (A') (A') (A') (A') (A') (A') (A') (A') (A') (A')
                 (A') (A') (A') (A") (A') (A") (A') (A")
       Virtual   (A") (A') (A") (A') (A') (A') (A') (A') (A') (A')
                 (A') (A') (A') (A") (A') (A") (A') (A') (A") (A')
                 (A') (A') (A') (A") (A') (A") (A') (A') (A") (A')
                 (A') (A") (A') (A") (A") (A') (A') (A") (A') (A')
                 (A') (A') (A") (A') (A') (A') (A") (A") (A') (A')
                 (A") (A') (A') (A") (A') (A') (A") (A') (A') (A')
                 (A") (A') (A") (A") (A') (A') (A') (A') (A') (A')
                 (A') (A')
 Requested convergence on RMS density matrix=1.00D-08 within  64 cycles.
 Requested convergence on MAX density matrix=1.00D-06.
 Keep R1 and R2 integrals in memory in canonical form, NReq=    21270441.
 SCF Done:  E(RB-LYP) =  -226.149525719     A.U. after   10 cycles
             Convg  =     .3756D-08             -V/T =  2.0071
             S**2   =    .0000
 ***** Axes restored to original set *****
 -------------------------------------------------------------------
 Center     Atomic                   Forces (Hartrees/Bohr)
 Number     Number              X              Y              Z
 -------------------------------------------------------------------
    1          7            .002543537     .000000000     .000174574
    2          1           -.000273064     .000000000     .000301340
    3          6           -.000760391     .000000000     .001315921
    4          1            .000222726     .000000000    -.000038507
    5          6           -.001453046     .000000000    -.001920341
    6          1            .000478315     .000000000    -.000101889
    7          1           -.000183764     .000000000     .000032093
    8          6           -.001845821     .000000000     .001158716
    9          7            .001271508     .000000000    -.000921905
 -------------------------------------------------------------------
 Cartesian Forces:  Max      .002543537 RMS      .000909124

 GradGradGradGradGradGradGradGradGradGradGradGradGradGradGradGradGradGrad
 Berny optimization.
 Internal  Forces:  Max      .001347247 RMS      .000453369
 Search for a local minimum.
 Step number   5 out of a maximum of  48
 All quantities printed in internal units (Hartrees-Bohrs-Radians)
 Update second derivatives using information from points  1  2  3  4  5

 Trust test= 1.32D+00 RLast= 2.29D-02 DXMaxT set to 4.24D-01
     Eigenvalues ---     .03205    .03261    .03286    .03302    .03349
     Eigenvalues ---     .03404    .14101    .15967    .16001    .16020
     Eigenvalues ---     .21015    .28490    .40718    .46442    .49545
     Eigenvalues ---     .49682    .56696    .59483    .64893    .67441
     Eigenvalues ---     .769111000.000001000.000001000.000001000.00000
     Eigenvalues --- 1000.000001000.000001000.000001000.000001000.00000
     Eigenvalues --- 1000.000001000.000001000.000001000.000001000.00000
     Eigenvalues --- 1000.000001000.000001000.00000
 RFO step:  Lambda=-2.94451859D-06.
 Quartic linear search produced a step of   .46766.
 Iteration  1 RMS(Cart)=   .00126957 RMS(Int)=   .00000254
 Iteration  2 RMS(Cart)=   .00000157 RMS(Int)=   .00000215
 Iteration  3 RMS(Cart)=   .00000000 RMS(Int)=   .00000215
 Variable       Old X    -DE/DX   Delta X   Delta X   Delta X     New X
                                 (Linear)    (Quad)   (Total)
    R1        2.62254    .00135    .00376    .00087    .00463   2.62717
    R2        2.51935   -.00135   -.00300   -.00039   -.00339   2.51596
    R3        1.92923   -.00036   -.00077   -.00014   -.00091   1.92832
    R4        2.06534   -.00016   -.00118    .00052   -.00065   2.06469
    R5        2.62676   -.00104   -.00422    .00037   -.00386   2.62291
    R6        2.62761    .00041    .00386   -.00058    .00327   2.63088
    R7        2.07042   -.00041   -.00162    .00031   -.00131   2.06911
    R8        2.06929   -.00019   -.00107    .00060   -.00047   2.06882
    R9        2.61066   -.00010    .00089   -.00069    .00021   2.61087
    A1        1.83615   -.00080   -.00195   -.00085   -.00280   1.83336
    A2        2.32195    .00027    .00189    .00014    .00203   2.32398
    A3        2.12997   -.00006   -.00265    .00061   -.00204   2.12793
    A4        1.83127   -.00020    .00076   -.00075    .00001   1.83128
    A5        1.93618    .00044    .00107    .00047    .00154   1.93772
    A6        2.11918   -.00050   -.00233   -.00111   -.00344   2.11575
    A7        2.22782    .00006    .00126    .00063    .00190   2.22972
    A8        2.20143   -.00045   -.00132   -.00015   -.00148   2.19995
    A9        1.94656    .00088    .00303    .00047    .00350   1.95006
   A10        2.13519   -.00043   -.00171   -.00031   -.00202   2.13317
   A11        2.20103   -.00003    .00031   -.00073   -.00042   2.20060
   A12        2.20755    .00035    .00260    .00008    .00267   2.21022
   A13        1.87461   -.00032   -.00291    .00066   -.00225   1.87236
    D1         .00000    .00000    .00000    .00000    .00000    .00000
    D2        3.14159    .00000    .00000    .00000    .00000   3.14159
    D3        3.14159    .00000    .00000    .00000    .00000   3.14159
    D4         .00000    .00000    .00000    .00000    .00000    .00000
    D5        3.14159    .00000    .00000    .00000    .00000   3.14159
    D6         .00000    .00000    .00000    .00000    .00000    .00000
    D7         .00000    .00000    .00000    .00000    .00000    .00000
    D8        3.14159    .00000    .00000    .00000    .00000   3.14159
    D9         .00000    .00000    .00000    .00000    .00000    .00000
   D10        3.14159    .00000    .00000    .00000    .00000   3.14159
   D11        3.14159    .00000    .00000    .00000    .00000   3.14159
   D12         .00000    .00000    .00000    .00000    .00000    .00000
   D13        3.14159    .00000    .00000    .00000    .00000   3.14159
   D14         .00000    .00000    .00000    .00000    .00000    .00000
   D15         .00000    .00000    .00000    .00000    .00000    .00000
   D16        3.14159    .00000    .00000    .00000    .00000   3.14159
         Item               Value     Threshold  Converged?
 Maximum Force             .001347      .000450     NO 
 RMS     Force             .000453      .000300     NO 
 Maximum Displacement      .003540      .001800     NO 
 RMS     Displacement      .001270      .001200     NO 
 Predicted change in Energy=-1.437595D-05
 GradGradGradGradGradGradGradGradGradGradGradGradGradGradGradGradGradGrad

                          Input orientation:                          
 ---------------------------------------------------------------------
 Center     Atomic     Atomic              Coordinates (Angstroms)
 Number     Number      Type              X           Y           Z
 ---------------------------------------------------------------------
    1          7             0         .502969     .000000    1.144175
    2          1             0         .492424     .000000   -2.079645
    3          6             0       -1.032848     .000000    -.554356
    4          1             0       -1.921737     .000000   -1.189668
    5          6             0        -.849288     .000000     .821435
    6          1             0       -1.618731     .000000    1.600420
    7          1             0        2.222786     .000000    -.170664
    8          6             0        1.137582     .000000    -.026238
    9          7             0         .253154     .000000   -1.087672
 ---------------------------------------------------------------------
                    Distance matrix (angstroms):
                    1          2          3          4          5
     1  N     .000000
     2  H    3.223837    .000000
     3  C    2.289921   2.157072    .000000
     4  H    3.365415   2.572981   1.092587    .000000
     5  C    1.390238   3.196319   1.387982   2.279184    .000000
     6  H    2.170200   4.242623   2.233006   2.806493   1.094925
     7  H    2.164849   2.576501   3.278165   4.267954   3.228296
     8  C    1.331390   2.152373   2.233758   3.273072   2.160140
     9  N    2.245785   1.020421   1.392203   2.177281   2.204556
                    6          7          8          9
     6  H     .000000
     7  H    4.230128    .000000
     8  C    3.200512   1.094772    .000000
     9  N    3.275636   2.172637   1.381614    .000000
 Stoichiometry    C3H4N2
 Framework group  CS[SG(C3H4N2)]
 Deg. of freedom   15
 Full point group                 CS      NOp   2
 Largest Abelian subgroup         CS      NOp   2
 Largest concise Abelian subgroup C1      NOp   1
                         Standard orientation:                         
 ---------------------------------------------------------------------
 Center     Atomic     Atomic              Coordinates (Angstroms)
 Number     Number      Type              X           Y           Z
 ---------------------------------------------------------------------
    1          7             0        -.749221   -1.000355     .000000
    2          1             0        -.008184    2.137158     .000000
    3          6             0        1.131636     .305828     .000000
    4          1             0        2.141399     .723112     .000000
    5          6             0         .640995    -.992542     .000000
    6          1             0        1.213830   -1.925665     .000000
    7          1             0       -2.126227     .670102     .000000
    8          6             0       -1.102009     .283445     .000000
    9          7             0         .000000    1.116770     .000000
 ---------------------------------------------------------------------
 Rotational constants (GHZ):      9.5646053      9.1551145      4.6776906
 Isotopes: N-14,H-1,C-12,H-1,C-12,H-1,H-1,C-12,N-14
 Standard basis: CC-pVDZ (5D, 7F)
 There are    66 symmetry adapted basis functions of A'  symmetry.
 There are    24 symmetry adapted basis functions of A"  symmetry.
 Crude estimate of integral set expansion from redundant integrals=1.000.
 Integral buffers will be    262144 words long.
 Raffenetti 2 integral format.
 Two-electron integral symmetry is turned on.
    90 basis functions      203 primitive gaussians
    18 alpha electrons       18 beta electrons
       nuclear repulsion energy       161.3208563489 Hartrees.
 One-electron integrals computed using PRISM.
 NBasis=    90 RedAO= T  NBF=    66    24
 NBsUse=    90 1.00D-04 NBFU=    66    24
 Initial guess read from the read-write file:
 Initial guess orbital symmetries:
       Occupied  (A') (A') (A') (A') (A') (A') (A') (A') (A') (A')
                 (A') (A') (A') (A") (A') (A") (A') (A")
       Virtual   (A") (A') (A") (A') (A') (A') (A') (A') (A') (A')
                 (A') (A') (A') (A") (A') (A") (A') (A') (A") (A')
                 (A') (A') (A') (A") (A') (A") (A') (A') (A") (A')
                 (A') (A") (A') (A") (A") (A') (A') (A") (A') (A')
                 (A') (A') (A") (A') (A') (A') (A") (A") (A') (A')
                 (A") (A') (A') (A") (A') (A') (A") (A') (A') (A')
                 (A") (A') (A") (A") (A') (A') (A') (A') (A') (A')
                 (A') (A')
 Requested convergence on RMS density matrix=1.00D-08 within  64 cycles.
 Requested convergence on MAX density matrix=1.00D-06.
 Keep R1 and R2 integrals in memory in canonical form, NReq=    21270441.
 SCF Done:  E(RB-LYP) =  -226.149540606     A.U. after    9 cycles
             Convg  =     .4979D-08             -V/T =  2.0071
             S**2   =    .0000
 ***** Axes restored to original set *****
 -------------------------------------------------------------------
 Center     Atomic                   Forces (Hartrees/Bohr)
 Number     Number              X              Y              Z
 -------------------------------------------------------------------
    1          7            .000381686     .000000000     .000135902
    2          1           -.000022608     .000000000     .000006448
    3          6            .000327033     .000000000    -.000197861
    4          1           -.000064201     .000000000    -.000017803
    5          6           -.000406269     .000000000    -.000021801
    6          1            .000014006     .000000000     .000072296
    7          1            .000097224     .000000000    -.000021779
    8          6           -.000397112     .000000000    -.000214190
    9          7            .000070242     .000000000     .000258787
 -------------------------------------------------------------------
 Cartesian Forces:  Max      .000406269 RMS      .000169050

 GradGradGradGradGradGradGradGradGradGradGradGradGradGradGradGradGradGrad
 Berny optimization.
 Internal  Forces:  Max      .000290465 RMS      .000087044
 Search for a local minimum.
 Step number   6 out of a maximum of  48
 All quantities printed in internal units (Hartrees-Bohrs-Radians)
 Update second derivatives using information from points  1  2  3  4  5
                                                        6
 Trust test= 1.04D+00 RLast= 1.12D-02 DXMaxT set to 4.24D-01
     Eigenvalues ---     .03204    .03261    .03286    .03302    .03349
     Eigenvalues ---     .03404    .13700    .15865    .16000    .16044
     Eigenvalues ---     .20571    .28565    .40468    .45887    .49521
     Eigenvalues ---     .49678    .56604    .59163    .64675    .67449
     Eigenvalues ---     .761651000.000001000.000001000.000001000.00000
     Eigenvalues --- 1000.000001000.000001000.000001000.000001000.00000
     Eigenvalues --- 1000.000001000.000001000.000001000.000001000.00000
     Eigenvalues --- 1000.000001000.000001000.00000
 RFO step:  Lambda=-5.35380099D-07.
 Quartic linear search produced a step of   .03388.
 Iteration  1 RMS(Cart)=   .00017307 RMS(Int)=   .00000004
 Iteration  2 RMS(Cart)=   .00000003 RMS(Int)=   .00000003
 Variable       Old X    -DE/DX   Delta X   Delta X   Delta X     New X
                                 (Linear)    (Quad)   (Total)
    R1        2.62717    .00029    .00016    .00043    .00059   2.62776
    R2        2.51596    .00001   -.00011    .00005   -.00007   2.51590
    R3        1.92832   -.00001   -.00003   -.00001   -.00004   1.92828
    R4        2.06469    .00006   -.00002    .00013    .00011   2.06480
    R5        2.62291    .00010   -.00013    .00024    .00011   2.62302
    R6        2.63088   -.00018    .00011   -.00027   -.00016   2.63072
    R7        2.06911    .00004   -.00004    .00010    .00005   2.06916
    R8        2.06882    .00010   -.00002    .00021    .00019   2.06901
    R9        2.61087   -.00026    .00001   -.00042   -.00041   2.61046
    A1        1.83336   -.00012   -.00009   -.00016   -.00025   1.83310
    A2        2.32398   -.00005    .00007   -.00026   -.00020   2.32378
    A3        2.12793    .00000   -.00007    .00006   -.00001   2.12792
    A4        1.83128    .00004    .00000    .00020    .00020   1.83148
    A5        1.93772   -.00012    .00005   -.00030   -.00025   1.93747
    A6        2.11575    .00000   -.00012   -.00022   -.00033   2.11541
    A7        2.22972    .00012    .00006    .00052    .00058   2.23030
    A8        2.19995   -.00005   -.00005   -.00008   -.00013   2.19982
    A9        1.95006    .00013    .00012    .00028    .00040   1.95046
   A10        2.13317   -.00007   -.00007   -.00020   -.00027   2.13290
   A11        2.20060   -.00005   -.00001   -.00009   -.00010   2.20050
   A12        2.21022   -.00001    .00009    .00011    .00020   2.21043
   A13        1.87236    .00007   -.00008   -.00002   -.00010   1.87226
    D1         .00000    .00000    .00000    .00000    .00000    .00000
    D2        3.14159    .00000    .00000    .00000    .00000   3.14159
    D3        3.14159    .00000    .00000    .00000    .00000   3.14159
    D4         .00000    .00000    .00000    .00000    .00000    .00000
    D5        3.14159    .00000    .00000    .00000    .00000   3.14159
    D6         .00000    .00000    .00000    .00000    .00000    .00000
    D7         .00000    .00000    .00000    .00000    .00000    .00000
    D8        3.14159    .00000    .00000    .00000    .00000   3.14159
    D9         .00000    .00000    .00000    .00000    .00000    .00000
   D10        3.14159    .00000    .00000    .00000    .00000   3.14159
   D11        3.14159    .00000    .00000    .00000    .00000   3.14159
   D12         .00000    .00000    .00000    .00000    .00000    .00000
   D13        3.14159    .00000    .00000    .00000    .00000   3.14159
   D14         .00000    .00000    .00000    .00000    .00000    .00000
   D15         .00000    .00000    .00000    .00000    .00000    .00000
   D16        3.14159    .00000    .00000    .00000    .00000   3.14159
         Item               Value     Threshold  Converged?
 Maximum Force             .000290      .000450     YES
 RMS     Force             .000087      .000300     YES
 Maximum Displacement      .000547      .001800     YES
 RMS     Displacement      .000173      .001200     YES
 Predicted change in Energy=-2.836907D-07
 Optimization completed.
    -- Stationary point found.
                         ----------------------------
                         !   Optimized Parameters   !
                         ! (Angstroms and Degrees)  !
 ------------------------                            -------------------------
 ! Name  Definition              Value          Derivative Info.             !
 -----------------------------------------------------------------------------
 ! R1    R(1,5)                  1.3902         -DE/DX =    0.0003           !
 ! R2    R(1,8)                  1.3314         -DE/DX =    0.               !
 ! R3    R(2,9)                  1.0204         -DE/DX =    0.               !
 ! R4    R(3,4)                  1.0926         -DE/DX =    0.0001           !
 ! R5    R(3,5)                  1.388          -DE/DX =    0.0001           !
 ! R6    R(3,9)                  1.3922         -DE/DX =   -0.0002           !
 ! R7    R(5,6)                  1.0949         -DE/DX =    0.               !
 ! R8    R(7,8)                  1.0948         -DE/DX =    0.0001           !
 ! R9    R(8,9)                  1.3816         -DE/DX =   -0.0003           !
 ! A1    A(5,1,8)              105.0436         -DE/DX =   -0.0001           !
 ! A2    A(4,3,5)              133.154          -DE/DX =    0.               !
 ! A3    A(4,3,9)              121.9214         -DE/DX =    0.               !
 ! A4    A(5,3,9)              104.9246         -DE/DX =    0.               !
 ! A5    A(1,5,3)              111.0231         -DE/DX =   -0.0001           !
 ! A6    A(1,5,6)              121.2234         -DE/DX =    0.               !
 ! A7    A(3,5,6)              127.7535         -DE/DX =    0.0001           !
 ! A8    A(1,8,7)              126.0479         -DE/DX =   -0.0001           !
 ! A9    A(1,8,9)              111.7305         -DE/DX =    0.0001           !
 ! A10   A(7,8,9)              122.2216         -DE/DX =   -0.0001           !
 ! A11   A(2,9,3)              126.0853         -DE/DX =   -0.0001           !
 ! A12   A(2,9,8)              126.6366         -DE/DX =    0.               !
 ! A13   A(3,9,8)              107.2781         -DE/DX =    0.0001           !
 ! D1    D(8,1,5,3)              0.             -DE/DX =    0.               !
 ! D2    D(8,1,5,6)            180.             -DE/DX =    0.               !
[...]
 Atom AN      X      Y      Z        X      Y      Z        X      Y      Z
   1   7      .00    .00    .00      .00    .00    .00      .00    .00    .00
   2   1     -.01    .02    .00     -.01   -.02    .00     -.01   1.00    .00
   3   6     -.01    .00    .00     -.08   -.04    .00      .00    .00    .00
   4   1      .10    .04    .00      .87    .36    .00      .02    .00    .00
   5   6      .01   -.01    .00     -.01    .03    .00      .00    .00    .00
   6   1     -.06    .09    .00      .16   -.27    .00      .00    .00    .00
   7   1      .92   -.34    .00     -.06    .02    .00     -.02    .00    .00
   8   6     -.08    .03    .00      .01    .00    .00      .00    .00    .00
   9   7      .00    .00    .00      .00    .00    .00      .00   -.08    .00

 -------------------
 - Thermochemistry -
 -------------------
 Temperature   298.150 Kelvin.  Pressure   1.00000 Atm.
 Atom  1 has atomic number  7 and mass  14.00307
 Atom  2 has atomic number  1 and mass   1.00783
 Atom  3 has atomic number  6 and mass  12.00000
 Atom  4 has atomic number  1 and mass   1.00783
 Atom  5 has atomic number  6 and mass  12.00000
 Atom  6 has atomic number  1 and mass   1.00783
 Atom  7 has atomic number  1 and mass   1.00783
 Atom  8 has atomic number  6 and mass  12.00000
 Atom  9 has atomic number  7 and mass  14.00307
 Molecular mass:    68.03745 amu.
 Principal axes and moments of inertia in atomic units:
                           1         2         3
     EIGENVALUES --   188.68956 197.12928 385.81884
           X             .47522    .87987    .00000
           Y             .87987   -.47522    .00000
           Z             .00000    .00000   1.00000
 THIS MOLECULE IS AN ASYMMETRIC TOP.
 ROTATIONAL SYMMETRY NUMBER  1.
 ROTATIONAL TEMPERATURES (KELVIN)       .45903      .43937      .22449
 ROTATIONAL CONSTANTS (GHZ)            9.56461     9.15511     4.67769
 Zero-point vibrational energy     179482.2 (Joules/Mol)
                                   42.89727 (Kcal/Mol)
 WARNING-- EXPLICIT CONSIDERATION OF   1 DEGREES OF FREEDOM AS
           VIBRATIONS MAY CAUSE SIGNIFICANT ERROR
 VIBRATIONAL TEMPERATURES:    710.48   899.59   950.34   991.74  1088.82
          (KELVIN)           1180.10  1252.72  1305.85  1486.57  1508.09
                             1577.83  1620.41  1762.27  1883.57  1984.62
                             2074.86  2147.14  4543.45  4554.68  4593.72
                             5056.40
 
 Zero-point correction=                            .068361 (Hartree/Particle)
 Thermal correction to Energy=                     .072249
 Thermal correction to Enthalpy=                   .073193
 Thermal correction to Gibbs Free Energy=          .042014
 Sum of electronic and zero-point Energies=           -226.081179
 Sum of electronic and thermal Energies=              -226.077292
 Sum of electronic and thermal Enthalpies=            -226.076347
 Sum of electronic and thermal Free Energies=         -226.107527
 
                     E (Thermal)             CV                S
                      KCAL/MOL        CAL/MOL-KELVIN    CAL/MOL-KELVIN
 TOTAL                   45.337             14.160             65.623
 ELECTRONIC                .000               .000               .000
 TRANSLATIONAL             .889              2.981             38.570
 ROTATIONAL                .889              2.981             24.177
 VIBRATIONAL             43.560              8.199              2.875
 VIBRATION  1              .849              1.264               .674
                       Q            LOG10(Q)             LN(Q)
 TOTAL BOT        .473241D-19        -19.324918        -44.497267
 TOTAL V=0        .131467D+13         12.118818         27.904609
 VIB (BOT)        .500275D-31        -31.300791        -72.072734
 VIB (BOT)  1     .334654D+00          -.475404         -1.094658
 VIB (V=0)        .138978D+01           .142945           .329142
 VIB (V=0)  1     .110166D+01           .042047           .096817
 ELECTRONIC       .100000D+01           .000000           .000000
 TRANSLATIONAL    .220588D+08          7.343582         16.909224
 ROTATIONAL       .428835D+05          4.632291         10.666243
 ***** Axes restored to original set *****
 -------------------------------------------------------------------
 Center     Atomic                   Forces (Hartrees/Bohr)
 Number     Number              X              Y              Z
 -------------------------------------------------------------------
    1          7            .000381653     .000000000     .000135927
    2          1           -.000022606     .000000000     .000006429
    3          6            .000327004     .000000000    -.000197833
    4          1           -.000064228     .000000000    -.000017821
    5          6           -.000406296     .000000000    -.000021737
    6          1            .000014031     .000000000     .000072268
    7          1            .000097222     .000000000    -.000021779
    8          6           -.000397081     .000000000    -.000214219
    9          7            .000070302     .000000000     .000258765
 -------------------------------------------------------------------
 Cartesian Forces:  Max      .000406296 RMS      .000169045

 GradGradGradGradGradGradGradGradGradGradGradGradGradGradGradGradGradGrad
 Berny optimization.
 Internal  Forces:  Max      .000290460 RMS      .000087040
 Search for a local minimum.
 Step number   1 out of a maximum of  48
 All quantities printed in internal units (Hartrees-Bohrs-Radians)
 Second derivative matrix not updated -- analytic derivatives used.
     Eigenvalues ---     .00480    .00986    .01803    .02550    .05620
     Eigenvalues ---     .05880    .09035    .09646    .10219    .11026
     Eigenvalues ---     .21424    .22994    .31769    .34987    .35282
     Eigenvalues ---     .35684    .37666    .41560    .43389    .44644
     Eigenvalues ---     .531081000.000001000.000001000.000001000.00000
     Eigenvalues --- 1000.000001000.000001000.000001000.000001000.00000
     Eigenvalues --- 1000.000001000.000001000.000001000.000001000.00000
     Eigenvalues --- 1000.000001000.000001000.00000
 Angle between quadratic step and forces=  25.01 degrees.
 Linear search not attempted -- first point.
 Iteration  1 RMS(Cart)=   .00026606 RMS(Int)=   .00000007
 Iteration  2 RMS(Cart)=   .00000008 RMS(Int)=   .00000001
 Variable       Old X    -DE/DX   Delta X   Delta X   Delta X     New X
                                 (Linear)    (Quad)   (Total)
    R1        2.62717    .00029    .00000    .00113    .00113   2.62830
    R2        2.51596    .00001    .00000    .00000    .00000   2.51596
    R3        1.92832   -.00001    .00000   -.00003   -.00003   1.92829
    R4        2.06469    .00006    .00000    .00019    .00019   2.06488
    R5        2.62291    .00010    .00000    .00018    .00018   2.62309
    R6        2.63088   -.00018    .00000   -.00051   -.00051   2.63038
    R7        2.06911    .00004    .00000    .00006    .00006   2.06917
    R8        2.06882    .00010    .00000    .00032    .00032   2.06913
    R9        2.61087   -.00026    .00000   -.00079   -.00079   2.61008
    A1        1.83336   -.00012    .00000   -.00041   -.00041   1.83294
    A2        2.32398   -.00005    .00000   -.00045   -.00045   2.32353
    A3        2.12793    .00000    .00000    .00022    .00022   2.12815
    A4        1.83128    .00004    .00000    .00023    .00023   1.83151
    A5        1.93772   -.00012    .00000   -.00041   -.00041   1.93731
    A6        2.11575    .00000    .00000   -.00054   -.00054   2.11520
    A7        2.22972    .00012    .00000    .00095    .00095   2.23067
    A8        2.19995   -.00005    .00000   -.00023   -.00023   2.19972
    A9        1.95006    .00013    .00000    .00045    .00045   1.95051
   A10        2.13317   -.00007    .00000   -.00022   -.00022   2.13295
   A11        2.20060   -.00005    .00000   -.00027   -.00027   2.20033
   A12        2.21022   -.00001    .00000    .00013    .00013   2.21035
   A13        1.87236    .00007    .00000    .00015    .00015   1.87251
    D1         .00000    .00000    .00000    .00000    .00000    .00000
    D2        3.14159    .00000    .00000    .00000    .00000   3.14159
    D3        3.14159    .00000    .00000    .00000    .00000   3.14159
    D4         .00000    .00000    .00000    .00000    .00000    .00000
    D5        3.14159    .00000    .00000    .00000    .00000   3.14159
    D6         .00000    .00000    .00000    .00000    .00000    .00000
    D7         .00000    .00000    .00000    .00000    .00000    .00000
    D8        3.14159    .00000    .00000    .00000    .00000   3.14159
    D9         .00000    .00000    .00000    .00000    .00000    .00000
   D10        3.14159    .00000    .00000    .00000    .00000   3.14159
   D11        3.14159    .00000    .00000    .00000    .00000   3.14159
   D12         .00000    .00000    .00000    .00000    .00000    .00000
   D13        3.14159    .00000    .00000    .00000    .00000   3.14159
   D14         .00000    .00000    .00000    .00000    .00000    .00000
   D15         .00000    .00000    .00000    .00000    .00000    .00000
   D16        3.14159    .00000    .00000    .00000    .00000   3.14159
         Item               Value     Threshold  Converged?
 Maximum Force             .000290      .000450     YES
 RMS     Force             .000087      .000300     YES
 Maximum Displacement      .000738      .001800     YES
 RMS     Displacement      .000266      .001200     YES
 Predicted change in Energy=-5.205390D-07
 Optimization completed.
    -- Stationary point found.
                         ----------------------------
                         !   Optimized Parameters   !
                         ! (Angstroms and Degrees)  !
 ------------------------                            -------------------------
 ! Name  Definition              Value          Derivative Info.             !
 -----------------------------------------------------------------------------
 ! R1    R(1,5)                  1.3902         -DE/DX =    0.0003           !
 ! R2    R(1,8)                  1.3314         -DE/DX =    0.               !
 ! R3    R(2,9)                  1.0204         -DE/DX =    0.               !
 ! R4    R(3,4)                  1.0926         -DE/DX =    0.0001           !
 ! R5    R(3,5)                  1.388          -DE/DX =    0.0001           !
 ! R6    R(3,9)                  1.3922         -DE/DX =   -0.0002           !
 ! R7    R(5,6)                  1.0949         -DE/DX =    0.               !
 ! R8    R(7,8)                  1.0948         -DE/DX =    0.0001           !
 ! R9    R(8,9)                  1.3816         -DE/DX =   -0.0003           !
 ! A1    A(5,1,8)              105.0436         -DE/DX =   -0.0001           !
 ! A2    A(4,3,5)              133.154          -DE/DX =    0.               !
 ! A3    A(4,3,9)              121.9214         -DE/DX =    0.               !
 ! A4    A(5,3,9)              104.9246         -DE/DX =    0.               !
 ! A5    A(1,5,3)              111.0231         -DE/DX =   -0.0001           !
 ! A6    A(1,5,6)              121.2234         -DE/DX =    0.               !
 ! A7    A(3,5,6)              127.7535         -DE/DX =    0.0001           !
 ! A8    A(1,8,7)              126.0479         -DE/DX =   -0.0001           !
 ! A9    A(1,8,9)              111.7305         -DE/DX =    0.0001           !
 ! A10   A(7,8,9)              122.2216         -DE/DX =   -0.0001           !
 ! A11   A(2,9,3)              126.0853         -DE/DX =   -0.0001           !
 ! A12   A(2,9,8)              126.6366         -DE/DX =    0.               !
 ! A13   A(3,9,8)              107.2781         -DE/DX =    0.0001           !
 ! D1    D(8,1,5,3)              0.             -DE/DX =    0.               !
 ! D2    D(8,1,5,6)            180.             -DE/DX =    0.               !
 ! D3    D(5,1,8,7)            180.             -DE/DX =    0.               !
 ! D4    D(5,1,8,9)              0.             -DE/DX =    0.               !
 ! D5    D(4,3,5,1)            180.             -DE/DX =    0.               !
 ! D6    D(4,3,5,6)              0.             -DE/DX =    0.               !
 ! D7    D(9,3,5,1)              0.             -DE/DX =    0.               !
 ! D8    D(9,3,5,6)            180.             -DE/DX =    0.               !
 ! D9    D(4,3,9,2)              0.             -DE/DX =    0.               !
 ! D10   D(4,3,9,8)            180.             -DE/DX =    0.               !
 ! D11   D(5,3,9,2)            180.             -DE/DX =    0.               !
 ! D12   D(5,3,9,8)              0.             -DE/DX =    0.               !
 ! D13   D(1,8,9,2)            180.             -DE/DX =    0.               !
 ! D14   D(1,8,9,3)              0.             -DE/DX =    0.               !
 ! D15   D(7,8,9,2)              0.             -DE/DX =    0.               !
 ! D16   D(7,8,9,3)            180.             -DE/DX =    0.               !
 -----------------------------------------------------------------------------
 GradGradGradGradGradGradGradGradGradGradGradGradGradGradGradGradGradGrad

 1\1\GINC-PECOS\Freq\RBLYP\CC-pVDZ\C3H4N2\RUS\29-Jan-2001\0\\#N GEOM=AL
 LCHECK GUESS=TCHECK RBLYP/CC-PVDZ FREQ\\1H imidazole C3H4N2 casno=2883
 24\\0,1\N,0.5029610308,0.,1.1441468342\H,0.4924164454,0.,-2.0796724579
 \C,-1.0328555971,0.,-0.5543836832\H,-1.9217446347,0.,-1.1896959332\C,-
 0.849296128,0.,0.8214066371\H,-1.6187385449,0.,1.6003919211\H,2.222777
 6984,0.,-0.1706916194\C,1.1375745182,0.,-0.0262658504\N,0.2531464375,0
 .,-1.0877003388\\Version=IBM-RS6000-G98RevA.7\State=1-A'\HF=-226.14954
 06\RMSD=2.710e-09\RMSF=1.690e-04\Dipole=-0.0670537,0.,-1.3927808\Dipol
 eDeriv=-0.3371051,-0.0000625,-0.0455041,0.00011,-0.2697926,0.0000866,-
 0.0473723,0.000225,-0.5566428,0.1570552,0.0000049,-0.0057739,-0.000072
 6,0.2907928,0.0000008,-0.0073328,0.0001532,0.1333022,0.0013636,0.00018
 06,-0.2239663,-0.0000008,-0.1289941,-0.0000103,-0.0305864,-0.0001006,0
 .177254,0.0104395,-0.000014,-0.0457892,0.,0.1580941,-0.0000807,-0.0770
 9,-0.000007,0.0214139,0.1634517,-0.0000828,-0.0622691,-0.0001058,-0.10
 47229,0.0000057,-0.0515113,0.0000365,0.1434765,-0.0125999,0.0000235,0.
 0668818,0.0000227,0.1243362,-0.0000071,0.0812272,0.0000034,0.0210158,-
 0.0306611,0.0000998,0.0349779,-0.0000743,0.1421848,-0.0000079,0.037125
 6,0.0000299,0.0597414,0.0967026,0.000027,0.1123667,0.0000093,-0.025761
 7,-0.0001714,0.0158089,-0.0002992,0.4823927,-0.048644,-0.0001765,0.169
 0761,0.0001117,-0.186136,0.0001842,0.0797302,-0.0000413,-0.4819515\Pol
 ar=53.0463873,0.002629,20.0302661,-0.9664954,-0.0001008,48.6254303\PG=
 CS [SG(C3H4N2)]\NImag=0\\0.44865265,-0.00000027,0.09614454,-0.04865150
 ,0.00000425,0.51860043,-0.00298844,-0.00000004,-0.00727854,0.07391946,
 -0.00000074,0.00669972,-0.00000042,0.00000009,0.01048748,-0.00258349,0
 .00000205,-0.00445770,-0.08932043,-0.00000013,0.41706193,-0.03215408,0
 .00000156,-0.01286758,0.00754932,-0.00000073,-0.00469540,0.69060301,0.
 00000342,0.01591731,0.00000195,0.00000093,-0.00723550,-0.00000554,-0.0
 0000479,0.09840022,-0.07982162,-0.00000450,-0.01955091,0.02536710,0.00
 000178,-0.00033549,0.15348457,-0.00000256,0.68105883,0.00109935,-0.000
 00154,0.00103592,0.00022501,0.00000040,-0.00005542,-0.23918279,0.00000
 185,-0.13367549,0.25305078,0.00000114,0.00653559,0.00000029,0.00000017
 ,-0.00123779,-0.00000074,0.00000126,-0.01795234,-0.00000010,0.00000093
 ,0.01647528,-0.00402005,-0.00000134,-0.00523250,-0.00084670,0.00000029
 ,0.00019118,-0.14379516,0.00000068,-0.15616708,0.14665229,0.00000092,0
 .14952697,-0.23315688,0.00000096,-0.03293463,-0.00803481,-0.00000057,-
 0.00210546,-0.08940410,-0.00000148,-0.01573979,0.00417787,-0.00000161,
 -0.02028108,0.60780867,-0.00000299,-0.06445515,-0.00000168,-0.00000033
 ,0.00225954,0.00000299,0.00000200,-0.05905775,0.00000411,-0.00000034,-
 0.00213838,0.00000003,0.00000002,0.12065751,-0.04609391,0.00000494,-0.
 10095092,0.00343662,-0.00000102,-0.00014409,-0.03290033,-0.00000011,-0
 .35669974,0.00193603,-0.00000221,0.00338621,-0.15078188,-0.00000170,0.
 73538112,-0.01863447,-0.00000106,0.01895019,0.00079159,0.00000084,-0.0
 0002102,0.00736274,-0.00000118,-0.00549587,-0.00022615,0.00000005,0.00
 065701,-0.18034552,0.00000185,0.13990064,0.19656393,0.00000006,-0.0054
 2168,-0.00000069,-0.00000016,0.00189735,0.00000043,0.00000054,-0.00093
 867,0.,-0.00000029,-0.00178857,-0.00000007,0.00000035,-0.02546357,0.00
 000009,-0.00000016,0.02095775,-0.00569215,0.00000070,0.01093589,0.0011
 7550,-0.00000074,0.00026710,0.01935107,0.00000159,-0.00720426,-0.00043
 958,0.00000058,-0.00005993,0.14126684,-0.00000194,-0.20405445,-0.15084
 044,0.00000005,0.20396267,-0.00823702,0.00000104,0.00337438,-0.0005131
 1,0.00000062,-0.00032858,0.00108279,-0.00000203,-0.00308013,-0.0002695
 5,-0.00000096,0.00040462,0.00106811,0.00000221,0.00238678,-0.00028829,
 -0.00000022,-0.00024506,0.34752492,-0.00000070,-0.00583280,0.00000183,
 0.00000032,-0.00119661,0.00000011,0.00000099,0.00236642,0.00000054,0.0
 0000051,0.00178535,0.00000023,-0.00000101,0.00641981,-0.00000114,0.000
 00058,0.00121473,-0.00000018,0.00000144,0.01817454,0.02676315,0.000000
 33,0.00057070,0.00043908,-0.00000033,0.00031253,-0.00107106,-0.0000005
 1,-0.00546298,-0.00100454,0.00000041,0.00098412,0.00280176,-0.00000011
 ,-0.00420958,0.00131077,0.00000011,0.00064057,-0.03786777,0.,0.0568766
 0,-0.14913049,0.00000162,0.10165963,0.01679495,-0.00000023,0.01479157,
 -0.08755406,0.00000300,0.00332186,-0.00284372,-0.00000027,0.00402577,-
 0.08712628,-0.00000234,0.01617470,-0.00558851,-0.00000043,-0.00322812,
 -0.32798593,-0.00000051,0.03579152,0.83094356,0.00000427,-0.06889557,-
 0.00000109,0.00000024,-0.00874596,-0.00000422,-0.00000208,0.01524894,-
 0.00000114,0.00000220,0.00251975,0.00000202,-0.00000255,0.00912813,-0.
 00000368,-0.00000095,0.00515292,0.00000192,-0.00000376,-0.02018544,0.0
 0000024,0.00000083,0.11752081,0.12893533,-0.00000428,-0.30205565,-0.01
 432179,0.00000188,-0.00820879,-0.04379383,-0.00000039,-0.00767113,0.00
 341849,-0.00000263,-0.00542659,0.06823774,0.00000256,-0.00526359,-0.00
 176410,0.,0.00045519,0.03094204,-0.00000136,-0.05610703,-0.08015962,-0
 .00000175,0.57493397,-0.00545064,-0.00000226,-0.02328784,-0.08774397,0
 .00000033,0.08431825,-0.25830281,0.00000028,0.05563934,-0.01603079,-0.
 00000071,0.01720330,-0.01498707,-0.00000007,0.06594137,0.00036468,0.00
 000030,-0.00134806,-0.01238190,-0.00000163,-0.02716291,-0.18750953,0.0
 0000180,-0.09149426,0.58204201,-0.00000421,0.01930803,-0.00000444,-0.0
 0000120,-0.00292823,0.00000503,0.00000126,-0.04674863,0.00000191,-0.00
 000371,-0.00419890,-0.00000276,0.00000590,0.01264986,0.00000478,0.0000
 0002,0.00438973,-0.00000198,0.00000163,-0.00274600,-0.00000014,-0.0000
 0165,-0.05174358,0.00000592,0.00000197,0.07201771,0.03116424,-0.000002
 16,-0.09785931,0.08134916,-0.00000132,-0.40468663,0.06628772,0.0000048
 9,-0.12796726,-0.01786771,0.00000347,0.01279763,0.00953650,-0.00000425
 ,-0.06744498,-0.00269718,0.00000006,-0.00494278,0.00441370,-0.00000003
 ,0.00639508,-0.09237726,0.00000769,-0.19065641,-0.07980920,-0.00000832
 ,0.87436463\\-0.00038165,0.,-0.00013593,0.00002261,0.,-0.00000643,-0.0
 0032700,0.,0.00019783,0.00006423,0.,0.00001782,0.00040630,0.,0.0000217
 4,-0.00001403,0.,-0.00007227,-0.00009722,0.,0.00002178,0.00039708,0.,0
 .00021422,-0.00007030,0.,-0.00025877\\\@


 I DO NOT KNOW WHAT I MAY APPEAR TO THE WORLD; BUT TO MYSELF
 I SEEM TO HAVE BEEN ONLY LIKE A BOY PLAYING ON THE SEASHORE,
 AND DIVERTING MYSELF IN NOW AND THEN FINDING A SMOOTHER PEBBLE
 OR A PRETTIER SHELL THAN ORDINARY, WHILST THE GREAT OCEAN OF
 TRUTH LAY ALL UNDISCOVERED BEFORE ME.
                                          -- NEWTON (1642-1726)
 Job cpu time:  0 days  0 hours 17 minutes 11.6 seconds.
 File lengths (MBytes):  RWF=   14 Int=    0 D2E=    0 Chk=    3 Scr=    1
 Normal termination of Gaussian 98.
