 Entering Gaussian System, Link 0=g98
 Initial command:
 /usr/local/apps/g98/g98/l1.exe /wrk/Gau-7224.inp -scrdir=/wrk/
 Entering Link 1 = /usr/local/apps/g98/g98/l1.exe PID=     19308.
  
 Copyright (c) 1988,1990,1992,1993,1995,1998 Gaussian, Inc.
                  All Rights Reserved.
  
 This is part of the Gaussian(R) 98 program.  It is based on
 the Gaussian 94(TM) system (copyright 1995 Gaussian, Inc.),
 the Gaussian 92(TM) system (copyright 1992 Gaussian, Inc.),
 the Gaussian 90(TM) system (copyright 1990 Gaussian, Inc.),
 the Gaussian 88(TM) system (copyright 1988 Gaussian, Inc.),
 the Gaussian 86(TM) system (copyright 1986 Carnegie Mellon
 University), and the Gaussian 82(TM) system (copyright 1983
 Carnegie Mellon University). Gaussian is a federally registered
 trademark of Gaussian, Inc.
  
 This software contains proprietary and confidential information,
 including trade secrets, belonging to Gaussian, Inc.
  
 This software is provided under written license and may be
 used, copied, transmitted, or stored only in accord with that
 written license.
  
 The following legend is applicable only to US Government
 contracts under DFARS:
  
                    RESTRICTED RIGHTS LEGEND
  
 Use, duplication or disclosure by the US Government is subject
 to restrictions as set forth in subparagraph (c)(1)(ii) of the
 Rights in Technical Data and Computer Software clause at DFARS
 252.227-7013.
  
 Gaussian, Inc.
 Carnegie Office Park, Building 6, Pittsburgh, PA 15106 USA
  
 The following legend is applicable only to US Government
 contracts under FAR:
  
                    RESTRICTED RIGHTS LEGEND
  
 Use, reproduction and disclosure by the US Government is subject
 to restrictions as set forth in subparagraph (c) of the
 Commercial Computer Software - Restricted Rights clause at FAR
 52.227-19.
  
 Gaussian, Inc.
 Carnegie Office Park, Building 6, Pittsburgh, PA 15106 USA
  
  
 ---------------------------------------------------------------
 Warning -- This program may not be used in any manner that
 competes with the business of Gaussian, Inc. or will provide
 assistance to any competitor of Gaussian, Inc.  The licensee
 of this program is prohibited from giving any competitor of
 Gaussian, Inc. access to this program.  By using this program,
 the user acknowledges that Gaussian, Inc. is engaged in the
 business of creating and licensing software in the field of
 computational chemistry and represents and warrants to the
 licensee that it is not a competitor of Gaussian, Inc. and that
 it will not use this program in any manner prohibited above.
 ---------------------------------------------------------------
  

 Cite this work as:
 Gaussian 98, Revision A.7,
 M. J. Frisch, G. W. Trucks, H. B. Schlegel, G. E. Scuseria, 
 M. A. Robb, J. R. Cheeseman, V. G. Zakrzewski, J. A. Montgomery, Jr., 
 R. E. Stratmann, J. C. Burant, S. Dapprich, J. M. Millam, 
 A. D. Daniels, K. N. Kudin, M. C. Strain, O. Farkas, J. Tomasi, 
 V. Barone, M. Cossi, R. Cammi, B. Mennucci, C. Pomelli, C. Adamo, 
 S. Clifford, J. Ochterski, G. A. Petersson, P. Y. Ayala, Q. Cui, 
 K. Morokuma, D. K. Malick, A. D. Rabuck, K. Raghavachari, 
 J. B. Foresman, J. Cioslowski, J. V. Ortiz, A. G. Baboul, 
 B. B. Stefanov, G. Liu, A. Liashenko, P. Piskorz, I. Komaromi, 
 R. Gomperts, R. L. Martin, D. J. Fox, T. Keith, M. A. Al-Laham, 
 C. Y. Peng, A. Nanayakkara, C. Gonzalez, M. Challacombe, 
 P. M. W. Gill, B. Johnson, W. Chen, M. W. Wong, J. L. Andres, 
 C. Gonzalez, M. Head-Gordon, E. S. Replogle, and J. A. Pople, 
 Gaussian, Inc., Pittsburgh PA, 1998.

 **********************************************
 Gaussian 98:  IBM-RS6000-G98RevA.7 11-Apr-1999
                  24-Jul-2000 
 **********************************************
 %mem=24000000
 ----------------------
 #BLYP/cc-pVTZ opt freq
 ----------------------
 1/14=-1,18=20,26=3,38=1/1,3;
 2/9=110,17=6,18=5/2;
 3/5=16,6=1,11=2,25=1,30=1/1,2,3;
 4//1;
 5/5=2,38=4,42=402/2;
 6/7=2,8=2,9=2,10=2,28=1/1;
 7//1,2,3,16;
 1/14=-1,18=20/3(1);
 99//99;
 2/9=110/2;
 3/5=16,6=1,11=2,25=1,30=1/1,2,3;
 4/5=5,16=2/1;
 5/5=2,38=4,42=402/2;
 7//1,2,3,16;
 1/14=-1,18=20/3(-5);
 2/9=110/2;
 6/7=2,8=2,9=2,10=2,19=2,28=1/1;
 99/9=1/99;
 --------------------------------
 1H imidazole C3H4N2 casno=288324
 --------------------------------
 Symbolic Z-matrix:
 Charge =  0 Multiplicity = 1
 N                     0.30938   0.        1.30938 
 H                     0.3125    0.       -1.6875 
 C                    -1.06875   0.       -0.28438 
 H                    -1.91875   0.       -0.79063 
 C                    -0.93438   0.        1.02812 
 H                    -1.675     0.        1.6875 
 H                     1.91875   0.        0.09063 
 C                     0.93438   0.        0.19063 
 N                     0.09688   0.       -0.775 

 GradGradGradGradGradGradGradGradGradGradGradGradGradGradGradGradGradGrad
 Berny optimization.
 Initialization pass.
                         ----------------------------
                         !    Initial Parameters    !
                         ! (Angstroms and Degrees)  !
 ------------------------                            -------------------------
 ! Name  Definition              Value          Derivative Info.             !
 -----------------------------------------------------------------------------
 ! R1    R(1,5)                  1.2752         estimate D2E/DX2             !
 ! R2    R(1,8)                  1.2815         estimate D2E/DX2             !
 ! R3    R(2,9)                  0.9376         estimate D2E/DX2             !
 ! R4    R(3,4)                  0.9893         estimate D2E/DX2             !
 ! R5    R(3,5)                  1.3194         estimate D2E/DX2             !
 ! R6    R(3,9)                  1.2647         estimate D2E/DX2             !
 ! R7    R(5,6)                  0.9916         estimate D2E/DX2             !
 ! R8    R(7,8)                  0.9894         estimate D2E/DX2             !
 ! R9    R(8,9)                  1.2782         estimate D2E/DX2             !
 ! A1    A(5,1,8)              106.4483         estimate D2E/DX2             !
 ! A2    A(4,3,5)              126.6232         estimate D2E/DX2             !
 ! A3    A(4,3,9)              126.3957         estimate D2E/DX2             !
 ! A4    A(5,3,9)              106.9812         estimate D2E/DX2             !
 ! A5    A(1,5,3)              108.5877         estimate D2E/DX2             !
 ! A6    A(1,5,6)              125.5794         estimate D2E/DX2             !
 ! A7    A(3,5,6)              125.8329         estimate D2E/DX2             !
 ! A8    A(1,8,7)              124.9909         estimate D2E/DX2             !
 ! A9    A(1,8,9)              109.8741         estimate D2E/DX2             !
 ! A10   A(7,8,9)              125.1349         estimate D2E/DX2             !
 ! A11   A(2,9,3)              126.122          estimate D2E/DX2             !
 ! A12   A(2,9,8)              125.7693         estimate D2E/DX2             !
 ! A13   A(3,9,8)              108.1088         estimate D2E/DX2             !
 ! D1    D(8,1,5,3)              0.             estimate D2E/DX2             !
 ! D2    D(8,1,5,6)            180.             estimate D2E/DX2             !
 ! D3    D(5,1,8,7)            180.             estimate D2E/DX2             !
 ! D4    D(5,1,8,9)              0.             estimate D2E/DX2             !
 ! D5    D(4,3,5,1)            180.             estimate D2E/DX2             !
 ! D6    D(4,3,5,6)              0.             estimate D2E/DX2             !
 ! D7    D(9,3,5,1)              0.             estimate D2E/DX2             !
 ! D8    D(9,3,5,6)            180.             estimate D2E/DX2             !
 ! D9    D(4,3,9,2)              0.             estimate D2E/DX2             !
 ! D10   D(4,3,9,8)            180.             estimate D2E/DX2             !
 ! D11   D(5,3,9,2)            180.             estimate D2E/DX2             !
 ! D12   D(5,3,9,8)              0.             estimate D2E/DX2             !
 ! D13   D(1,8,9,2)            180.             estimate D2E/DX2             !
 ! D14   D(1,8,9,3)              0.             estimate D2E/DX2             !
 ! D15   D(7,8,9,2)              0.             estimate D2E/DX2             !
 ! D16   D(7,8,9,3)            180.             estimate D2E/DX2             !
 -----------------------------------------------------------------------------
 Trust Radius=3.00D-01 FncErr=1.00D-07 GrdErr=1.00D-06
 Number of steps in this run=  48 maximum allowed number of steps= 100.
 GradGradGradGradGradGradGradGradGradGradGradGradGradGradGradGradGradGrad

                          Input orientation:                          
 ---------------------------------------------------------------------
 Center     Atomic     Atomic              Coordinates (Angstroms)
 Number     Number      Type              X           Y           Z
 ---------------------------------------------------------------------
    1          7             0         .309375     .000000    1.309375
    2          1             0         .312500     .000000   -1.687500
    3          6             0       -1.068750     .000000    -.284375
    4          1             0       -1.918750     .000000    -.790625
    5          6             0        -.934375     .000000    1.028125
    6          1             0       -1.675000     .000000    1.687500
    7          1             0        1.918750     .000000     .090625
    8          6             0         .934375     .000000     .190625
    9          7             0         .096875     .000000    -.775000
 ---------------------------------------------------------------------
                    Distance matrix (angstroms):
                    1          2          3          4          5
     1  N     .000000
     2  H    2.996877    .000000
     3  C    2.106957   1.968911    .000000
     4  H    3.061787   2.404758    .989338    .000000
     5  C    1.275153   2.988196   1.319361   2.068054    .000000
     6  H    2.020080   3.916731   2.062966   2.490084    .991615
     7  H    2.018772   2.396199   3.010944   3.937386   3.003203
     8  C    1.281494   1.978404   2.058673   3.017147   2.047836
     9  N    2.095179    .937630   1.264672   2.015686   2.077194
                    6          7          8          9
     6  H     .000000
     7  H    3.932563    .000000
     8  C    3.008234    .989441    .000000
     9  N    3.033718   2.017061   1.278217    .000000
 Stoichiometry    C3H4N2
 Framework group  CS[SG(C3H4N2)]
 Deg. of freedom   15
 Full point group                 CS      NOp   2
 Largest Abelian subgroup         CS      NOp   2
 Largest concise Abelian subgroup C1      NOp   1
                         Standard orientation:                         
 ---------------------------------------------------------------------
 Center     Atomic     Atomic              Coordinates (Angstroms)
 Number     Number      Type              X           Y           Z
 ---------------------------------------------------------------------
    1          7             0        -.674969    -.941702     .000000
    2          1             0        -.005288    1.979393     .000000
    3          6             0        1.025744     .302019     .000000
    4          1             0        1.967693     .604544     .000000
    5          6             0         .600174    -.946822     .000000
    6          1             0        1.173884   -1.755622     .000000
    7          1             0       -1.969692     .607211     .000000
    8          6             0       -1.032886     .288794     .000000
    9          7             0         .000000    1.041778     .000000
 ---------------------------------------------------------------------
 Rotational constants (GHZ):     11.1543393     10.4769603      5.4025219
 Isotopes: N-14,H-1,C-12,H-1,C-12,H-1,H-1,C-12,N-14
 Standard basis: CC-pVTZ (5D, 7F)
 There are   140 symmetry adapted basis functions of A'  symmetry.
 There are    66 symmetry adapted basis functions of A"  symmetry.
 Crude estimate of integral set expansion from redundant integrals=1.000.
 Integral buffers will be    262144 words long.
 Raffenetti 2 integral format.
 Two-electron integral symmetry is turned on.
   206 basis functions      343 primitive gaussians
    18 alpha electrons       18 beta electrons
       nuclear repulsion energy       173.5664837334 Hartrees.
 One-electron integrals computed using PRISM.
 NBasis=   206 RedAO= T  NBF=   140    66
 NBsUse=   206 1.00D-04 NBFU=   140    66
 Projected INDO Guess.
 Initial guess orbital symmetries:
       Occupied  (A') (A') (A') (A') (A') (A') (A') (A') (A') (A')
                 (A') (A") (A') (A') (A') (A") (A') (A")
       Virtual   (A") (A') (A') (A") (A') (A') (A') (A') (A') (A')
                 (A') (A') (A') (A') (A') (A') (A') (A') (A') (A')
                 (A') (A') (A') (A') (A') (A') (A') (A') (A') (A')
                 (A') (A') (A') (A') (A') (A') (A') (A') (A') (A')
                 (A') (A') (A') (A') (A') (A') (A') (A') (A') (A')
                 (A') (A') (A') (A') (A') (A') (A') (A') (A') (A')
                 (A') (A') (A') (A') (A') (A') (A') (A') (A') (A')
                 (A') (A') (A') (A') (A') (A') (A') (A') (A') (A')
                 (A') (A') (A') (A') (A') (A') (A') (A') (A') (A')
                 (A') (A') (A') (A') (A') (A') (A') (A') (A') (A')
                 (A') (A') (A') (A') (A') (A') (A') (A') (A') (A')
                 (A') (A') (A') (A') (A') (A') (A') (A') (A') (A')
                 (A') (A') (A') (A') (A') (A') (A') (A") (A") (A")
                 (A") (A") (A") (A") (A") (A") (A") (A") (A") (A")
                 (A") (A") (A") (A") (A") (A") (A") (A") (A") (A")
                 (A") (A") (A") (A") (A") (A") (A") (A") (A") (A")
                 (A") (A") (A") (A") (A") (A") (A") (A") (A") (A")
                 (A") (A") (A") (A") (A") (A") (A") (A") (A") (A")
                 (A") (A") (A") (A") (A") (A") (A") (A")
 Requested convergence on RMS density matrix=1.00D-08 within  64 cycles.
 Requested convergence on MAX density matrix=1.00D-06.
 Integral accuracy reduced to 1.0D-05 until final iterations.
 Initial convergence to 1.0D-05 achieved.  Increase integral accuracy.
 SCF Done:  E(RB-LYP) =  -226.155004520     A.U. after   15 cycles
             Convg  =     .4311D-08             -V/T =  1.9975
             S**2   =    .0000

 **********************************************************************

            Population analysis using the SCF density.

 **********************************************************************

 Orbital Symmetries:
       Occupied  (A') (A') (A') (A') (A') (A') (A') (A') (A') (A')
                 (A') (A") (A') (A') (A') (A") (A') (A")
       Virtual   (A') (A") (A") (A') (A') (A') (A') (A') (A') (A')
                 (A") (A') (A') (A") (A') (A") (A') (A') (A') (A')
                 (A') (A") (A') (A") (A') (A') (A') (A") (A') (A')
                 (A') (A") (A") (A') (A") (A') (A") (A') (A') (A')
                 (A') (A") (A') (A') (A") (A') (A') (A") (A') (A')
                 (A') (A") (A') (A") (A') (A') (A') (A") (A') (A')
                 (A') (A") (A') (A") (A') (A") (A') (A') (A') (A')
                 (A") (A') (A") (A') (A') (A") (A') (A') (A") (A')
                 (A') (A") (A') (A") (A') (A') (A") (A') (A") (A')
                 (A") (A') (A") (A') (A") (A') (A") (A') (A") (A')
                 (A") (A') (A') (A') (A") (A") (A') (A") (A') (A')
                 (A") (A') (A') (A') (A") (A') (A') (A") (A') (A")
                 (A') (A") (A') (A') (A') (A") (A') (A") (A') (A")
                 (A") (A") (A') (A') (A') (A') (A') (A') (A") (A')
                 (A') (A") (A') (A") (A') (A") (A') (A") (A') (A')
                 (A") (A') (A') (A") (A') (A') (A") (A') (A") (A")
                 (A") (A') (A') (A') (A") (A') (A') (A') (A") (A")
                 (A') (A') (A') (A') (A") (A') (A') (A') (A') (A')
                 (A') (A') (A') (A') (A') (A') (A') (A')
  The electronic state is 1-A'.
 Alpha  occ. eigenvalues --  -14.05463 -13.96015  -9.92633  -9.90017  -9.88290
 Alpha  occ. eigenvalues --    -.97929   -.81529   -.68656   -.58296   -.54857
 Alpha  occ. eigenvalues --    -.52836   -.41488   -.41146   -.38899   -.37000
 Alpha  occ. eigenvalues --    -.25864   -.20482   -.19614
 Alpha virt. eigenvalues --     .01165    .01712    .05510    .06381    .07519
 Alpha virt. eigenvalues --     .09593    .14229    .16934    .20652    .21068
 Alpha virt. eigenvalues --     .23838    .29031    .29872    .30341    .32451
 Alpha virt. eigenvalues --     .33527    .35978    .39730    .42354    .43768
 Alpha virt. eigenvalues --     .45413    .46789    .48991    .50744    .52002
 Alpha virt. eigenvalues --     .53720    .55176    .56389    .56884    .59478
 Alpha virt. eigenvalues --     .63825    .70471    .71767    .72173    .74482
 Alpha virt. eigenvalues --     .78707    .82425    .82536    .83911    .94317
 Alpha virt. eigenvalues --     .96440    .98702    .98841    .99363   1.01598
 Alpha virt. eigenvalues --    1.02446   1.06190   1.12511   1.14442   1.17719
 Alpha virt. eigenvalues --    1.23946   1.25915   1.26571   1.30236   1.34566
 Alpha virt. eigenvalues --    1.39263   1.40517   1.42526   1.43401   1.46336
 Alpha virt. eigenvalues --    1.50767   1.54199   1.58021   1.61987   1.64174
 Alpha virt. eigenvalues --    1.69743   1.78706   1.82948   1.84316   1.95739
 Alpha virt. eigenvalues --    1.97949   1.99852   2.03211   2.07973   2.11486
 Alpha virt. eigenvalues --    2.19399   2.24613   2.35420   2.42832   2.49538
 Alpha virt. eigenvalues --    2.51051   2.55220   2.56963   2.62292   2.63033
 Alpha virt. eigenvalues --    2.65096   2.65773   2.76102   2.78848   2.83069
 Alpha virt. eigenvalues --    2.83615   2.84728   2.85596   2.89195   2.91709
 Alpha virt. eigenvalues --    2.93645   2.94740   2.95545   2.98683   3.01037
 Alpha virt. eigenvalues --    3.03530   3.03929   3.06371   3.07983   3.11407
 Alpha virt. eigenvalues --    3.11612   3.13452   3.22892   3.22913   3.29203
 Alpha virt. eigenvalues --    3.32042   3.36157   3.39313   3.41328   3.41735
 Alpha virt. eigenvalues --    3.50828   3.55786   3.57747   3.64756   3.65315
 Alpha virt. eigenvalues --    3.67810   3.69329   3.70407   3.76808   3.79030
 Alpha virt. eigenvalues --    3.79066   3.84007   3.89564   3.93482   3.94473
 Alpha virt. eigenvalues --    3.98356   4.00076   4.03725   4.14530   4.17321
 Alpha virt. eigenvalues --    4.18759   4.20935   4.24971   4.29546   4.36136
 Alpha virt. eigenvalues --    4.38682   4.44662   4.48020   4.56869   4.56888
 Alpha virt. eigenvalues --    4.63193   4.64326   4.70853   4.71134   4.77046
 Alpha virt. eigenvalues --    4.80109   4.82833   4.85669   4.92931   4.93111
 Alpha virt. eigenvalues --    5.01456   5.01822   5.10986   5.12467   5.16171
 Alpha virt. eigenvalues --    5.22877   5.24297   5.27526   5.31303   5.34439
 Alpha virt. eigenvalues --    5.39156   5.48279   5.50582   5.58406   5.60193
 Alpha virt. eigenvalues --    5.61987   5.68939   5.78544   5.94559   6.09679
 Alpha virt. eigenvalues --    6.11560   6.19452   6.33733   6.46567   6.56427
 Alpha virt. eigenvalues --    6.68738   7.22493   7.29578   9.93179  13.23294
 Alpha virt. eigenvalues --   13.77648  15.09932  15.92276
          Condensed to atoms (all electrons):
              1          2          3          4          5          6
  1  N    6.289907    .013453   -.161152    .016508    .577949   -.026964
  2  H     .013453    .567494   -.038297   -.001912    .005137   -.000649
  3  C    -.161152   -.038297   5.114963    .389455    .574672   -.058256
  4  H     .016508   -.001912    .389455    .567771   -.034348   -.002380
  5  C     .577949    .005137    .574672   -.034348   4.859737    .424418
  6  H    -.026964   -.000649   -.058256   -.002380    .424418    .534797
  7  H    -.024249   -.003593    .009893   -.000413    .007254   -.000432
  8  C     .629121   -.041092   -.154826    .008528   -.175643    .011902
  9  N    -.165164    .388141    .448108   -.047232   -.089689    .004123
              7          8          9
  1  N    -.024249    .629121   -.165164
  2  H    -.003593   -.041092    .388141
  3  C     .009893   -.154826    .448108
  4  H    -.000413    .008528   -.047232
  5  C     .007254   -.175643   -.089689
  6  H    -.000432    .011902    .004123
  7  H     .533148    .416025   -.050978
  8  C     .416025   4.896922    .493593
  9  N    -.050978    .493593   5.953238
 Total atomic charges:
              1
  1  N    -.149411
  2  H     .111319
  3  C    -.124560
  4  H     .104023
  5  C    -.149486
  6  H     .113440
  7  H     .113345
  8  C    -.084530
  9  N     .065860
 Sum of Mulliken charges=    .00000
 Atomic charges with hydrogens summed into heavy atoms:
              1
  1  N    -.149411
  2  H     .000000
  3  C    -.020537
  4  H     .000000
  5  C    -.036046
  6  H     .000000
  7  H     .000000
  8  C     .028815
  9  N     .177179
 Sum of Mulliken charges=    .00000
 Electronic spatial extent (au):  <R**2>=   259.5142
 Charge=      .0000 electrons
 Dipole moment (Debye):
    X=     1.0830    Y=     3.5536    Z=      .0000  Tot=     3.7149
 Quadrupole moment (Debye-Ang):
   XX=   -27.4865   YY=   -26.0627   ZZ=   -30.5645
   XY=    -3.0434   XZ=      .0000   YZ=      .0000
 Octapole moment (Debye-Ang**2):
  XXX=      .2628  YYY=    15.1802  ZZZ=      .0000  XYY=     4.4933
  XXY=     4.7662  XXZ=      .0000  XZZ=     -.7134  YZZ=     1.3498
  YYZ=      .0000  XYZ=      .0000
 Hexadecapole moment (Debye-Ang**3):
 XXXX=  -146.1357 YYYY=  -133.9220 ZZZZ=   -31.7924 XXXY=    -2.6709
 XXXZ=      .0000 YYYX=    -6.5953 YYYZ=      .0000 ZZZX=      .0000
 ZZZY=      .0000 XXYY=   -53.5639 XXZZ=   -34.9703 YYZZ=   -32.5348
 XXYZ=      .0000 YYXZ=      .0000 ZZXY=      .7075
 N-N= 1.735664837334D+02 E-N=-8.749972841043D+02  KE= 2.267241868521D+02
 Symmetry A'   KE= 2.183113585075D+02
 Symmetry A"   KE= 8.412828344644D+00
 ***** Axes restored to original set *****
 -------------------------------------------------------------------
 Center     Atomic                   Forces (Hartrees/Bohr)
 Number     Number              X              Y              Z
 -------------------------------------------------------------------
    1          7            .080135715     .000000000     .091681438
    2          1            .018704337     .000000000    -.080473325
    3          6           -.083328761     .000000000     .013195125
    4          1           -.066909733     .000000000    -.049468794
    5          6           -.034934576     .000000000    -.006246280
    6          1           -.058090907     .000000000     .057717069
    7          1            .082498132     .000000000    -.011047169
    8          6            .030165280     .000000000     .040839009
    9          7            .031760514     .000000000    -.056197073
 -------------------------------------------------------------------
 Cartesian Forces:  Max      .091681438 RMS      .046080743

 GradGradGradGradGradGradGradGradGradGradGradGradGradGradGradGradGradGrad
 Berny optimization.
 Internal  Forces:  Max      .134572656 RMS      .047763376
 Search for a local minimum.
 Step number   1 out of a maximum of  48
 All quantities printed in internal units (Hartrees-Bohrs-Radians)
 Second derivative matrix not updated -- first step.
     Eigenvalues ---     .03211    .03261    .03288    .03318    .03352
     Eigenvalues ---     .03407    .16000    .16000    .16000    .16000
     Eigenvalues ---     .22000    .22917    .49193    .49594    .49613
     Eigenvalues ---     .54578    .60577    .63413    .68379    .73836
     Eigenvalues ---     .765081000.000001000.000001000.000001000.00000
     Eigenvalues --- 1000.000001000.000001000.000001000.000001000.00000
     Eigenvalues --- 1000.000001000.000001000.000001000.000001000.00000
     Eigenvalues --- 1000.000001000.000001000.00000
 RFO step:  Lambda=-1.14130204D-01.
 Linear search not attempted -- first point.
 Maximum step size (    .300) exceeded in Quadratic search.
    -- Step size scaled by    .761
 Iteration  1 RMS(Cart)=   .06619640 RMS(Int)=   .00039290
 Iteration  2 RMS(Cart)=   .00045380 RMS(Int)=   .00009050
 Iteration  3 RMS(Cart)=   .00000023 RMS(Int)=   .00009050
 Variable       Old X    -DE/DX   Delta X   Delta X   Delta X     New X
                                 (Linear)    (Quad)   (Total)
    R1        2.40969    .12134    .00000    .10499    .10493   2.51462
    R2        2.42167    .07009    .00000    .06190    .06174   2.48341
    R3        1.77186    .08262    .00000    .08732    .08732   1.85918
    R4        1.86958    .08280    .00000    .10323    .10323   1.97280
    R5        2.49323    .08557    .00000    .08870    .08882   2.58205
    R6        2.38988    .13457    .00000    .11680    .11694   2.50682
    R7        1.87388    .08177    .00000    .10264    .10264   1.97653
    R8        1.86977    .08319    .00000    .10375    .10375   1.97352
    R9        2.41548    .11709    .00000    .10614    .10610   2.52158
    A1        1.85787    .00522    .00000    .00000   -.00028   1.85759
    A2        2.20999    .01472    .00000    .03409    .03396   2.24395
    A3        2.20602   -.00071    .00000   -.00875   -.00888   2.19714
    A4        1.86717   -.01401    .00000   -.02534   -.02508   1.84209
    A5        1.89521    .00942    .00000    .01724    .01731   1.91252
    A6        2.19177   -.00891    .00000   -.02029   -.02033   2.17145
    A7        2.19620   -.00050    .00000    .00305    .00302   2.19921
    A8        2.18150    .00253    .00000    .00682    .00690   2.18840
    A9        1.91767   -.00009    .00000    .00017    .00001   1.91767
   A10        2.18402   -.00244    .00000   -.00699   -.00691   2.17711
   A11        2.20124   -.00001    .00000   -.00473   -.00479   2.19646
   A12        2.19509    .00054    .00000   -.00320   -.00326   2.19183
   A13        1.88685   -.00054    .00000    .00793    .00805   1.89490
    D1         .00000    .00000    .00000    .00000    .00000    .00000
    D2        3.14159    .00000    .00000    .00000    .00000   3.14159
    D3        3.14159    .00000    .00000    .00000    .00000   3.14159
    D4         .00000    .00000    .00000    .00000    .00000    .00000
    D5        3.14159    .00000    .00000    .00000    .00000   3.14159
    D6         .00000    .00000    .00000    .00000    .00000    .00000
    D7         .00000    .00000    .00000    .00000    .00000    .00000
    D8        3.14159    .00000    .00000    .00000    .00000   3.14159
    D9         .00000    .00000    .00000    .00000    .00000    .00000
   D10        3.14159    .00000    .00000    .00000    .00000   3.14159
   D11        3.14159    .00000    .00000    .00000    .00000   3.14159
   D12         .00000    .00000    .00000    .00000    .00000    .00000
   D13        3.14159    .00000    .00000    .00000    .00000   3.14159
   D14         .00000    .00000    .00000    .00000    .00000    .00000
   D15         .00000    .00000    .00000    .00000    .00000    .00000
   D16        3.14159    .00000    .00000    .00000    .00000   3.14159
         Item               Value     Threshold  Converged?
 Maximum Force             .134573      .000450     NO 
 RMS     Force             .047763      .000300     NO 
 Maximum Displacement      .190379      .001800     NO 
 RMS     Displacement      .066149      .001200     NO 
 Predicted change in Energy=-2.789937D-02
 GradGradGradGradGradGradGradGradGradGradGradGradGradGradGradGradGradGrad

                          Input orientation:                          
 ---------------------------------------------------------------------
 Center     Atomic     Atomic              Coordinates (Angstroms)
 Number     Number      Type              X           Y           Z
 ---------------------------------------------------------------------
    1          7             0         .475987     .000000    1.112675
    2          1             0         .475256     .000000   -1.999370
    3          6             0        -.982407     .000000    -.539396
    4          1             0       -1.869593     .000000   -1.089633
    5          6             0        -.821531     .000000     .817463
    6          1             0       -1.589367     .000000    1.527676
    7          1             0        2.156473     .000000    -.145566
    8          6             0        1.118113     .000000    -.033931
    9          7             0         .244882     .000000   -1.042887
 ---------------------------------------------------------------------
                    Distance matrix (angstroms):
                    1          2          3          4          5
     1  N     .000000
     2  H    3.112045    .000000
     3  C    2.203690   2.063081    .000000
     4  H    3.217437   2.515141   1.043963    .000000
     5  C    1.330678   3.101000   1.366362   2.176108    .000000
     6  H    2.106635   4.086896   2.154341   2.632267   1.045933
     7  H    2.099335   2.502615   3.163490   4.135271   3.129846
     8  C    1.314165   2.067901   2.160481   3.168736   2.118275
     9  N    2.167915    .983835   1.326552   2.114991   2.144326
                    6          7          8          9
     6  H     .000000
     7  H    4.102567    .000000
     8  C    3.125550   1.044344    .000000
     9  N    3.157889   2.111721   1.334363    .000000
 Stoichiometry    C3H4N2
 Framework group  CS[SG(C3H4N2)]
 Deg. of freedom   15
 Full point group                 CS      NOp   2
 Largest Abelian subgroup         CS      NOp   2
 Largest concise Abelian subgroup C1      NOp   1
                         Standard orientation:                         
 ---------------------------------------------------------------------
 Center     Atomic     Atomic              Coordinates (Angstroms)
 Number     Number      Type              X           Y           Z
 ---------------------------------------------------------------------
    1          7             0        -.709421    -.971290     .000000
    2          1             0        -.009623    2.061053     .000000
    3          6             0        1.082818     .310945     .000000
    4          1             0        2.070934     .647823     .000000
    5          6             0         .621251    -.975096     .000000
    6          1             0        1.209921   -1.839643     .000000
    7          1             0       -2.064308     .632296     .000000
    8          6             0       -1.077564     .290258     .000000
    9          7             0         .000000    1.077265     .000000
 ---------------------------------------------------------------------
 Rotational constants (GHZ):     10.1763553      9.7905412      4.9898604
 Isotopes: N-14,H-1,C-12,H-1,C-12,H-1,H-1,C-12,N-14
 Standard basis: CC-pVTZ (5D, 7F)
 There are   140 symmetry adapted basis functions of A'  symmetry.
 There are    66 symmetry adapted basis functions of A"  symmetry.
 Crude estimate of integral set expansion from redundant integrals=1.000.
 Integral buffers will be    262144 words long.
 Raffenetti 2 integral format.
 Two-electron integral symmetry is turned on.
   206 basis functions      343 primitive gaussians
    18 alpha electrons       18 beta electrons
       nuclear repulsion energy       166.6912150931 Hartrees.
 One-electron integrals computed using PRISM.
 NBasis=   206 RedAO= T  NBF=   140    66
 NBsUse=   206 1.00D-04 NBFU=   140    66
 Initial guess read from the read-write file:
 Initial guess orbital symmetries:
       Occupied  (A') (A') (A') (A') (A') (A') (A') (A') (A') (A')
                 (A') (A") (A') (A') (A') (A") (A') (A")
       Virtual   (A') (A") (A") (A') (A') (A') (A') (A') (A') (A')
                 (A") (A') (A') (A") (A') (A") (A') (A') (A') (A')
                 (A') (A") (A') (A") (A') (A') (A') (A") (A') (A')
                 (A') (A") (A") (A') (A") (A') (A") (A') (A') (A')
                 (A') (A") (A') (A') (A") (A') (A') (A") (A') (A')
                 (A') (A") (A') (A") (A') (A') (A') (A") (A') (A')
                 (A') (A") (A') (A") (A') (A") (A') (A') (A') (A')
                 (A") (A') (A") (A') (A') (A") (A') (A') (A") (A')
                 (A') (A") (A') (A") (A') (A') (A") (A') (A") (A')
                 (A") (A') (A") (A') (A") (A') (A") (A') (A") (A')
                 (A") (A') (A') (A') (A") (A") (A') (A") (A') (A')
                 (A") (A') (A') (A') (A") (A') (A') (A") (A') (A")
                 (A') (A") (A') (A') (A') (A") (A') (A") (A') (A")
                 (A") (A") (A') (A') (A') (A') (A') (A') (A") (A')
                 (A') (A") (A') (A") (A') (A") (A') (A") (A') (A')
                 (A") (A') (A') (A") (A') (A') (A") (A') (A") (A")
                 (A") (A') (A') (A') (A") (A') (A') (A') (A") (A")
                 (A') (A') (A') (A') (A") (A') (A') (A') (A') (A')
                 (A') (A') (A') (A') (A') (A') (A') (A')
 Requested convergence on RMS density matrix=1.00D-08 within  64 cycles.
 Requested convergence on MAX density matrix=1.00D-06.
 Integral accuracy reduced to 1.0D-05 until final iterations.
 Initial convergence to 1.0D-05 achieved.  Increase integral accuracy.
 SCF Done:  E(RB-LYP) =  -226.212108047     A.U. after   13 cycles
             Convg  =     .5827D-08             -V/T =  2.0030
             S**2   =    .0000
 ***** Axes restored to original set *****
 -------------------------------------------------------------------
 Center     Atomic                   Forces (Hartrees/Bohr)
 Number     Number              X              Y              Z
 -------------------------------------------------------------------
    1          7            .034308008     .000000000     .033590604
    2          1            .006047669     .000000000    -.027171312
    3          6           -.034072378     .000000000     .018102507
    4          1           -.020759530     .000000000    -.020277288
    5          6           -.015422302     .000000000    -.013326024
    6          1           -.018294311     .000000000     .021867600
    7          1            .028240200     .000000000    -.005421683
    8          6            .002836040     .000000000     .021332673
    9          7            .017116603     .000000000    -.028697077
 -------------------------------------------------------------------
 Cartesian Forces:  Max      .034308008 RMS      .018303826

 GradGradGradGradGradGradGradGradGradGradGradGradGradGradGradGradGradGrad
 Berny optimization.
 Internal  Forces:  Max      .050388270 RMS      .016760318
 Search for a local minimum.
 Step number   2 out of a maximum of  48
 All quantities printed in internal units (Hartrees-Bohrs-Radians)
 Update second derivatives using information from points  1  2
 Trust test= 2.05D+00 RLast= 3.00D-01 DXMaxT set to 4.24D-01
     Eigenvalues ---     .03210    .03262    .03288    .03314    .03351
     Eigenvalues ---     .03406    .15920    .16000    .16000    .16000
     Eigenvalues ---     .22120    .22830    .49299    .49603    .50794
     Eigenvalues ---     .55591    .60890    .63922    .70213    .71961
     Eigenvalues ---     .751571000.000001000.000001000.000001000.00000
     Eigenvalues --- 1000.000001000.000001000.000001000.000001000.00000
     Eigenvalues --- 1000.000001000.000001000.000001000.000001000.00000
     Eigenvalues --- 1000.000001000.000001000.00000
 RFO step:  Lambda=-2.00503714D-03.
 Quartic linear search produced a step of   .70554.
 Iteration  1 RMS(Cart)=   .04841220 RMS(Int)=   .00085243
 Iteration  2 RMS(Cart)=   .00100663 RMS(Int)=   .00009142
 Iteration  3 RMS(Cart)=   .00000122 RMS(Int)=   .00009142
 Iteration  4 RMS(Cart)=   .00000000 RMS(Int)=   .00009142
 Variable       Old X    -DE/DX   Delta X   Delta X   Delta X     New X
                                 (Linear)    (Quad)   (Total)
    R1        2.51462    .04500    .07403    .00435    .07826   2.59288
    R2        2.48341    .02051    .04356   -.01000    .03342   2.51683
    R3        1.85918    .02783    .06160   -.00104    .06057   1.91974
    R4        1.97280    .02833    .07283    .00357    .07640   2.04921
    R5        2.58205    .02427    .06267   -.01393    .04880   2.63085
    R6        2.50682    .05039    .08250    .00671    .08937   2.59619
    R7        1.97653    .02828    .07242    .00475    .07717   2.05370
    R8        1.97352    .02866    .07320    .00426    .07746   2.05099
    R9        2.52158    .04101    .07486    .00024    .07513   2.59671
    A1        1.85759   -.00117   -.00020   -.02589   -.02641   1.83118
    A2        2.24395    .00814    .02396    .04493    .06877   2.31273
    A3        2.19714   -.00426   -.00627   -.04751   -.05389   2.14325
    A4        1.84209   -.00389   -.01770    .00258   -.01488   1.82721
    A5        1.91252    .00514    .01221    .01604    .02822   1.94075
    A6        2.17145   -.00616   -.01434   -.03547   -.04980   2.12165
    A7        2.19921    .00102    .00213    .01943    .02157   2.22079
    A8        2.18840    .00048    .00487    .00406    .00897   2.19737
    A9        1.91767    .00373    .00001    .02898    .02891   1.94659
   A10        2.17711   -.00421   -.00487   -.03305   -.03788   2.13923
   A11        2.19646    .00145   -.00338    .00677    .00329   2.19975
   A12        2.19183    .00236   -.00230    .01495    .01255   2.20438
   A13        1.89490   -.00381    .00568   -.02172   -.01584   1.87906
    D1         .00000    .00000    .00000    .00000    .00000    .00000
    D2        3.14159    .00000    .00000    .00000    .00000   3.14159
    D3        3.14159    .00000    .00000    .00000    .00000   3.14159
    D4         .00000    .00000    .00000    .00000    .00000    .00000
    D5        3.14159    .00000    .00000    .00000    .00000   3.14159
    D6         .00000    .00000    .00000    .00000    .00000    .00000
    D7         .00000    .00000    .00000    .00000    .00000    .00000
    D8        3.14159    .00000    .00000    .00000    .00000   3.14159
    D9         .00000    .00000    .00000    .00000    .00000    .00000
   D10        3.14159    .00000    .00000    .00000    .00000   3.14159
   D11        3.14159    .00000    .00000    .00000    .00000   3.14159
   D12         .00000    .00000    .00000    .00000    .00000    .00000
   D13        3.14159    .00000    .00000    .00000    .00000   3.14159
   D14         .00000    .00000    .00000    .00000    .00000    .00000
   D15         .00000    .00000    .00000    .00000    .00000    .00000
   D16        3.14159    .00000    .00000    .00000    .00000   3.14159
         Item               Value     Threshold  Converged?
 Maximum Force             .050388      .000450     NO 
 RMS     Force             .016760      .000300     NO 
 Maximum Displacement      .142321      .001800     NO 
 RMS     Displacement      .048287      .001200     NO 
 Predicted change in Energy=-1.507437D-02
 GradGradGradGradGradGradGradGradGradGradGradGradGradGradGradGradGradGrad

                          Input orientation:                          
 ---------------------------------------------------------------------
 Center     Atomic     Atomic              Coordinates (Angstroms)
 Number     Number      Type              X           Y           Z
 ---------------------------------------------------------------------
    1          7             0         .494963     .000000    1.151234
    2          1             0         .488024     .000000   -2.059192
    3          6             0       -1.023714     .000000    -.550466
    4          1             0       -1.913311     .000000   -1.170567
    5          6             0        -.838848     .000000     .829392
    6          1             0       -1.609018     .000000    1.596143
    7          1             0        2.206412     .000000    -.159465
    8          6             0        1.130154     .000000    -.019389
    9          7             0         .247178     .000000   -1.072269
 ---------------------------------------------------------------------
                    Distance matrix (angstroms):
                    1          2          3          4          5
     1  N     .000000
     2  H    3.210433    .000000
     3  C    2.280825   2.135792    .000000
     4  H    3.345227   2.560481   1.084393    .000000
     5  C    1.372091   3.178758   1.392186   2.270310    .000000
     6  H    2.150507   4.214150   2.224975   2.783394   1.086770
     7  H    2.155688   2.561606   3.253706   4.241987   3.201788
     8  C    1.331851   2.138487   2.218376   3.253904   2.144154
     9  N    2.237267   1.015885   1.373843   2.162724   2.189924
                    6          7          8          9
     6  H     .000000
     7  H    4.199961    .000000
     8  C    3.180096   1.085336    .000000
     9  N    3.250521   2.161438   1.374120    .000000
 Stoichiometry    C3H4N2
 Framework group  CS[SG(C3H4N2)]
 Deg. of freedom   15
 Full point group                 CS      NOp   2
 Largest Abelian subgroup         CS      NOp   2
 Largest concise Abelian subgroup C1      NOp   1
                         Standard orientation:                         
 ---------------------------------------------------------------------
 Center     Atomic     Atomic              Coordinates (Angstroms)
 Number     Number      Type              X           Y           Z
 ---------------------------------------------------------------------
    1          7             0        -.738558   -1.002708     .000000
    2          1             0        -.014134    2.124926     .000000
    3          6             0        1.122087     .316444     .000000
    4          1             0        2.127790     .721992     .000000
    5          6             0         .633445    -.987171     .000000
    6          1             0        1.212726   -1.906683     .000000
    7          1             0       -2.113705     .657402     .000000
    8          6             0       -1.095994     .280283     .000000
    9          7             0         .000000    1.109139     .000000
 ---------------------------------------------------------------------
 Rotational constants (GHZ):      9.7377281      9.2076878      4.7326467
 Isotopes: N-14,H-1,C-12,H-1,C-12,H-1,H-1,C-12,N-14
 Standard basis: CC-pVTZ (5D, 7F)
 There are   140 symmetry adapted basis functions of A'  symmetry.
 There are    66 symmetry adapted basis functions of A"  symmetry.
 Crude estimate of integral set expansion from redundant integrals=1.000.
 Integral buffers will be    262144 words long.
 Raffenetti 2 integral format.
 Two-electron integral symmetry is turned on.
   206 basis functions      343 primitive gaussians
    18 alpha electrons       18 beta electrons
       nuclear repulsion energy       162.2836310717 Hartrees.
 One-electron integrals computed using PRISM.
 NBasis=   206 RedAO= T  NBF=   140    66
 NBsUse=   206 1.00D-04 NBFU=   140    66
 Initial guess read from the read-write file:
 Initial guess orbital symmetries:
       Occupied  (A') (A') (A') (A') (A') (A') (A') (A') (A') (A')
                 (A') (A') (A") (A') (A') (A") (A') (A")
       Virtual   (A") (A') (A") (A') (A') (A') (A') (A') (A') (A')
                 (A") (A') (A') (A") (A') (A') (A") (A') (A') (A')
                 (A') (A") (A') (A') (A") (A') (A') (A') (A") (A')
                 (A') (A") (A") (A') (A") (A') (A") (A') (A') (A')
                 (A') (A') (A") (A') (A') (A") (A') (A") (A') (A')
                 (A") (A') (A') (A") (A') (A') (A') (A") (A') (A')
                 (A') (A") (A') (A") (A') (A") (A') (A') (A') (A')
                 (A") (A') (A") (A') (A') (A") (A') (A') (A") (A')
                 (A') (A") (A') (A') (A") (A') (A") (A') (A") (A')
                 (A") (A') (A") (A') (A') (A") (A") (A') (A') (A")
                 (A') (A") (A') (A') (A") (A") (A') (A') (A") (A')
                 (A") (A') (A') (A') (A") (A') (A') (A") (A') (A')
                 (A") (A") (A') (A') (A') (A") (A') (A") (A") (A')
                 (A") (A") (A') (A') (A') (A') (A') (A') (A") (A')
                 (A') (A") (A') (A') (A") (A') (A') (A") (A") (A')
                 (A') (A") (A') (A') (A") (A') (A") (A") (A') (A')
                 (A") (A') (A") (A") (A') (A') (A') (A") (A') (A")
                 (A') (A') (A') (A') (A") (A') (A') (A') (A') (A')
                 (A') (A') (A') (A') (A') (A') (A') (A')
 Requested convergence on RMS density matrix=1.00D-08 within  64 cycles.
 Requested convergence on MAX density matrix=1.00D-06.
 Integral accuracy reduced to 1.0D-05 until final iterations.
 Initial convergence to 1.0D-05 achieved.  Increase integral accuracy.
 SCF Done:  E(RB-LYP) =  -226.223099454     A.U. after   13 cycles
             Convg  =     .5705D-08             -V/T =  2.0061
             S**2   =    .0000
 ***** Axes restored to original set *****
 -------------------------------------------------------------------
 Center     Atomic                   Forces (Hartrees/Bohr)
 Number     Number              X              Y              Z
 -------------------------------------------------------------------
    1          7            .007579039     .000000000    -.006933357
    2          1           -.000412995     .000000000     .002445658
    3          6           -.007755152     .000000000     .011849889
    4          1            .002224298     .000000000     .001117513
    5          6           -.012684692     .000000000    -.006105644
    6          1            .001638386     .000000000    -.001572350
    7          1           -.001669541     .000000000    -.000105865
    8          6            .003206067     .000000000     .005001660
    9          7            .007874590     .000000000    -.005697503
 -------------------------------------------------------------------
 Cartesian Forces:  Max      .012684692 RMS      .004922832

 GradGradGradGradGradGradGradGradGradGradGradGradGradGradGradGradGradGrad
 Berny optimization.
 Internal  Forces:  Max      .009391859 RMS      .002855724
 Search for a local minimum.
 Step number   3 out of a maximum of  48
 All quantities printed in internal units (Hartrees-Bohrs-Radians)
 Update second derivatives using information from points  1  2  3
 Trust test= 7.29D-01 RLast= 2.45D-01 DXMaxT set to 4.24D-01
     Eigenvalues ---     .03205    .03261    .03287    .03304    .03349
     Eigenvalues ---     .03404    .15434    .16000    .16000    .16002
     Eigenvalues ---     .22130    .23329    .44200    .49331    .49613
     Eigenvalues ---     .55943    .58453    .63492    .65525    .72591
     Eigenvalues ---     .746871000.000001000.000001000.000001000.00000
     Eigenvalues --- 1000.000001000.000001000.000001000.000001000.00000
     Eigenvalues --- 1000.000001000.000001000.000001000.000001000.00000
     Eigenvalues --- 1000.000001000.000001000.00000
 RFO step:  Lambda=-5.45591680D-04.
 Quartic linear search produced a step of  -.00439.
 Iteration  1 RMS(Cart)=   .00565362 RMS(Int)=   .00001893
 Iteration  2 RMS(Cart)=   .00001803 RMS(Int)=   .00000397
 Iteration  3 RMS(Cart)=   .00000000 RMS(Int)=   .00000397
 Variable       Old X    -DE/DX   Delta X   Delta X   Delta X     New X
                                 (Linear)    (Quad)   (Total)
    R1        2.59288    .00767   -.00034    .01205    .01172   2.60459
    R2        2.51683   -.00487   -.00015   -.00586   -.00601   2.51082
    R3        1.91974   -.00247   -.00027   -.00238   -.00264   1.91710
    R4        2.04921   -.00246   -.00034   -.00287   -.00320   2.04600
    R5        2.63085   -.00907   -.00021   -.01301   -.01322   2.61763
    R6        2.59619    .00939   -.00039    .01468    .01428   2.61047
    R7        2.05370   -.00227   -.00034   -.00251   -.00285   2.05085
    R8        2.05099   -.00164   -.00034   -.00120   -.00154   2.04945
    R9        2.59671   -.00011   -.00033    .00208    .00174   2.59845
    A1        1.83118    .00416    .00012    .01463    .01476   1.84593
    A2        2.31273   -.00004   -.00030    .00101    .00070   2.31343
    A3        2.14325   -.00076    .00024   -.00584   -.00560   2.13765
    A4        1.82721    .00080    .00007    .00483    .00490   1.83211
    A5        1.94075   -.00239   -.00012   -.01044   -.01056   1.93019
    A6        2.12165    .00115    .00022    .00423    .00445   2.12610
    A7        2.22079    .00124   -.00009    .00621    .00611   2.22690
    A8        2.19737    .00159   -.00004    .00779    .00776   2.20513
    A9        1.94659   -.00252   -.00013   -.01055   -.01069   1.93590
   A10        2.13923    .00092    .00017    .00276    .00293   2.14216
   A11        2.19975    .00020   -.00001    .00019    .00018   2.19993
   A12        2.20438   -.00014   -.00006   -.00172   -.00177   2.20261
   A13        1.87906   -.00006    .00007    .00153    .00159   1.88065
    D1         .00000    .00000    .00000    .00000    .00000    .00000
    D2        3.14159    .00000    .00000    .00000    .00000   3.14159
    D3        3.14159    .00000    .00000    .00000    .00000   3.14159
    D4         .00000    .00000    .00000    .00000    .00000    .00000
    D5        3.14159    .00000    .00000    .00000    .00000   3.14159
    D6         .00000    .00000    .00000    .00000    .00000    .00000
    D7         .00000    .00000    .00000    .00000    .00000    .00000
    D8        3.14159    .00000    .00000    .00000    .00000   3.14159
    D9         .00000    .00000    .00000    .00000    .00000    .00000
   D10        3.14159    .00000    .00000    .00000    .00000   3.14159
   D11        3.14159    .00000    .00000    .00000    .00000   3.14159
   D12         .00000    .00000    .00000    .00000    .00000    .00000
   D13        3.14159    .00000    .00000    .00000    .00000   3.14159
   D14         .00000    .00000    .00000    .00000    .00000    .00000
   D15         .00000    .00000    .00000    .00000    .00000    .00000
   D16        3.14159    .00000    .00000    .00000    .00000   3.14159
         Item               Value     Threshold  Converged?
 Maximum Force             .009392      .000450     NO 
 RMS     Force             .002856      .000300     NO 
 Maximum Displacement      .016808      .001800     NO 
 RMS     Displacement      .005651      .001200     NO 
 Predicted change in Energy=-2.726741D-04
 GradGradGradGradGradGradGradGradGradGradGradGradGradGradGradGradGradGrad

                          Input orientation:                          
 ---------------------------------------------------------------------
 Center     Atomic     Atomic              Coordinates (Angstroms)
 Number     Number      Type              X           Y           Z
 ---------------------------------------------------------------------
    1          7             0         .495469     .000000    1.133537
    2          1             0         .489852     .000000   -2.066173
    3          6             0       -1.026199     .000000    -.553447
    4          1             0       -1.911963     .000000   -1.176070
    5          6             0        -.846701     .000000     .820065
    6          1             0       -1.613596     .000000    1.587964
    7          1             0        2.213208     .000000    -.169875
    8          6             0        1.137802     .000000    -.029550
    9          7             0         .250807     .000000   -1.080253
 ---------------------------------------------------------------------
                    Distance matrix (angstroms):
                    1          2          3          4          5
     1  N     .000000
     2  H    3.199715    .000000
     3  C    2.271869   2.141670    .000000
     4  H    3.336167   2.561445   1.082699    .000000
     5  C    1.378290   3.180683   1.385191   2.262595    .000000
     6  H    2.157466   4.216303   2.220513   2.780092   1.085264
     7  H    2.156273   2.562402   3.262038   4.246112   3.216058
     8  C    1.328670   2.137211   2.226515   3.258155   2.158726
     9  N    2.227268   1.014486   1.381401   2.164892   2.194477
                    6          7          8          9
     6  H     .000000
     7  H    4.211227    .000000
     8  C    3.191637   1.084523    .000000
     9  N    3.255055   2.163286   1.375040    .000000
 Stoichiometry    C3H4N2
 Framework group  CS[SG(C3H4N2)]
 Deg. of freedom   15
 Full point group                 CS      NOp   2
 Largest Abelian subgroup         CS      NOp   2
 Largest concise Abelian subgroup C1      NOp   1
                         Standard orientation:                         
 ---------------------------------------------------------------------
 Center     Atomic     Atomic              Coordinates (Angstroms)
 Number     Number      Type              X           Y           Z
 ---------------------------------------------------------------------
    1          7             0        -.739803    -.992547     .000000
    2          1             0        -.009484    2.122707     .000000
    3          6             0        1.124468     .305868     .000000
    4          1             0        2.128250     .711647     .000000
    5          6             0         .638487    -.991274     .000000
    6          1             0        1.211488   -1.912939     .000000
    7          1             0       -2.117617     .666109     .000000
    8          6             0       -1.101957     .285814     .000000
    9          7             0         .000000    1.108265     .000000
 ---------------------------------------------------------------------
 Rotational constants (GHZ):      9.6304789      9.2891847      4.7283767
 Isotopes: N-14,H-1,C-12,H-1,C-12,H-1,H-1,C-12,N-14
 Standard basis: CC-pVTZ (5D, 7F)
 There are   140 symmetry adapted basis functions of A'  symmetry.
 There are    66 symmetry adapted basis functions of A"  symmetry.
 Crude estimate of integral set expansion from redundant integrals=1.000.
 Integral buffers will be    262144 words long.
 Raffenetti 2 integral format.
 Two-electron integral symmetry is turned on.
   206 basis functions      343 primitive gaussians
    18 alpha electrons       18 beta electrons
       nuclear repulsion energy       162.2020705411 Hartrees.
 One-electron integrals computed using PRISM.
 NBasis=   206 RedAO= T  NBF=   140    66
 NBsUse=   206 1.00D-04 NBFU=   140    66
 Initial guess read from the read-write file:
 Initial guess orbital symmetries:
       Occupied  (A') (A') (A') (A') (A') (A') (A') (A') (A') (A')
                 (A') (A') (A') (A") (A') (A") (A') (A")
       Virtual   (A") (A') (A") (A') (A') (A') (A') (A') (A') (A')
                 (A") (A') (A') (A") (A') (A') (A") (A') (A') (A')
                 (A') (A') (A") (A') (A') (A") (A') (A') (A") (A')
                 (A') (A") (A") (A') (A') (A") (A") (A') (A') (A')
                 (A') (A') (A") (A') (A") (A') (A') (A") (A') (A')
                 (A") (A') (A') (A") (A') (A') (A') (A") (A') (A')
                 (A') (A') (A") (A') (A") (A") (A') (A') (A') (A')
                 (A') (A") (A') (A") (A') (A") (A') (A') (A") (A')
                 (A') (A") (A') (A') (A") (A') (A") (A') (A") (A")
                 (A') (A') (A') (A") (A') (A") (A') (A") (A') (A')
                 (A") (A') (A") (A") (A') (A") (A') (A') (A') (A")
                 (A') (A") (A') (A') (A") (A') (A') (A') (A") (A')
                 (A") (A") (A') (A') (A') (A') (A") (A") (A") (A')
                 (A") (A") (A') (A') (A') (A') (A') (A') (A') (A")
                 (A') (A") (A') (A') (A') (A") (A') (A') (A") (A')
                 (A") (A") (A') (A') (A') (A") (A") (A") (A') (A')
                 (A') (A") (A") (A') (A") (A') (A") (A') (A') (A")
                 (A') (A') (A') (A') (A") (A') (A') (A') (A') (A')
                 (A') (A') (A') (A') (A') (A') (A') (A')
 Requested convergence on RMS density matrix=1.00D-08 within  64 cycles.
 Requested convergence on MAX density matrix=1.00D-06.
 SCF Done:  E(RB-LYP) =  -226.223419456     A.U. after   10 cycles
             Convg  =     .1369D-08             -V/T =  2.0062
             S**2   =    .0000
 ***** Axes restored to original set *****
 -------------------------------------------------------------------
 Center     Atomic                   Forces (Hartrees/Bohr)
 Number     Number              X              Y              Z
 -------------------------------------------------------------------
    1          7            .006155953     .000000000    -.000463535
    2          1           -.000656386     .000000000     .001060493
    3          6           -.003250543     .000000000     .005559985
    4          1            .001259209     .000000000     .000285012
    5          6           -.004298128     .000000000    -.005211769
    6          1            .001485527     .000000000    -.000801630
    7          1           -.001227496     .000000000     .000155366
    8          6           -.003522381     .000000000     .003946784
    9          7            .004054245     .000000000    -.004530706
 -------------------------------------------------------------------
 Cartesian Forces:  Max      .006155953 RMS      .002706492

 GradGradGradGradGradGradGradGradGradGradGradGradGradGradGradGradGradGrad
 Berny optimization.
 Internal  Forces:  Max      .004000252 RMS      .001333457
 Search for a local minimum.
 Step number   4 out of a maximum of  48
 All quantities printed in internal units (Hartrees-Bohrs-Radians)
 Update second derivatives using information from points  1  2  3  4
 Trust test= 1.17D+00 RLast= 3.48D-02 DXMaxT set to 4.24D-01
     Eigenvalues ---     .03205    .03261    .03287    .03304    .03350
     Eigenvalues ---     .03404    .14670    .15999    .16000    .16054
     Eigenvalues ---     .21320    .32238    .40120    .46588    .49427
     Eigenvalues ---     .49666    .56668    .59781    .64506    .67806
     Eigenvalues ---     .767721000.000001000.000001000.000001000.00000
     Eigenvalues --- 1000.000001000.000001000.000001000.000001000.00000
     Eigenvalues --- 1000.000001000.000001000.000001000.000001000.00000
     Eigenvalues --- 1000.000001000.000001000.00000
 RFO step:  Lambda=-1.81307363D-04.
 Quartic linear search produced a step of   .21344.
 Iteration  1 RMS(Cart)=   .00271001 RMS(Int)=   .00000672
 Iteration  2 RMS(Cart)=   .00000770 RMS(Int)=   .00000304
 Iteration  3 RMS(Cart)=   .00000000 RMS(Int)=   .00000304
 Variable       Old X    -DE/DX   Delta X   Delta X   Delta X     New X
                                 (Linear)    (Quad)   (Total)
    R1        2.60459    .00323    .00250    .00768    .01018   2.61477
    R2        2.51082   -.00373   -.00128   -.00652   -.00780   2.50302
    R3        1.91710   -.00119   -.00056   -.00165   -.00221   1.91489
    R4        2.04600   -.00119   -.00068   -.00200   -.00268   2.04332
    R5        2.61763   -.00400   -.00282   -.00825   -.01108   2.60655
    R6        2.61047    .00249    .00305    .00721    .01026   2.62073
    R7        2.05085   -.00162   -.00061   -.00303   -.00364   2.04722
    R8        2.04945   -.00124   -.00033   -.00189   -.00222   2.04723
    R9        2.59845    .00034    .00037    .00203    .00241   2.60086
    A1        1.84593   -.00135    .00315   -.00679   -.00364   1.84229
    A2        2.31343    .00051    .00015    .00403    .00419   2.31762
    A3        2.13765   -.00049   -.00120   -.00527   -.00646   2.13118
    A4        1.83211   -.00002    .00105    .00123    .00228   1.83438
    A5        1.93019    .00097   -.00225    .00398    .00172   1.93191
    A6        2.12610   -.00098    .00095   -.00613   -.00518   2.12092
    A7        2.22690    .00001    .00130    .00215    .00346   2.23036
    A8        2.20513   -.00098    .00166   -.00392   -.00227   2.20286
    A9        1.93590    .00197   -.00228    .00885    .00658   1.94248
   A10        2.14216   -.00099    .00062   -.00493   -.00431   2.13785
   A11        2.19993    .00040    .00004    .00091    .00095   2.20087
   A12        2.20261    .00115   -.00038    .00637    .00599   2.20860
   A13        1.88065   -.00156    .00034   -.00728   -.00694   1.87371
    D1         .00000    .00000    .00000    .00000    .00000    .00000
    D2        3.14159    .00000    .00000    .00000    .00000   3.14159
    D3        3.14159    .00000    .00000    .00000    .00000   3.14159
    D4         .00000    .00000    .00000    .00000    .00000    .00000
    D5        3.14159    .00000    .00000    .00000    .00000   3.14159
    D6         .00000    .00000    .00000    .00000    .00000    .00000
    D7         .00000    .00000    .00000    .00000    .00000    .00000
    D8        3.14159    .00000    .00000    .00000    .00000   3.14159
    D9         .00000    .00000    .00000    .00000    .00000    .00000
   D10        3.14159    .00000    .00000    .00000    .00000   3.14159
   D11        3.14159    .00000    .00000    .00000    .00000   3.14159
   D12         .00000    .00000    .00000    .00000    .00000    .00000
   D13        3.14159    .00000    .00000    .00000    .00000   3.14159
   D14         .00000    .00000    .00000    .00000    .00000    .00000
   D15         .00000    .00000    .00000    .00000    .00000    .00000
   D16        3.14159    .00000    .00000    .00000    .00000   3.14159
         Item               Value     Threshold  Converged?
 Maximum Force             .004000      .000450     NO 
 RMS     Force             .001333      .000300     NO 
 Maximum Displacement      .005977      .001800     NO 
 RMS     Displacement      .002711      .001200     NO 
 Predicted change in Energy=-1.008628D-04
 GradGradGradGradGradGradGradGradGradGradGradGradGradGradGradGradGradGrad

                          Input orientation:                          
 ---------------------------------------------------------------------
 Center     Atomic     Atomic              Coordinates (Angstroms)
 Number     Number      Type              X           Y           Z
 ---------------------------------------------------------------------
    1          7             0         .498753     .000000    1.134400
    2          1             0         .489684     .000000   -2.067200
    3          6             0       -1.027771     .000000    -.549485
    4          1             0       -1.910102     .000000   -1.174510
    5          6             0        -.848290     .000000     .818115
    6          1             0       -1.610751     .000000    1.587712
    7          1             0        2.210450     .000000    -.167025
    8          6             0        1.136236     .000000    -.026647
    9          7             0         .252759     .000000   -1.081973
 ---------------------------------------------------------------------
                    Distance matrix (angstroms):
                    1          2          3          4          5
     1  N     .000000
     2  H    3.201613    .000000
     3  C    2.272828   2.146189    .000000
     4  H    3.336713   2.560444   1.081279    .000000
     5  C    1.383676   3.180443   1.379328   2.257876    .000000
     6  H    2.157660   4.215472   2.215283   2.778396   1.083340
     7  H    2.150259   2.563532   3.260729   4.241931   3.213470
     8  C    1.324544   2.140534   2.226272   3.255421   2.156842
     9  N    2.229983   1.013314   1.386831   2.164841   2.196052
                    6          7          8          9
     6  H     .000000
     7  H    4.204840    .000000
     8  C    3.186235   1.083347    .000000
     9  N    3.255747   2.160944   1.376315    .000000
 Stoichiometry    C3H4N2
 Framework group  CS[SG(C3H4N2)]
 Deg. of freedom   15
 Full point group                 CS      NOp   2
 Largest Abelian subgroup         CS      NOp   2
 Largest concise Abelian subgroup C1      NOp   1
                         Standard orientation:                         
 ---------------------------------------------------------------------
 Center     Atomic     Atomic              Coordinates (Angstroms)
 Number     Number      Type              X           Y           Z
 ---------------------------------------------------------------------
    1          7             0        -.743714    -.991270     .000000
    2          1             0        -.006599    2.124333     .000000
    3          6             0        1.125832     .301224     .000000
    4          1             0        2.127210     .709155     .000000
    5          6             0         .639962    -.989696     .000000
    6          1             0        1.207370   -1.912557     .000000
    7          1             0       -2.114495     .665405     .000000
    8          6             0       -1.100376     .284350     .000000
    9          7             0         .000000    1.111041     .000000
 ---------------------------------------------------------------------
 Rotational constants (GHZ):      9.6233039      9.2887837      4.7265426
 Isotopes: N-14,H-1,C-12,H-1,C-12,H-1,H-1,C-12,N-14
 Standard basis: CC-pVTZ (5D, 7F)
 There are   140 symmetry adapted basis functions of A'  symmetry.
 There are    66 symmetry adapted basis functions of A"  symmetry.
 Crude estimate of integral set expansion from redundant integrals=1.000.
 Integral buffers will be    262144 words long.
 Raffenetti 2 integral format.
 Two-electron integral symmetry is turned on.
   206 basis functions      343 primitive gaussians
    18 alpha electrons       18 beta electrons
       nuclear repulsion energy       162.1819599559 Hartrees.
 One-electron integrals computed using PRISM.
 NBasis=   206 RedAO= T  NBF=   140    66
 NBsUse=   206 1.00D-04 NBFU=   140    66
 Initial guess read from the read-write file:
 Initial guess orbital symmetries:
       Occupied  (A') (A') (A') (A') (A') (A') (A') (A') (A') (A')
                 (A') (A') (A') (A") (A') (A") (A') (A")
       Virtual   (A") (A') (A") (A') (A') (A') (A') (A') (A') (A')
                 (A") (A') (A') (A") (A') (A') (A") (A') (A') (A')
                 (A') (A') (A") (A') (A') (A") (A') (A') (A") (A')
                 (A') (A") (A") (A') (A") (A') (A") (A') (A') (A')
                 (A') (A') (A") (A') (A") (A') (A') (A") (A') (A')
                 (A") (A') (A') (A") (A') (A') (A') (A") (A') (A')
                 (A') (A') (A") (A') (A") (A") (A') (A') (A') (A')
                 (A') (A") (A') (A") (A') (A") (A') (A') (A") (A')
                 (A') (A") (A') (A') (A") (A') (A") (A') (A") (A")
                 (A') (A') (A') (A") (A') (A") (A') (A") (A') (A')
                 (A") (A') (A") (A") (A') (A") (A') (A') (A') (A")
                 (A') (A") (A') (A') (A") (A') (A') (A') (A") (A')
                 (A") (A") (A') (A') (A') (A') (A") (A") (A") (A')
                 (A") (A") (A') (A') (A') (A') (A') (A') (A") (A')
                 (A') (A") (A') (A') (A") (A') (A') (A') (A") (A')
                 (A") (A') (A") (A') (A') (A") (A") (A") (A') (A')
                 (A') (A") (A') (A") (A") (A') (A") (A') (A') (A")
                 (A') (A') (A') (A') (A") (A') (A') (A') (A') (A')
                 (A') (A') (A') (A') (A') (A') (A') (A')
 Requested convergence on RMS density matrix=1.00D-08 within  64 cycles.
 Requested convergence on MAX density matrix=1.00D-06.
 SCF Done:  E(RB-LYP) =  -226.223543125     A.U. after    9 cycles
             Convg  =     .7097D-08             -V/T =  2.0061
             S**2   =    .0000
 ***** Axes restored to original set *****
 -------------------------------------------------------------------
 Center     Atomic                   Forces (Hartrees/Bohr)
 Number     Number              X              Y              Z
 -------------------------------------------------------------------
    1          7            .002065977     .000000000     .000150192
    2          1           -.000245286     .000000000     .000325591
    3          6           -.000158749     .000000000     .000698227
    4          1            .000195816     .000000000     .000076682
    5          6           -.001218787     .000000000    -.001365012
    6          1            .000435139     .000000000    -.000123594
    7          1           -.000210566     .000000000     .000046769
    8          6           -.001798044     .000000000     .000687068
    9          7            .000934500     .000000000    -.000495923
 -------------------------------------------------------------------
 Cartesian Forces:  Max      .002065977 RMS      .000705482

 GradGradGradGradGradGradGradGradGradGradGradGradGradGradGradGradGradGrad
 Berny optimization.
 Internal  Forces:  Max      .001110086 RMS      .000371344
 Search for a local minimum.
 Step number   5 out of a maximum of  48
 All quantities printed in internal units (Hartrees-Bohrs-Radians)
 Update second derivatives using information from points  1  2  3  4  5

 Trust test= 1.23D+00 RLast= 2.65D-02 DXMaxT set to 4.24D-01
     Eigenvalues ---     .03205    .03261    .03286    .03303    .03349
     Eigenvalues ---     .03404    .14064    .15978    .16005    .16021
     Eigenvalues ---     .20849    .27994    .41498    .46085    .49541
     Eigenvalues ---     .49673    .56495    .59449    .64756    .66999
     Eigenvalues ---     .768771000.000001000.000001000.000001000.00000
     Eigenvalues --- 1000.000001000.000001000.000001000.000001000.00000
     Eigenvalues --- 1000.000001000.000001000.000001000.000001000.00000
     Eigenvalues --- 1000.000001000.000001000.00000
 RFO step:  Lambda=-3.98012141D-06.
 Quartic linear search produced a step of   .29317.
 Iteration  1 RMS(Cart)=   .00099560 RMS(Int)=   .00000178
 Iteration  2 RMS(Cart)=   .00000092 RMS(Int)=   .00000160
 Variable       Old X    -DE/DX   Delta X   Delta X   Delta X     New X
                                 (Linear)    (Quad)   (Total)
    R1        2.61477    .00097    .00298    .00045    .00343   2.61820
    R2        2.50302   -.00111   -.00229   -.00042   -.00270   2.50032
    R3        1.91489   -.00037   -.00065   -.00028   -.00093   1.91396
    R4        2.04332   -.00020   -.00079    .00010   -.00069   2.04263
    R5        2.60655   -.00074   -.00325    .00040   -.00285   2.60370
    R6        2.62073   -.00006    .00301   -.00109    .00192   2.62265
    R7        2.04722   -.00039   -.00107   -.00010   -.00116   2.04605
    R8        2.04723   -.00021   -.00065    .00013   -.00052   2.04671
    R9        2.60086   -.00038    .00071   -.00103   -.00032   2.60054
    A1        1.84229   -.00075   -.00107   -.00125   -.00232   1.83998
    A2        2.31762    .00010    .00123   -.00045    .00078   2.31839
    A3        2.13118    .00000   -.00189    .00087   -.00103   2.13016
    A4        1.83438   -.00010    .00067   -.00042    .00025   1.83463
    A5        1.93191    .00027    .00050    .00045    .00095   1.93286
    A6        2.12092   -.00036   -.00152   -.00096   -.00247   2.11844
    A7        2.23036    .00010    .00101    .00051    .00152   2.23188
    A8        2.20286   -.00044   -.00067   -.00067   -.00134   2.20152
    A9        1.94248    .00084    .00193    .00104    .00298   1.94546
   A10        2.13785   -.00040   -.00126   -.00037   -.00164   2.13620
   A11        2.20087   -.00003    .00028   -.00052   -.00024   2.20063
   A12        2.20860    .00028    .00176    .00035    .00210   2.21071
   A13        1.87371   -.00026   -.00203    .00017   -.00186   1.87185
    D1         .00000    .00000    .00000    .00000    .00000    .00000
    D2        3.14159    .00000    .00000    .00000    .00000   3.14159
    D3        3.14159    .00000    .00000    .00000    .00000   3.14159
    D4         .00000    .00000    .00000    .00000    .00000    .00000
    D5        3.14159    .00000    .00000    .00000    .00000   3.14159
    D6         .00000    .00000    .00000    .00000    .00000    .00000
    D7         .00000    .00000    .00000    .00000    .00000    .00000
    D8        3.14159    .00000    .00000    .00000    .00000   3.14159
    D9         .00000    .00000    .00000    .00000    .00000    .00000
   D10        3.14159    .00000    .00000    .00000    .00000   3.14159
   D11        3.14159    .00000    .00000    .00000    .00000   3.14159
   D12         .00000    .00000    .00000    .00000    .00000    .00000
   D13        3.14159    .00000    .00000    .00000    .00000   3.14159
   D14         .00000    .00000    .00000    .00000    .00000    .00000
   D15         .00000    .00000    .00000    .00000    .00000    .00000
   D16        3.14159    .00000    .00000    .00000    .00000   3.14159
         Item               Value     Threshold  Converged?
 Maximum Force             .001110      .000450     NO 
 RMS     Force             .000371      .000300     NO 
 Maximum Displacement      .002839      .001800     NO 
 RMS     Displacement      .000996      .001200     YES
 Predicted change in Energy=-8.686167D-06
 GradGradGradGradGradGradGradGradGradGradGradGradGradGradGradGradGradGrad

                          Input orientation:                          
 ---------------------------------------------------------------------
 Center     Atomic     Atomic              Coordinates (Angstroms)
 Number     Number      Type              X           Y           Z
 ---------------------------------------------------------------------
    1          7             0         .499930     .000000    1.134861
    2          1             0         .489422     .000000   -2.067286
    3          6             0       -1.028063     .000000    -.549048
    4          1             0       -1.909683     .000000   -1.174446
    5          6             0        -.848618     .000000     .817038
    6          1             0       -1.609384     .000000    1.587446
    7          1             0        2.208922     .000000    -.166376
    8          6             0        1.135002     .000000    -.025876
    9          7             0         .253210     .000000   -1.082392
 ---------------------------------------------------------------------
                    Distance matrix (angstroms):
                    1          2          3          4          5
     1  N     .000000
     2  H    3.202165    .000000
     3  C    2.273832   2.146581    .000000
     4  H    3.337534   2.559858   1.080915    .000000
     5  C    1.385494   3.179572   1.377821   2.256517    .000000
     6  H    2.157322   4.214505   2.214168   2.778169   1.082725
     7  H    2.147993   2.563228   3.259526   4.240179   3.211799
     8  C    1.323113   2.141058   2.225435   3.254124   2.155285
     9  N    2.230938   1.012824   1.387847   2.164852   2.195874
                    6          7          8          9
     6  H     .000000
     7  H    4.201827    .000000
     8  C    3.183467   1.083071    .000000
     9  N    3.255348   2.159605   1.376148    .000000
 Stoichiometry    C3H4N2
 Framework group  CS[SG(C3H4N2)]
 Deg. of freedom   15
 Full point group                 CS      NOp   2
 Largest Abelian subgroup         CS      NOp   2
 Largest concise Abelian subgroup C1      NOp   1
                         Standard orientation:                         
 ---------------------------------------------------------------------
 Center     Atomic     Atomic              Coordinates (Angstroms)
 Number     Number      Type              X           Y           Z
 ---------------------------------------------------------------------
    1          7             0        -.745241    -.991195     .000000
    2          1             0        -.005682    2.124397     .000000
    3          6             0        1.126122     .300437     .000000
    4          1             0        2.127013     .708598     .000000
    5          6             0         .640251    -.988873     .000000
    6          1             0        1.205552   -1.912305     .000000
    7          1             0       -2.112943     .665085     .000000
    8          6             0       -1.099250     .283680     .000000
    9          7             0         .000000    1.111589     .000000
 ---------------------------------------------------------------------
 Rotational constants (GHZ):      9.6285193      9.2863564      4.7271715
 Isotopes: N-14,H-1,C-12,H-1,C-12,H-1,H-1,C-12,N-14
 Standard basis: CC-pVTZ (5D, 7F)
 There are   140 symmetry adapted basis functions of A'  symmetry.
 There are    66 symmetry adapted basis functions of A"  symmetry.
 Crude estimate of integral set expansion from redundant integrals=1.000.
 Integral buffers will be    262144 words long.
 Raffenetti 2 integral format.
 Two-electron integral symmetry is turned on.
   206 basis functions      343 primitive gaussians
    18 alpha electrons       18 beta electrons
       nuclear repulsion energy       162.1970613963 Hartrees.
 One-electron integrals computed using PRISM.
 NBasis=   206 RedAO= T  NBF=   140    66
 NBsUse=   206 1.00D-04 NBFU=   140    66
 Initial guess read from the read-write file:
 Initial guess orbital symmetries:
       Occupied  (A') (A') (A') (A') (A') (A') (A') (A') (A') (A')
                 (A') (A') (A') (A") (A') (A") (A') (A")
       Virtual   (A") (A') (A") (A') (A') (A') (A') (A') (A') (A')
                 (A") (A') (A') (A") (A') (A') (A") (A') (A') (A')
                 (A') (A') (A") (A') (A') (A") (A') (A') (A") (A')
                 (A') (A") (A") (A') (A') (A") (A") (A') (A') (A')
                 (A') (A') (A") (A') (A") (A') (A') (A") (A') (A')
                 (A") (A') (A') (A") (A') (A') (A') (A") (A') (A')
                 (A') (A') (A") (A') (A") (A") (A') (A') (A') (A')
                 (A') (A") (A') (A") (A') (A") (A') (A') (A") (A')
                 (A') (A") (A') (A') (A") (A') (A") (A') (A") (A")
                 (A') (A') (A') (A") (A') (A") (A') (A") (A') (A')
                 (A") (A') (A") (A") (A') (A") (A') (A') (A') (A")
                 (A') (A") (A') (A') (A") (A') (A') (A') (A") (A')
                 (A") (A") (A') (A') (A') (A') (A") (A") (A") (A')
                 (A") (A") (A') (A') (A') (A') (A') (A') (A") (A')
                 (A') (A') (A") (A') (A') (A") (A') (A') (A") (A')
                 (A") (A") (A') (A') (A') (A") (A") (A") (A') (A')
                 (A') (A") (A") (A') (A") (A') (A") (A') (A') (A")
                 (A') (A') (A') (A') (A") (A') (A') (A') (A') (A')
                 (A') (A') (A') (A') (A') (A') (A') (A')
 Requested convergence on RMS density matrix=1.00D-08 within  64 cycles.
 Requested convergence on MAX density matrix=1.00D-06.
 SCF Done:  E(RB-LYP) =  -226.223552461     A.U. after    9 cycles
             Convg  =     .1762D-08             -V/T =  2.0061
             S**2   =    .0000
 ***** Axes restored to original set *****
 -------------------------------------------------------------------
 Center     Atomic                   Forces (Hartrees/Bohr)
 Number     Number              X              Y              Z
 -------------------------------------------------------------------
    1          7            .000439795     .000000000     .000151876
    2          1           -.000026693     .000000000     .000006309
    3          6            .000370617     .000000000    -.000269956
    4          1           -.000056674     .000000000     .000009611
    5          6           -.000427448     .000000000    -.000043347
    6          1            .000036952     .000000000     .000047087
    7          1            .000070182     .000000000    -.000004684
    8          6           -.000441906     .000000000    -.000247096
    9          7            .000035174     .000000000     .000350199
 -------------------------------------------------------------------
 Cartesian Forces:  Max      .000441906 RMS      .000192845

 GradGradGradGradGradGradGradGradGradGradGradGradGradGradGradGradGradGrad
 Berny optimization.
 Internal  Forces:  Max      .000305474 RMS      .000097764
 Search for a local minimum.
 Step number   6 out of a maximum of  48
 All quantities printed in internal units (Hartrees-Bohrs-Radians)
[...]
 IR Inten    --      .9214                 2.7413                30.6436
 Raman Activ --      .0000                  .0000                  .0000
 Depolar     --      .0000                  .0000                  .0000
 Atom AN      X      Y      Z        X      Y      Z        X      Y      Z
   1   7      .00    .00    .00      .00    .00    .00      .00    .00    .00
   2   1     -.01    .01    .00     -.01   -.02    .00     -.01   1.00    .00
   3   6     -.01   -.01    .00     -.08   -.03    .00      .00    .00    .00
   4   1      .14    .06    .00      .87    .35    .00      .01    .00    .00
   5   6      .01   -.02    .00     -.01    .03    .00      .00    .00    .00
   6   1     -.11    .17    .00      .17   -.28    .00      .00    .00    .00
   7   1      .90   -.33    .00     -.07    .03    .00     -.01    .00    .00
   8   6     -.08    .03    .00      .01    .00    .00      .00    .00    .00
   9   7      .00    .00    .00      .00    .00    .00      .00   -.07    .00

 -------------------
 - Thermochemistry -
 -------------------
 Temperature   298.150 Kelvin.  Pressure   1.00000 Atm.
 Atom  1 has atomic number  7 and mass  14.00307
 Atom  2 has atomic number  1 and mass   1.00783
 Atom  3 has atomic number  6 and mass  12.00000
 Atom  4 has atomic number  1 and mass   1.00783
 Atom  5 has atomic number  6 and mass  12.00000
 Atom  6 has atomic number  1 and mass   1.00783
 Atom  7 has atomic number  1 and mass   1.00783
 Atom  8 has atomic number  6 and mass  12.00000
 Atom  9 has atomic number  7 and mass  14.00307
 Molecular mass:    68.03745 amu.
 Principal axes and moments of inertia in atomic units:
                           1         2         3
     EIGENVALUES --   187.43704 194.34330 381.78034
           X             .47089    .88219    .00000
           Y             .88219   -.47089    .00000
           Z             .00000    .00000   1.00000
 THIS MOLECULE IS AN ASYMMETRIC TOP.
 ROTATIONAL SYMMETRY NUMBER  1.
 ROTATIONAL TEMPERATURES (KELVIN)       .46209      .44567      .22687
 ROTATIONAL CONSTANTS (GHZ)            9.62852     9.28636     4.72717
 Zero-point vibrational energy     180211.7 (Joules/Mol)
                                   43.07162 (Kcal/Mol)
 WARNING-- EXPLICIT CONSIDERATION OF   1 DEGREES OF FREEDOM AS
           VIBRATIONS MAY CAUSE SIGNIFICANT ERROR
 VIBRATIONAL TEMPERATURES:    719.81   902.94   953.97  1003.71  1109.01
          (KELVIN)           1197.75  1264.46  1319.15  1492.66  1517.54
                             1593.04  1604.11  1789.81  1882.68  1971.48
                             2075.31  2153.66  4551.44  4558.99  4595.78
                             5091.42
 
 Zero-point correction=                            .068639 (Hartree/Particle)
 Thermal correction to Energy=                     .072503
 Thermal correction to Enthalpy=                   .073447
 Thermal correction to Gibbs Free Energy=          .042316
 Sum of electronic and zero-point Energies=           -226.154913
 Sum of electronic and thermal Energies=              -226.151050
 Sum of electronic and thermal Enthalpies=            -226.150106
 Sum of electronic and thermal Free Energies=         -226.181236
 
                     E (Thermal)             CV                S
                      KCAL/MOL        CAL/MOL-KELVIN    CAL/MOL-KELVIN
 TOTAL                   45.496             14.033             65.520
 ELECTRONIC                .000               .000               .000
 TRANSLATIONAL             .889              2.981             38.570
 ROTATIONAL                .889              2.981             24.146
 VIBRATIONAL             43.719              8.071              2.804
 VIBRATION  1              .856              1.249               .657
                       Q            LOG10(Q)             LN(Q)
 TOTAL BOT        .343574D-19        -19.463980        -44.817470
 TOTAL V=0        .128102D+13         12.107554         27.878674
 VIB (BOT)        .368951D-31        -31.433031        -72.377229
 VIB (BOT)  1     .328430D+00          -.483557         -1.113430
 VIB (V=0)        .137564D+01           .138503           .318916
 VIB (V=0)  1     .109822D+01           .040689           .093690
 ELECTRONIC       .100000D+01           .000000           .000000
 TRANSLATIONAL    .220588D+08          7.343582         16.909224
 ROTATIONAL       .422152D+05          4.625469         10.650535
 ***** Axes restored to original set *****
 -------------------------------------------------------------------
 Center     Atomic                   Forces (Hartrees/Bohr)
 Number     Number              X              Y              Z
 -------------------------------------------------------------------
    1          7            .000439678     .000000000     .000151878
    2          1           -.000026693     .000000000     .000006302
    3          6            .000370620     .000000000    -.000269908
    4          1           -.000056688     .000000000     .000009598
    5          6           -.000427407     .000000000    -.000043278
    6          1            .000036982     .000000000     .000047048
    7          1            .000070198     .000000000    -.000004685
    8          6           -.000441902     .000000000    -.000247134
    9          7            .000035212     .000000000     .000350179
 -------------------------------------------------------------------
 Cartesian Forces:  Max      .000441902 RMS      .000192830

 GradGradGradGradGradGradGradGradGradGradGradGradGradGradGradGradGradGrad
 Berny optimization.
 Internal  Forces:  Max      .000305388 RMS      .000097753
 Search for a local minimum.
 Step number   1 out of a maximum of  48
 All quantities printed in internal units (Hartrees-Bohrs-Radians)
 Second derivative matrix not updated -- analytic derivatives used.
     Eigenvalues ---     .00481    .01005    .01813    .02516    .05672
     Eigenvalues ---     .05923    .09215    .09882    .10389    .11143
     Eigenvalues ---     .21277    .22594    .31011    .34911    .35346
     Eigenvalues ---     .35722    .37422    .41078    .43074    .44948
     Eigenvalues ---     .527561000.000001000.000001000.000001000.00000
     Eigenvalues --- 1000.000001000.000001000.000001000.000001000.00000
     Eigenvalues --- 1000.000001000.000001000.000001000.000001000.00000
     Eigenvalues --- 1000.000001000.000001000.00000
 Angle between quadratic step and forces=  24.69 degrees.
 Linear search not attempted -- first point.
 Iteration  1 RMS(Cart)=   .00026727 RMS(Int)=   .00000008
 Iteration  2 RMS(Cart)=   .00000009 RMS(Int)=   .00000002
 Variable       Old X    -DE/DX   Delta X   Delta X   Delta X     New X
                                 (Linear)    (Quad)   (Total)
    R1        2.61820    .00031    .00000    .00124    .00124   2.61945
    R2        2.50032   -.00003    .00000   -.00004   -.00004   2.50029
    R3        1.91396   -.00001    .00000   -.00002   -.00002   1.91394
    R4        2.04263    .00004    .00000    .00012    .00012   2.04275
    R5        2.60370    .00009    .00000    .00017    .00017   2.60387
    R6        2.62265   -.00026    .00000   -.00072   -.00072   2.62193
    R7        2.04605    .00001    .00000   -.00003   -.00003   2.04602
    R8        2.04671    .00007    .00000    .00024    .00024   2.04695
    R9        2.60054   -.00030    .00000   -.00094   -.00094   2.59961
    A1        1.83998   -.00017    .00000   -.00057   -.00057   1.83941
    A2        2.31839   -.00006    .00000   -.00064   -.00064   2.31775
    A3        2.13016    .00003    .00000    .00046    .00046   2.13062
    A4        1.83463    .00003    .00000    .00018    .00018   1.83482
    A5        1.93286   -.00010    .00000   -.00037   -.00037   1.93249
    A6        2.11844   -.00001    .00000   -.00055   -.00055   2.11789
    A7        2.23188    .00011    .00000    .00092    .00092   2.23280
    A8        2.20152   -.00008    .00000   -.00038   -.00038   2.20114
    A9        1.94546    .00015    .00000    .00052    .00052   1.94598
   A10        2.13620   -.00007    .00000   -.00014   -.00014   2.13607
   A11        2.20063   -.00007    .00000   -.00032   -.00032   2.20031
   A12        2.21071   -.00002    .00000    .00009    .00009   2.21079
   A13        1.87185    .00009    .00000    .00023    .00023   1.87208
    D1         .00000    .00000    .00000    .00000    .00000    .00000
    D2        3.14159    .00000    .00000    .00000    .00000   3.14159
    D3        3.14159    .00000    .00000    .00000    .00000   3.14159
    D4         .00000    .00000    .00000    .00000    .00000    .00000
    D5        3.14159    .00000    .00000    .00000    .00000   3.14159
    D6         .00000    .00000    .00000    .00000    .00000    .00000
    D7         .00000    .00000    .00000    .00000    .00000    .00000
    D8        3.14159    .00000    .00000    .00000    .00000   3.14159
    D9         .00000    .00000    .00000    .00000    .00000    .00000
   D10        3.14159    .00000    .00000    .00000    .00000   3.14159
   D11        3.14159    .00000    .00000    .00000    .00000   3.14159
   D12         .00000    .00000    .00000    .00000    .00000    .00000
   D13        3.14159    .00000    .00000    .00000    .00000   3.14159
   D14         .00000    .00000    .00000    .00000    .00000    .00000
   D15         .00000    .00000    .00000    .00000    .00000    .00000
   D16        3.14159    .00000    .00000    .00000    .00000   3.14159
         Item               Value     Threshold  Converged?
 Maximum Force             .000305      .000450     YES
 RMS     Force             .000098      .000300     YES
 Maximum Displacement      .000621      .001800     YES
 RMS     Displacement      .000267      .001200     YES
 Predicted change in Energy=-6.650394D-07
 Optimization completed.
    -- Stationary point found.
                         ----------------------------
                         !   Optimized Parameters   !
                         ! (Angstroms and Degrees)  !
 ------------------------                            -------------------------
 ! Name  Definition              Value          Derivative Info.             !
 -----------------------------------------------------------------------------
 ! R1    R(1,5)                  1.3855         -DE/DX =    0.0003           !
 ! R2    R(1,8)                  1.3231         -DE/DX =    0.               !
 ! R3    R(2,9)                  1.0128         -DE/DX =    0.               !
 ! R4    R(3,4)                  1.0809         -DE/DX =    0.               !
 ! R5    R(3,5)                  1.3778         -DE/DX =    0.0001           !
 ! R6    R(3,9)                  1.3878         -DE/DX =   -0.0003           !
 ! R7    R(5,6)                  1.0827         -DE/DX =    0.               !
 ! R8    R(7,8)                  1.0831         -DE/DX =    0.0001           !
 ! R9    R(8,9)                  1.3761         -DE/DX =   -0.0003           !
 ! A1    A(5,1,8)              105.423          -DE/DX =   -0.0002           !
 ! A2    A(4,3,5)              132.8342         -DE/DX =   -0.0001           !
 ! A3    A(4,3,9)              122.0491         -DE/DX =    0.               !
 ! A4    A(5,3,9)              105.1167         -DE/DX =    0.               !
 ! A5    A(1,5,3)              110.7447         -DE/DX =   -0.0001           !
 ! A6    A(1,5,6)              121.3778         -DE/DX =    0.               !
 ! A7    A(3,5,6)              127.8774         -DE/DX =    0.0001           !
 ! A8    A(1,8,7)              126.1379         -DE/DX =   -0.0001           !
 ! A9    A(1,8,9)              111.4665         -DE/DX =    0.0001           !
 ! A10   A(7,8,9)              122.3955         -DE/DX =   -0.0001           !
 ! A11   A(2,9,3)              126.0868         -DE/DX =   -0.0001           !
 ! A12   A(2,9,8)              126.6641         -DE/DX =    0.               !
 ! A13   A(3,9,8)              107.2491         -DE/DX =    0.0001           !
 ! D1    D(8,1,5,3)              0.             -DE/DX =    0.               !
 ! D2    D(8,1,5,6)            180.             -DE/DX =    0.               !
 ! D3    D(5,1,8,7)            180.             -DE/DX =    0.               !
 ! D4    D(5,1,8,9)              0.             -DE/DX =    0.               !
 ! D5    D(4,3,5,1)            180.             -DE/DX =    0.               !
 ! D6    D(4,3,5,6)              0.             -DE/DX =    0.               !
 ! D7    D(9,3,5,1)              0.             -DE/DX =    0.               !
 ! D8    D(9,3,5,6)            180.             -DE/DX =    0.               !
 ! D9    D(4,3,9,2)              0.             -DE/DX =    0.               !
 ! D10   D(4,3,9,8)            180.             -DE/DX =    0.               !
 ! D11   D(5,3,9,2)            180.             -DE/DX =    0.               !
 ! D12   D(5,3,9,8)              0.             -DE/DX =    0.               !
 ! D13   D(1,8,9,2)            180.             -DE/DX =    0.               !
 ! D14   D(1,8,9,3)              0.             -DE/DX =    0.               !
 ! D15   D(7,8,9,2)              0.             -DE/DX =    0.               !
 ! D16   D(7,8,9,3)            180.             -DE/DX =    0.               !
 -----------------------------------------------------------------------------
 GradGradGradGradGradGradGradGradGradGradGradGradGradGradGradGradGradGrad

 1\1\GINC-YUKON\Freq\RBLYP\CC-pVTZ\C3H4N2\RUS\25-Jul-2000\0\\#N GEOM=AL
 LCHECK GUESS=TCHECK RBLYP/CC-PVTZ FREQ\\1H imidazole C3H4N2 casno=2883
 24\\0,1\N,0.4998970519,0.,1.1348805476\H,0.4893892543,0.,-2.0672671179
 \C,-1.0280962761,0.,-0.5490286006\H,-1.9097164968,0.,-1.17442629\C,-0.
 8486508932,0.,0.817057442\H,-1.6094167671,0.,1.5874652606\H,2.20888897
 83,0.,-0.166356752\C,1.1349694684,0.,-0.0258568822\N,0.2531774104,0.,-
 1.0823729557\\Version=IBM-RS6000-G98RevA.7\State=1-A'\HF=-226.2235525\
 RMSD=1.235e-09\RMSF=1.928e-04\Dipole=-0.1052369,0.,-1.4191292\DipoleDe
 riv=-0.3387804,0.0001197,-0.0461417,0.0000505,-0.2895792,-0.0000686,-0
 .039269,-0.0001789,-0.5717654,0.1650056,0.0000714,-0.0073323,-0.000019
 9,0.2967897,0.0000066,-0.0069898,0.0000172,0.1397416,0.0032354,-0.0000
 068,-0.2267052,0.0000478,-0.1406609,0.0001258,-0.039559,0.0000124,0.17
 52363,0.0076978,0.0001347,-0.0475082,-0.0000088,0.1786664,0.0000363,-0
 .0714749,0.0001094,0.0220905,0.1607834,0.0007426,-0.0443621,-0.0001647
 ,-0.1265945,-0.0000754,-0.0477105,-0.000781,0.1504384,-0.0131734,-0.00
 05268,0.064338,-0.0000626,0.1471536,-0.0000413,0.0806934,0.0005167,0.0
 268772,-0.0280206,-0.0002512,0.0325877,-0.0000523,0.1562757,0.0000197,
 0.0350325,0.000053,0.0596357,0.096493,-0.0002439,0.1083348,0.0000507,-
 0.0202761,0.0001821,0.02505,0.0002883,0.501533,-0.0532373,-0.0000397,0
 .1667896,0.0001594,-0.2017729,-0.0001853,0.064227,-0.0000373,-0.503785
 \Polar=55.7057549,0.0130455,27.7476136,-0.3922297,0.0004498,52.5015752
 \PG=CS [SG(C3H4N2)]\NImag=0\\0.43895287,0.00000527,0.09802713,-0.04867
 208,0.00000971,0.51686947,-0.00307129,-0.00000054,-0.00749148,0.075717
 33,-0.00000087,0.00655956,-0.00000094,0.00000005,0.01044786,-0.0025329
 9,0.00000017,-0.00432968,-0.08962889,0.00000019,0.42363409,-0.03277439
 ,-0.00000159,-0.01408323,0.00652109,0.00000062,-0.00293753,0.68434111,
 -0.00000215,0.01650396,-0.00000594,0.00000019,-0.00702350,-0.00000054,
 -0.00000218,0.10195193,-0.08135351,0.00000021,-0.02063373,0.02646247,-
 0.00000050,-0.00066900,0.15658548,-0.00000241,0.67566243,0.00120036,-0
 .00000302,0.00109357,0.00016541,0.00000064,0.00012852,-0.24086154,0.00
 000041,-0.13198346,0.25534214,0.00000011,0.00648251,-0.00000085,0.0000
 0016,-0.00118610,-0.00000047,-0.00000110,-0.01878022,0.00000004,-0.000
 00023,0.01684535,-0.00399109,-0.00000230,-0.00513199,-0.00095853,0.000
 00055,0.00013241,-0.14193781,0.00000021,-0.15608186,0.14548946,-0.0000
 0027,0.14991572,-0.22123668,-0.00000651,-0.02965876,-0.00786408,0.0000
 0040,-0.00200138,-0.09315432,0.00000865,-0.01436489,0.00467695,0.00000
 099,-0.02085142,0.60218838,-0.00000072,-0.06614784,0.00000105,0.000000
 31,0.00223967,0.00000098,0.00000204,-0.06168712,0.00000113,0.00000173,
 -0.00159612,0.00000140,-0.00000175,0.12410582,-0.04139284,-0.00000084,
 -0.10199405,0.00350882,0.00000047,-0.00004684,-0.03057542,0.00000194,-
 0.34889510,0.00113693,0.00000041,0.00218112,-0.15660858,-0.00000333,0.
 73092285,-0.01968630,-0.00000271,0.01925251,0.00080758,0.00000086,-0.0
 0002221,0.00815417,-0.00000230,-0.00503130,-0.00026955,-0.00000038,0.0
 0064856,-0.18207467,0.00000153,0.13894199,0.19851937,0.00000134,-0.005
 08234,0.00000205,0.00000009,0.00182143,0.00000006,0.00000029,-0.000443
 52,0.00000120,0.00000017,-0.00198177,0.00000014,-0.00000212,-0.0263737
 3,-0.00000259,-0.00000017,0.02131511,-0.00575360,0.00000327,0.01134446
 ,0.00111560,-0.00000086,0.00023547,0.01949413,0.00000129,-0.00836494,-
 0.00047397,0.00000023,-0.00018466,0.14064546,-0.00000091,-0.20487183,-
 0.15044706,0.00000059,0.20563770,-0.00877544,0.00000248,0.00461064,-0.
 00055602,-0.00000081,-0.00044473,0.00084951,0.00000097,-0.00282132,-0.
 00026513,0.00000024,0.00036828,0.00106413,-0.00000027,0.00230525,-0.00
 030560,-0.00000096,-0.00016958,0.34853489,0.00000041,-0.00530993,-0.00
 000005,0.00000021,-0.00118975,0.00000012,-0.00000139,0.00244768,-0.000
 00021,0.00000030,0.00172226,0.00000014,0.00000273,0.00634864,-0.000002
 08,-0.00000209,0.00115138,0.00000198,0.00000166,0.01869454,0.02776337,
 0.00000015,0.00008755,0.00052109,0.00000014,0.00027403,-0.00104957,-0.
 00000085,-0.00551686,-0.00098445,-0.00000019,0.00098560,0.00286000,0.0
 0000041,-0.00408253,0.00129071,0.00000045,0.00063471,-0.03704822,-0.00
 000037,0.05846553,-0.15046620,0.00000505,0.09904983,0.01701750,-0.0000
 0049,0.01336119,-0.08928945,-0.00000312,0.00305868,-0.00296739,0.00000
 017,0.00395546,-0.08731968,-0.00000203,0.01592297,-0.00561195,0.000001
 08,-0.00325155,-0.32797106,-0.00000175,0.03459934,0.83050750,-0.000006
 52,-0.07124206,-0.00001327,0.00000062,-0.00839799,-0.00000044,0.000000
 89,0.01566031,-0.00000246,0.00000258,0.00256325,0.00000200,0.00001302,
 0.01013819,0.00000286,0.00000051,0.00496535,-0.00000200,-0.00000155,-0
 .02156873,-0.00000076,-0.00000743,0.12219150,0.12426360,-0.00000583,-0
 .29591333,-0.01514858,-0.00000012,-0.00993494,-0.04377808,0.00000829,-
 0.00760802,0.00326766,0.00000237,-0.00539531,0.06903250,-0.00000281,-0
 .00430077,-0.00172305,-0.00000224,0.00053953,0.02987028,0.00000251,-0.
 05741520,-0.08322382,0.00001050,0.56195797,-0.00414294,0.00000158,-0.0
 2410099,-0.08873754,-0.00000040,0.08407803,-0.24378625,-0.00000047,0.0
 4944780,-0.01702120,0.00000005,0.01727712,-0.01628007,-0.00000083,0.06
 676091,0.00046698,0.00000028,-0.00115946,-0.01257522,-0.00000009,-0.02
 795228,-0.18389931,-0.00000212,-0.08256050,0.56597556,0.00000310,0.020
 20899,0.00000825,-0.00000108,-0.00327117,-0.00000007,0.00000241,-0.048
 62951,0.00000301,-0.00000258,-0.00406916,-0.00000186,-0.00001538,0.012
 97252,0.00000316,0.00000476,0.00462810,-0.00000359,-0.00000176,-0.0022
 9609,0.00000102,0.00000853,-0.05430982,-0.00001268,0.00000201,0.074766
 15,0.03166916,-0.00000453,-0.10029872,0.08161949,0.00000106,-0.4092955
 0,0.05828201,-0.00000197,-0.12789295,-0.01767424,-0.00000127,0.0135789
 9,0.01094710,0.00000209,-0.06891289,-0.00291018,0.00000035,-0.00497041
 ,0.00332937,-0.00000204,0.00656718,-0.08347214,0.00000357,-0.18192993,
 -0.08179060,0.00000276,0.87315424\\-0.00043968,0.,-0.00015188,0.000026
 69,0.,-0.00000630,-0.00037062,0.,0.00026991,0.00005669,0.,-0.00000960,
 0.00042741,0.,0.00004328,-0.00003698,0.,-0.00004705,-0.00007020,0.,0.0
 0000469,0.00044190,0.,0.00024713,-0.00003521,0.,-0.00035018\\\@


 NEVER LISTEN TO CRITICISM
 OR YOU'LL BE DOIN' EVERYBODY ELSE'S THING BUT BUT YOUR OWN.

                                               -- ANDY CAPP
 Job cpu time:  0 days  3 hours 24 minutes 24.8 seconds.
 File lengths (MBytes):  RWF=   45 Int=    0 D2E=    0 Chk=    5 Scr=    1
 Normal termination of Gaussian 98.
