 Entering Gaussian System, Link 0=g98
 Initial command:
 /usr/local/apps/g98/g98/l1.exe /wrk/Gau-14926.inp -scrdir=/wrk/
 Entering Link 1 = /usr/local/apps/g98/g98/l1.exe PID=     18788.
  
 Copyright (c) 1988,1990,1992,1993,1995,1998 Gaussian, Inc.
                  All Rights Reserved.
  
 This is part of the Gaussian(R) 98 program.  It is based on
 the Gaussian 94(TM) system (copyright 1995 Gaussian, Inc.),
 the Gaussian 92(TM) system (copyright 1992 Gaussian, Inc.),
 the Gaussian 90(TM) system (copyright 1990 Gaussian, Inc.),
 the Gaussian 88(TM) system (copyright 1988 Gaussian, Inc.),
 the Gaussian 86(TM) system (copyright 1986 Carnegie Mellon
 University), and the Gaussian 82(TM) system (copyright 1983
 Carnegie Mellon University). Gaussian is a federally registered
 trademark of Gaussian, Inc.
  
 This software contains proprietary and confidential information,
 including trade secrets, belonging to Gaussian, Inc.
  
 This software is provided under written license and may be
 used, copied, transmitted, or stored only in accord with that
 written license.
  
 The following legend is applicable only to US Government
 contracts under DFARS:
  
                    RESTRICTED RIGHTS LEGEND
  
 Use, duplication or disclosure by the US Government is subject
 to restrictions as set forth in subparagraph (c)(1)(ii) of the
 Rights in Technical Data and Computer Software clause at DFARS
 252.227-7013.
  
 Gaussian, Inc.
 Carnegie Office Park, Building 6, Pittsburgh, PA 15106 USA
  
 The following legend is applicable only to US Government
 contracts under FAR:
  
                    RESTRICTED RIGHTS LEGEND
  
 Use, reproduction and disclosure by the US Government is subject
 to restrictions as set forth in subparagraph (c) of the
 Commercial Computer Software - Restricted Rights clause at FAR
 52.227-19.
  
 Gaussian, Inc.
 Carnegie Office Park, Building 6, Pittsburgh, PA 15106 USA
  
  
 ---------------------------------------------------------------
 Warning -- This program may not be used in any manner that
 competes with the business of Gaussian, Inc. or will provide
 assistance to any competitor of Gaussian, Inc.  The licensee
 of this program is prohibited from giving any competitor of
 Gaussian, Inc. access to this program.  By using this program,
 the user acknowledges that Gaussian, Inc. is engaged in the
 business of creating and licensing software in the field of
 computational chemistry and represents and warrants to the
 licensee that it is not a competitor of Gaussian, Inc. and that
 it will not use this program in any manner prohibited above.
 ---------------------------------------------------------------
  

 Cite this work as:
 Gaussian 98, Revision A.7,
 M. J. Frisch, G. W. Trucks, H. B. Schlegel, G. E. Scuseria, 
 M. A. Robb, J. R. Cheeseman, V. G. Zakrzewski, J. A. Montgomery, Jr., 
 R. E. Stratmann, J. C. Burant, S. Dapprich, J. M. Millam, 
 A. D. Daniels, K. N. Kudin, M. C. Strain, O. Farkas, J. Tomasi, 
 V. Barone, M. Cossi, R. Cammi, B. Mennucci, C. Pomelli, C. Adamo, 
 S. Clifford, J. Ochterski, G. A. Petersson, P. Y. Ayala, Q. Cui, 
 K. Morokuma, D. K. Malick, A. D. Rabuck, K. Raghavachari, 
 J. B. Foresman, J. Cioslowski, J. V. Ortiz, A. G. Baboul, 
 B. B. Stefanov, G. Liu, A. Liashenko, P. Piskorz, I. Komaromi, 
 R. Gomperts, R. L. Martin, D. J. Fox, T. Keith, M. A. Al-Laham, 
 C. Y. Peng, A. Nanayakkara, C. Gonzalez, M. Challacombe, 
 P. M. W. Gill, B. Johnson, W. Chen, M. W. Wong, J. L. Andres, 
 C. Gonzalez, M. Head-Gordon, E. S. Replogle, and J. A. Pople, 
 Gaussian, Inc., Pittsburgh PA, 1998.

 **********************************************
 Gaussian 98:  IBM-RS6000-G98RevA.7 11-Apr-1999
                  16-May-2000 
 **********************************************
 %mem=24000000
 --------------------
 #BLYP/6-31G opt freq
 --------------------
 1/14=-1,18=20,26=3,38=1/1,3;
 2/9=110,17=6,18=5/2;
 3/5=1,6=6,11=2,25=1,30=1/1,2,3;
 4//1;
 5/5=2,38=4,42=402/2;
 6/7=2,8=2,9=2,10=2,28=1/1;
 7//1,2,3,16;
 1/14=-1,18=20/3(1);
 99//99;
 2/9=110/2;
 3/5=1,6=6,11=2,25=1,30=1/1,2,3;
 4/5=5,16=2/1;
 5/5=2,38=4,42=402/2;
 7//1,2,3,16;
 1/14=-1,18=20/3(-5);
 2/9=110/2;
 6/7=2,8=2,9=2,10=2,19=2,28=1/1;
 99/9=1/99;
 --------------------------------
 1H imidazole C3H4N2 casno=288324
 --------------------------------
 Symbolic Z-matrix:
 Charge =  0 Multiplicity = 1
 N                     0.30938   0.        1.30938 
 H                     0.3125    0.       -1.6875 
 C                    -1.06875   0.       -0.28438 
 H                    -1.91875   0.       -0.79063 
 C                    -0.93438   0.        1.02812 
 H                    -1.675     0.        1.6875 
 H                     1.91875   0.        0.09063 
 C                     0.93438   0.        0.19063 
 N                     0.09688   0.       -0.775 

 GradGradGradGradGradGradGradGradGradGradGradGradGradGradGradGradGradGrad
 Berny optimization.
 Initialization pass.
                         ----------------------------
                         !    Initial Parameters    !
                         ! (Angstroms and Degrees)  !
 ------------------------                            -------------------------
 ! Name  Definition              Value          Derivative Info.             !
 -----------------------------------------------------------------------------
 ! R1    R(1,5)                  1.2752         estimate D2E/DX2             !
 ! R2    R(1,8)                  1.2815         estimate D2E/DX2             !
 ! R3    R(2,9)                  0.9376         estimate D2E/DX2             !
 ! R4    R(3,4)                  0.9893         estimate D2E/DX2             !
 ! R5    R(3,5)                  1.3194         estimate D2E/DX2             !
 ! R6    R(3,9)                  1.2647         estimate D2E/DX2             !
 ! R7    R(5,6)                  0.9916         estimate D2E/DX2             !
 ! R8    R(7,8)                  0.9894         estimate D2E/DX2             !
 ! R9    R(8,9)                  1.2782         estimate D2E/DX2             !
 ! A1    A(5,1,8)              106.4483         estimate D2E/DX2             !
 ! A2    A(4,3,5)              126.6232         estimate D2E/DX2             !
 ! A3    A(4,3,9)              126.3957         estimate D2E/DX2             !
 ! A4    A(5,3,9)              106.9812         estimate D2E/DX2             !
 ! A5    A(1,5,3)              108.5877         estimate D2E/DX2             !
 ! A6    A(1,5,6)              125.5794         estimate D2E/DX2             !
 ! A7    A(3,5,6)              125.8329         estimate D2E/DX2             !
 ! A8    A(1,8,7)              124.9909         estimate D2E/DX2             !
 ! A9    A(1,8,9)              109.8741         estimate D2E/DX2             !
 ! A10   A(7,8,9)              125.1349         estimate D2E/DX2             !
 ! A11   A(2,9,3)              126.122          estimate D2E/DX2             !
 ! A12   A(2,9,8)              125.7693         estimate D2E/DX2             !
 ! A13   A(3,9,8)              108.1088         estimate D2E/DX2             !
 ! D1    D(8,1,5,3)              0.             estimate D2E/DX2             !
 ! D2    D(8,1,5,6)            180.             estimate D2E/DX2             !
 ! D3    D(5,1,8,7)            180.             estimate D2E/DX2             !
 ! D4    D(5,1,8,9)              0.             estimate D2E/DX2             !
 ! D5    D(4,3,5,1)            180.             estimate D2E/DX2             !
 ! D6    D(4,3,5,6)              0.             estimate D2E/DX2             !
 ! D7    D(9,3,5,1)              0.             estimate D2E/DX2             !
 ! D8    D(9,3,5,6)            180.             estimate D2E/DX2             !
 ! D9    D(4,3,9,2)              0.             estimate D2E/DX2             !
 ! D10   D(4,3,9,8)            180.             estimate D2E/DX2             !
 ! D11   D(5,3,9,2)            180.             estimate D2E/DX2             !
 ! D12   D(5,3,9,8)              0.             estimate D2E/DX2             !
 ! D13   D(1,8,9,2)            180.             estimate D2E/DX2             !
 ! D14   D(1,8,9,3)              0.             estimate D2E/DX2             !
 ! D15   D(7,8,9,2)              0.             estimate D2E/DX2             !
 ! D16   D(7,8,9,3)            180.             estimate D2E/DX2             !
 -----------------------------------------------------------------------------
 Trust Radius=3.00D-01 FncErr=1.00D-07 GrdErr=1.00D-06
 Number of steps in this run=  48 maximum allowed number of steps= 100.
 GradGradGradGradGradGradGradGradGradGradGradGradGradGradGradGradGradGrad

                          Input orientation:                          
 ---------------------------------------------------------------------
 Center     Atomic     Atomic              Coordinates (Angstroms)
 Number     Number      Type              X           Y           Z
 ---------------------------------------------------------------------
    1          7             0         .309375     .000000    1.309375
    2          1             0         .312500     .000000   -1.687500
    3          6             0       -1.068750     .000000    -.284375
    4          1             0       -1.918750     .000000    -.790625
    5          6             0        -.934375     .000000    1.028125
    6          1             0       -1.675000     .000000    1.687500
    7          1             0        1.918750     .000000     .090625
    8          6             0         .934375     .000000     .190625
    9          7             0         .096875     .000000    -.775000
 ---------------------------------------------------------------------
                    Distance matrix (angstroms):
                    1          2          3          4          5
     1  N     .000000
     2  H    2.996877    .000000
     3  C    2.106957   1.968911    .000000
     4  H    3.061787   2.404758    .989338    .000000
     5  C    1.275153   2.988196   1.319361   2.068054    .000000
     6  H    2.020080   3.916731   2.062966   2.490084    .991615
     7  H    2.018772   2.396199   3.010944   3.937386   3.003203
     8  C    1.281494   1.978404   2.058673   3.017147   2.047836
     9  N    2.095179    .937630   1.264672   2.015686   2.077194
                    6          7          8          9
     6  H     .000000
     7  H    3.932563    .000000
     8  C    3.008234    .989441    .000000
     9  N    3.033718   2.017061   1.278217    .000000
 Stoichiometry    C3H4N2
 Framework group  CS[SG(C3H4N2)]
 Deg. of freedom   15
 Full point group                 CS      NOp   2
 Largest Abelian subgroup         CS      NOp   2
 Largest concise Abelian subgroup C1      NOp   1
                         Standard orientation:                         
 ---------------------------------------------------------------------
 Center     Atomic     Atomic              Coordinates (Angstroms)
 Number     Number      Type              X           Y           Z
 ---------------------------------------------------------------------
    1          7             0        -.674969    -.941702     .000000
    2          1             0        -.005288    1.979393     .000000
    3          6             0        1.025744     .302019     .000000
    4          1             0        1.967693     .604544     .000000
    5          6             0         .600174    -.946822     .000000
    6          1             0        1.173884   -1.755622     .000000
    7          1             0       -1.969692     .607211     .000000
    8          6             0       -1.032886     .288794     .000000
    9          7             0         .000000    1.041778     .000000
 ---------------------------------------------------------------------
 Rotational constants (GHZ):     11.1543393     10.4769603      5.4025219
 Isotopes: N-14,H-1,C-12,H-1,C-12,H-1,H-1,C-12,N-14
 Standard basis: 6-31G (6D, 7F)
 There are    43 symmetry adapted basis functions of A'  symmetry.
 There are    10 symmetry adapted basis functions of A"  symmetry.
 Crude estimate of integral set expansion from redundant integrals=1.000.
 Integral buffers will be    262144 words long.
 Raffenetti 2 integral format.
 Two-electron integral symmetry is turned on.
    53 basis functions      126 primitive gaussians
    18 alpha electrons       18 beta electrons
       nuclear repulsion energy       173.5664837334 Hartrees.
 One-electron integrals computed using PRISM.
 NBasis=    53 RedAO= T  NBF=    43    10
 NBsUse=    53 1.00D-04 NBFU=    43    10
 Projected INDO Guess.
 Initial guess orbital symmetries:
       Occupied  (A') (A') (A') (A') (A') (A') (A') (A') (A') (A')
                 (A') (A") (A') (A') (A') (A") (A') (A")
       Virtual   (A") (A') (A') (A") (A') (A') (A') (A') (A') (A')
                 (A') (A') (A') (A') (A') (A') (A') (A') (A') (A')
                 (A') (A') (A') (A') (A') (A') (A') (A') (A') (A')
                 (A") (A") (A") (A") (A")
 Requested convergence on RMS density matrix=1.00D-08 within  64 cycles.
 Requested convergence on MAX density matrix=1.00D-06.
 Keep R1 and R2 integrals in memory in canonical form, NReq=     2463126.
 Integral accuracy reduced to 1.0D-05 until final iterations.
 Initial convergence to 1.0D-05 achieved.  Increase integral accuracy.
 SCF Done:  E(RB-LYP) =  -225.978852334     A.U. after   16 cycles
             Convg  =     .7522D-08             -V/T =  1.9964
             S**2   =    .0000

 **********************************************************************

            Population analysis using the SCF density.

 **********************************************************************

 Orbital Symmetries:
       Occupied  (A') (A') (A') (A') (A') (A') (A') (A') (A') (A')
                 (A') (A") (A') (A') (A') (A") (A") (A')
       Virtual   (A") (A') (A") (A') (A') (A') (A') (A') (A') (A')
                 (A') (A") (A') (A") (A") (A') (A') (A') (A') (A")
                 (A') (A") (A') (A') (A') (A') (A') (A') (A') (A')
                 (A') (A') (A') (A') (A')
  The electronic state is 1-A'.
 Alpha  occ. eigenvalues --  -14.07210 -13.97642  -9.94104  -9.91608  -9.89531
 Alpha  occ. eigenvalues --    -.99443   -.82559   -.69048   -.58701   -.54939
 Alpha  occ. eigenvalues --    -.52661   -.41247   -.41056   -.38859   -.37033
 Alpha  occ. eigenvalues --    -.25173   -.19075   -.18002
 Alpha virt. eigenvalues --     .03073    .06125    .07538    .13890    .15667
 Alpha virt. eigenvalues --     .17632    .23937    .24407    .30417    .33080
 Alpha virt. eigenvalues --     .47340    .49098    .51142    .55044    .59291
 Alpha virt. eigenvalues --     .61134    .63086    .66597    .68895    .71241
 Alpha virt. eigenvalues --     .71857    .80230    .82055    .84232    .84675
 Alpha virt. eigenvalues --     .88527    .92085    .97458   1.03550   1.05130
 Alpha virt. eigenvalues --    1.25069   1.30069   1.37559   1.59031   1.71836
          Condensed to atoms (all electrons):
              1          2          3          4          5          6
  1  N    6.538056    .010628   -.118772    .012076    .506259   -.047657
  2  H     .010628    .448964   -.036494   -.001695    .012656   -.000016
  3  C    -.118772   -.036494   5.083898    .327123    .532932   -.094738
  4  H     .012076   -.001695    .327123    .640237   -.024398    .000609
  5  C     .506259    .012656    .532932   -.024398   4.853399    .376868
  6  H    -.047657   -.000016   -.094738    .000609    .376868    .662904
  7  H    -.037274    .000993    .004680   -.000278    .010914   -.000287
  8  C     .575250   -.015697   -.162568    .010393   -.161504    .013092
  9  N    -.133009    .296221    .347589   -.065771   -.061693    .007253
              7          8          9
  1  N    -.037274    .575250   -.133009
  2  H     .000993   -.015697    .296221
  3  C     .004680   -.162568    .347589
  4  H    -.000278    .010393   -.065771
  5  C     .010914   -.161504   -.061693
  6  H    -.000287    .013092    .007253
  7  H     .619493    .373912   -.084413
  8  C     .373912   4.877019    .303733
  9  N    -.084413    .303733   6.922196
 Total atomic charges:
              1
  1  N    -.305557
  2  H     .284441
  3  C     .116350
  4  H     .101704
  5  C    -.045434
  6  H     .081972
  7  H     .112261
  8  C     .186369
  9  N    -.532105
 Sum of Mulliken charges=    .00000
 Atomic charges with hydrogens summed into heavy atoms:
              1
  1  N    -.305557
  2  H     .000000
  3  C     .218054
  4  H     .000000
  5  C     .036538
  6  H     .000000
  7  H     .000000
  8  C     .298629
  9  N    -.247664
 Sum of Mulliken charges=    .00000
 Electronic spatial extent (au):  <R**2>=   258.8805
 Charge=      .0000 electrons
 Dipole moment (Debye):
    X=     1.2570    Y=     3.8095    Z=      .0000  Tot=     4.0116
 Quadrupole moment (Debye-Ang):
   XX=   -27.3111   YY=   -25.9752   ZZ=   -29.9749
   XY=    -3.1385   XZ=      .0000   YZ=      .0000
 Octapole moment (Debye-Ang**2):
  XXX=      .7311  YYY=    15.6854  ZZZ=      .0000  XYY=     4.7302
  XXY=     4.9192  XXZ=      .0000  XZZ=     -.5659  YZZ=     1.0494
  YYZ=      .0000  XYZ=      .0000
 Hexadecapole moment (Debye-Ang**3):
 XXXX=  -141.6902 YYYY=  -129.8464 ZZZZ=   -28.0554 XXXY=    -2.1503
 XXXZ=      .0000 YYYX=    -6.1932 YYYZ=      .0000 ZZZX=      .0000
 ZZZY=      .0000 XXYY=   -52.0859 XXZZ=   -32.7027 YYZZ=   -30.9483
 XXYZ=      .0000 YYXZ=      .0000 ZZXY=      .7409
 N-N= 1.735664837334D+02 E-N=-8.745750132404D+02  KE= 2.267882325095D+02
 Symmetry A'   KE= 2.183879600208D+02
 Symmetry A"   KE= 8.400272488674D+00
 ***** Axes restored to original set *****
 -------------------------------------------------------------------
 Center     Atomic                   Forces (Hartrees/Bohr)
 Number     Number              X              Y              Z
 -------------------------------------------------------------------
    1          7            .093522662     .000000000     .115557067
    2          1            .019834606     .000000000    -.084625860
    3          6           -.104195178     .000000000     .006429534
    4          1           -.071154691     .000000000    -.050963702
    5          6           -.058865625     .000000000     .003349105
    6          1           -.060984259     .000000000     .060834588
    7          1            .086704965     .000000000    -.010790873
    8          6            .058940087     .000000000     .038051478
    9          7            .036197433     .000000000    -.077841337
 -------------------------------------------------------------------
 Cartesian Forces:  Max      .115557067 RMS      .054103813

 GradGradGradGradGradGradGradGradGradGradGradGradGradGradGradGradGradGrad
 Berny optimization.
 Internal  Forces:  Max      .160877246 RMS      .055827300
 Search for a local minimum.
 Step number   1 out of a maximum of  48
 All quantities printed in internal units (Hartrees-Bohrs-Radians)
 Second derivative matrix not updated -- first step.
     Eigenvalues ---     .03211    .03261    .03288    .03318    .03352
     Eigenvalues ---     .03407    .16000    .16000    .16000    .16000
     Eigenvalues ---     .22000    .22917    .49193    .49594    .49613
     Eigenvalues ---     .54578    .60577    .63413    .68379    .73836
     Eigenvalues ---     .765081000.000001000.000001000.000001000.00000
     Eigenvalues --- 1000.000001000.000001000.000001000.000001000.00000
     Eigenvalues --- 1000.000001000.000001000.000001000.000001000.00000
     Eigenvalues --- 1000.000001000.000001000.00000
 RFO step:  Lambda=-1.46420971D-01.
 Linear search not attempted -- first point.
 Maximum step size (    .300) exceeded in Quadratic search.
    -- Step size scaled by    .696
 Iteration  1 RMS(Cart)=   .06687450 RMS(Int)=   .00030688
 Iteration  2 RMS(Cart)=   .00035648 RMS(Int)=   .00007083
 Iteration  3 RMS(Cart)=   .00000014 RMS(Int)=   .00007083
 Variable       Old X    -DE/DX   Delta X   Delta X   Delta X     New X
                                 (Linear)    (Quad)   (Total)
    R1        2.40969    .14913    .00000    .11415    .11410   2.52379
    R2        2.42167    .09341    .00000    .07350    .07337   2.49504
    R3        1.77186    .08692    .00000    .08041    .08041   1.85227
    R4        1.86958    .08721    .00000    .09444    .09444   1.96402
    R5        2.49323    .10322    .00000    .09324    .09333   2.58656
    R6        2.38988    .16088    .00000    .12266    .12277   2.51266
    R7        1.87388    .08600    .00000    .09374    .09374   1.96762
    R8        1.86977    .08735    .00000    .09462    .09462   1.96439
    R9        2.41548    .14192    .00000    .11338    .11336   2.52884
    A1        1.85787    .00745    .00000    .00483    .00460   1.86247
    A2        2.20999    .01357    .00000    .02621    .02611   2.23610
    A3        2.20602   -.00022    .00000   -.00509   -.00520   2.20083
    A4        1.86717   -.01336    .00000   -.02112   -.02091   1.84626
    A5        1.89521    .00876    .00000    .01220    .01224   1.90745
    A6        2.19177   -.00896    .00000   -.01650   -.01652   2.17526
    A7        2.19620    .00020    .00000    .00430    .00428   2.20048
    A8        2.18150    .00378    .00000    .00703    .00709   2.18859
    A9        1.91767   -.00386    .00000   -.00567   -.00579   1.91188
   A10        2.18402    .00008    .00000   -.00136   -.00130   2.18272
   A11        2.20124   -.00065    .00000   -.00520   -.00525   2.19599
   A12        2.19509   -.00037    .00000   -.00456   -.00461   2.19048
   A13        1.88685    .00101    .00000    .00976    .00986   1.89671
    D1         .00000    .00000    .00000    .00000    .00000    .00000
    D2        3.14159    .00000    .00000    .00000    .00000   3.14159
    D3        3.14159    .00000    .00000    .00000    .00000   3.14159
    D4         .00000    .00000    .00000    .00000    .00000    .00000
    D5        3.14159    .00000    .00000    .00000    .00000   3.14159
    D6         .00000    .00000    .00000    .00000    .00000    .00000
    D7         .00000    .00000    .00000    .00000    .00000    .00000
    D8        3.14159    .00000    .00000    .00000    .00000   3.14159
    D9         .00000    .00000    .00000    .00000    .00000    .00000
   D10        3.14159    .00000    .00000    .00000    .00000   3.14159
   D11        3.14159    .00000    .00000    .00000    .00000   3.14159
   D12         .00000    .00000    .00000    .00000    .00000    .00000
   D13        3.14159    .00000    .00000    .00000    .00000   3.14159
   D14         .00000    .00000    .00000    .00000    .00000    .00000
   D15         .00000    .00000    .00000    .00000    .00000    .00000
   D16        3.14159    .00000    .00000    .00000    .00000   3.14159
         Item               Value     Threshold  Converged?
 Maximum Force             .160877      .000450     NO 
 RMS     Force             .055827      .000300     NO 
 Maximum Displacement      .194327      .001800     NO 
 RMS     Displacement      .066855      .001200     NO 
 Predicted change in Energy=-2.885872D-02
 GradGradGradGradGradGradGradGradGradGradGradGradGradGradGradGradGradGrad

                          Input orientation:                          
 ---------------------------------------------------------------------
 Center     Atomic     Atomic              Coordinates (Angstroms)
 Number     Number      Type              X           Y           Z
 ---------------------------------------------------------------------
    1          7             0         .476054     .000000    1.113401
    2          1             0         .474348     .000000   -1.999301
    3          6             0        -.983504     .000000    -.540234
    4          1             0       -1.869262     .000000   -1.083931
    5          6             0        -.826739     .000000     .819507
    6          1             0       -1.592507     .000000    1.525015
    7          1             0        2.158562     .000000    -.144769
    8          6             0        1.124692     .000000    -.036605
    9          7             0         .246168     .000000   -1.046051
 ---------------------------------------------------------------------
                    Distance matrix (angstroms):
                    1          2          3          4          5
     1  N     .000000
     2  H    3.112702    .000000
     3  C    2.205633   2.062574    .000000
     4  H    3.213841   2.516030   1.039314    .000000
     5  C    1.335530   3.104594   1.368748   2.170238    .000000
     6  H    2.109116   4.085669   2.153169   2.623584   1.041221
     7  H    2.100911   2.505168   3.166856   4.135867   3.137172
     8  C    1.320320   2.067637   2.167518   3.171853   2.130965
     9  N    2.171654    .980179   1.329641   2.115769   2.152078
                    6          7          8          9
     6  H     .000000
     7  H    4.105935    .000000
     8  C    3.133979   1.039513    .000000
     9  N    3.160871   2.114134   1.338202    .000000
 Stoichiometry    C3H4N2
 Framework group  CS[SG(C3H4N2)]
 Deg. of freedom   15
 Full point group                 CS      NOp   2
 Largest Abelian subgroup         CS      NOp   2
 Largest concise Abelian subgroup C1      NOp   1
                         Standard orientation:                         
 ---------------------------------------------------------------------
 Center     Atomic     Atomic              Coordinates (Angstroms)
 Number     Number      Type              X           Y           Z
 ---------------------------------------------------------------------
    1          7             0        -.709911    -.972358     .000000
    2          1             0        -.007827    2.060131     .000000
    3          6             0        1.084317     .310437     .000000
    4          1             0        2.069702     .640877     .000000
    5          6             0         .625602    -.979157     .000000
    6          1             0        1.212978   -1.838884     .000000
    7          1             0       -2.066156     .632144     .000000
    8          6             0       -1.083139     .294112     .000000
    9          7             0         .000000    1.079984     .000000
 ---------------------------------------------------------------------
 Rotational constants (GHZ):     10.1109912      9.7600258      4.9662046
 Isotopes: N-14,H-1,C-12,H-1,C-12,H-1,H-1,C-12,N-14
 Standard basis: 6-31G (6D, 7F)
 There are    43 symmetry adapted basis functions of A'  symmetry.
 There are    10 symmetry adapted basis functions of A"  symmetry.
 Crude estimate of integral set expansion from redundant integrals=1.000.
 Integral buffers will be    262144 words long.
 Raffenetti 2 integral format.
 Two-electron integral symmetry is turned on.
    53 basis functions      126 primitive gaussians
    18 alpha electrons       18 beta electrons
       nuclear repulsion energy       166.3383697258 Hartrees.
 One-electron integrals computed using PRISM.
 NBasis=    53 RedAO= T  NBF=    43    10
 NBsUse=    53 1.00D-04 NBFU=    43    10
 Initial guess read from the read-write file:
 Initial guess orbital symmetries:
       Occupied  (A') (A') (A') (A') (A') (A') (A') (A') (A') (A')
                 (A') (A") (A') (A') (A') (A") (A") (A')
       Virtual   (A") (A') (A") (A') (A') (A') (A') (A') (A') (A')
                 (A') (A") (A') (A") (A") (A') (A') (A') (A') (A")
                 (A') (A") (A') (A') (A') (A') (A') (A') (A') (A')
                 (A') (A') (A') (A') (A')
 Requested convergence on RMS density matrix=1.00D-08 within  64 cycles.
 Requested convergence on MAX density matrix=1.00D-06.
 Keep R1 and R2 integrals in memory in canonical form, NReq=     2463126.
 Integral accuracy reduced to 1.0D-05 until final iterations.
 Initial convergence to 1.0D-05 achieved.  Increase integral accuracy.
 SCF Done:  E(RB-LYP) =  -226.048532814     A.U. after   14 cycles
             Convg  =     .8641D-08             -V/T =  2.0019
             S**2   =    .0000
 ***** Axes restored to original set *****
 -------------------------------------------------------------------
 Center     Atomic                   Forces (Hartrees/Bohr)
 Number     Number              X              Y              Z
 -------------------------------------------------------------------
    1          7            .043145364     .000000000     .050179794
    2          1            .007539654     .000000000    -.034220504
    3          6           -.043863980     .000000000     .016030617
    4          1           -.026768261     .000000000    -.023962395
    5          6           -.025966265     .000000000    -.011612626
    6          1           -.022465018     .000000000     .026816339
    7          1            .034539469     .000000000    -.005552603
    8          6            .015363212     .000000000     .020485057
    9          7            .018475826     .000000000    -.038163679
 -------------------------------------------------------------------
 Cartesian Forces:  Max      .050179794 RMS      .023404160

 GradGradGradGradGradGradGradGradGradGradGradGradGradGradGradGradGradGrad
 Berny optimization.
 Internal  Forces:  Max      .065657204 RMS      .022339238
 Search for a local minimum.
 Step number   2 out of a maximum of  48
 All quantities printed in internal units (Hartrees-Bohrs-Radians)
 Update second derivatives using information from points  1  2
 Trust test= 2.41D+00 RLast= 3.00D-01 DXMaxT set to 4.24D-01
     Eigenvalues ---     .03210    .03262    .03288    .03315    .03352
     Eigenvalues ---     .03406    .15939    .16000    .16000    .16000
     Eigenvalues ---     .22114    .22858    .49305    .49603    .50940
     Eigenvalues ---     .55754    .60906    .64026    .70248    .73536
     Eigenvalues ---     .763341000.000001000.000001000.000001000.00000
     Eigenvalues --- 1000.000001000.000001000.000001000.000001000.00000
     Eigenvalues --- 1000.000001000.000001000.000001000.000001000.00000
     Eigenvalues --- 1000.000001000.000001000.00000
 RFO step:  Lambda=-2.79506308D-03.
 Quartic linear search produced a step of   .90837.
 Iteration  1 RMS(Cart)=   .06273801 RMS(Int)=   .00114584
 Iteration  2 RMS(Cart)=   .00137352 RMS(Int)=   .00008746
 Iteration  3 RMS(Cart)=   .00000220 RMS(Int)=   .00008744
 Iteration  4 RMS(Cart)=   .00000000 RMS(Int)=   .00008744
 Variable       Old X    -DE/DX   Delta X   Delta X   Delta X     New X
                                 (Linear)    (Quad)   (Total)
    R1        2.52379    .06182    .10364    .00386    .10738   2.63117
    R2        2.49504    .03466    .06665   -.00728    .05924   2.55429
    R3        1.85227    .03504    .07304    .00361    .07665   1.92892
    R4        1.96402    .03535    .08579    .00972    .09551   2.05953
    R5        2.58656    .03553    .08478   -.01549    .06933   2.65589
    R6        2.51266    .06566    .11153    .00172    .11340   2.62605
    R7        1.96762    .03469    .08515    .00923    .09438   2.06201
    R8        1.96439    .03493    .08595    .00793    .09388   2.05827
    R9        2.52884    .05687    .10297    .00044    .10345   2.63229
    A1        1.86247   -.00137    .00418   -.03502   -.03115   1.83132
    A2        2.23610    .00832    .02372    .05094    .07456   2.31066
    A3        2.20083   -.00429   -.00472   -.05265   -.05747   2.14335
    A4        1.84626   -.00403   -.01900    .00170   -.01708   1.82918
    A5        1.90745    .00603    .01112    .02250    .03358   1.94103
    A6        2.17526   -.00744   -.01500   -.04846   -.06344   2.11182
    A7        2.20048    .00141    .00389    .02595    .02986   2.23034
    A8        2.18859    .00062    .00644   -.00087    .00559   2.19418
    A9        1.91188    .00255   -.00526    .03429    .02897   1.94085
   A10        2.18272   -.00317   -.00118   -.03342   -.03457   2.14815
   A11        2.19599    .00100   -.00477    .00532    .00045   2.19644
   A12        2.19048    .00217   -.00419    .01815    .01387   2.20435
   A13        1.89671   -.00318    .00896   -.02347   -.01432   1.88240
    D1         .00000    .00000    .00000    .00000    .00000    .00000
    D2        3.14159    .00000    .00000    .00000    .00000   3.14159
    D3        3.14159    .00000    .00000    .00000    .00000   3.14159
    D4         .00000    .00000    .00000    .00000    .00000    .00000
    D5        3.14159    .00000    .00000    .00000    .00000   3.14159
    D6         .00000    .00000    .00000    .00000    .00000    .00000
    D7         .00000    .00000    .00000    .00000    .00000    .00000
    D8        3.14159    .00000    .00000    .00000    .00000   3.14159
    D9         .00000    .00000    .00000    .00000    .00000    .00000
   D10        3.14159    .00000    .00000    .00000    .00000   3.14159
   D11        3.14159    .00000    .00000    .00000    .00000   3.14159
   D12         .00000    .00000    .00000    .00000    .00000    .00000
   D13        3.14159    .00000    .00000    .00000    .00000   3.14159
   D14         .00000    .00000    .00000    .00000    .00000    .00000
   D15         .00000    .00000    .00000    .00000    .00000    .00000
   D16        3.14159    .00000    .00000    .00000    .00000   3.14159
         Item               Value     Threshold  Converged?
 Maximum Force             .065657      .000450     NO 
 RMS     Force             .022339      .000300     NO 
 Maximum Displacement      .178572      .001800     NO 
 RMS     Displacement      .062567      .001200     NO 
 Predicted change in Energy=-2.665201D-02
 GradGradGradGradGradGradGradGradGradGradGradGradGradGradGradGradGradGrad

                          Input orientation:                          
 ---------------------------------------------------------------------
 Center     Atomic     Atomic              Coordinates (Angstroms)
 Number     Number      Type              X           Y           Z
 ---------------------------------------------------------------------
    1          7             0         .500831     .000000    1.167254
    2          1             0         .488444     .000000   -2.075988
    3          6             0       -1.035803     .000000    -.555765
    4          1             0       -1.929938     .000000   -1.178908
    5          6             0        -.851935     .000000     .837592
    6          1             0       -1.619373     .000000    1.613276
    7          1             0        2.229188     .000000    -.153759
    8          6             0        1.148335     .000000    -.019232
    9          7             0         .249716     .000000   -1.083556
 ---------------------------------------------------------------------
                    Distance matrix (angstroms):
                    1          2          3          4          5
     1  N     .000000
     2  H    3.243265    .000000
     3  C    2.308688   2.152767    .000000
     4  H    3.378330   2.579403   1.089855    .000000
     5  C    1.392356   3.207111   1.405436   2.286561    .000000
     6  H    2.166611   4.248948   2.246173   2.809402   1.091168
     7  H    2.175383   2.593290   3.289646   4.283603   3.236680
     8  C    1.351670   2.160023   2.249073   3.289470   2.176058
     9  N    2.264775   1.020741   1.389648   2.181738   2.214598
                    6          7          8          9
     6  H     .000000
     7  H    4.234836    .000000
     8  C    3.213300   1.089192    .000000
     9  N    3.281219   2.186968   1.392947    .000000
 Stoichiometry    C3H4N2
 Framework group  CS[SG(C3H4N2)]
 Deg. of freedom   15
 Full point group                 CS      NOp   2
 Largest Abelian subgroup         CS      NOp   2
 Largest concise Abelian subgroup C1      NOp   1
                         Standard orientation:                         
 ---------------------------------------------------------------------
 Center     Atomic     Atomic              Coordinates (Angstroms)
 Number     Number      Type              X           Y           Z
 ---------------------------------------------------------------------
    1          7             0        -.746557   -1.016232     .000000
    2          1             0        -.011483    2.142634     .000000
    3          6             0        1.135512     .320875     .000000
    4          1             0        2.146060     .729012     .000000
    5          6             0         .645657    -.996431     .000000
    6          1             0        1.220864   -1.923676     .000000
    7          1             0       -2.136934     .656832     .000000
    8          6             0       -1.113270     .284742     .000000
    9          7             0         .000000    1.121958     .000000
 ---------------------------------------------------------------------
 Rotational constants (GHZ):      9.4945719      9.0006407      4.6205054
 Isotopes: N-14,H-1,C-12,H-1,C-12,H-1,H-1,C-12,N-14
 Standard basis: 6-31G (6D, 7F)
 There are    43 symmetry adapted basis functions of A'  symmetry.
 There are    10 symmetry adapted basis functions of A"  symmetry.
 Crude estimate of integral set expansion from redundant integrals=1.000.
 Integral buffers will be    262144 words long.
 Raffenetti 2 integral format.
 Two-electron integral symmetry is turned on.
    53 basis functions      126 primitive gaussians
    18 alpha electrons       18 beta electrons
       nuclear repulsion energy       160.3919623948 Hartrees.
 One-electron integrals computed using PRISM.
 NBasis=    53 RedAO= T  NBF=    43    10
 NBsUse=    53 1.00D-04 NBFU=    43    10
 Initial guess read from the read-write file:
 Initial guess orbital symmetries:
       Occupied  (A') (A') (A') (A') (A') (A') (A') (A') (A') (A')
                 (A') (A') (A") (A') (A') (A") (A") (A')
       Virtual   (A") (A') (A") (A') (A') (A') (A') (A') (A') (A')
                 (A') (A") (A') (A") (A') (A") (A') (A') (A') (A')
                 (A") (A") (A') (A') (A') (A') (A') (A') (A') (A')
                 (A') (A') (A') (A') (A')
 Requested convergence on RMS density matrix=1.00D-08 within  64 cycles.
 Requested convergence on MAX density matrix=1.00D-06.
 Keep R1 and R2 integrals in memory in canonical form, NReq=     2463126.
 Integral accuracy reduced to 1.0D-05 until final iterations.
 Initial convergence to 1.0D-05 achieved.  Increase integral accuracy.
 SCF Done:  E(RB-LYP) =  -226.066745115     A.U. after   14 cycles
             Convg  =     .9299D-08             -V/T =  2.0059
             S**2   =    .0000
 ***** Axes restored to original set *****
 -------------------------------------------------------------------
 Center     Atomic                   Forces (Hartrees/Bohr)
 Number     Number              X              Y              Z
 -------------------------------------------------------------------
    1          7            .009089765     .000000000    -.006525421
    2          1           -.000618014     .000000000     .003645144
    3          6           -.008939190     .000000000     .013398448
    4          1            .003475390     .000000000     .002319398
    5          6           -.017603768     .000000000    -.006584125
    6          1            .002747028     .000000000    -.003040211
    7          1           -.003538931     .000000000     .000159364
    8          6            .006504784     .000000000     .003370913
    9          7            .008882937     .000000000    -.006743511
 -------------------------------------------------------------------
 Cartesian Forces:  Max      .017603768 RMS      .006013559

 GradGradGradGradGradGradGradGradGradGradGradGradGradGradGradGradGradGrad
 Berny optimization.
 Internal  Forces:  Max      .011278428 RMS      .003559472
 Search for a local minimum.
 Step number   3 out of a maximum of  48
 All quantities printed in internal units (Hartrees-Bohrs-Radians)
 Update second derivatives using information from points  1  2  3
 Trust test= 6.83D-01 RLast= 3.08D-01 DXMaxT set to 4.24D-01
     Eigenvalues ---     .03204    .03261    .03287    .03304    .03350
     Eigenvalues ---     .03404    .15620    .16000    .16000    .16003
     Eigenvalues ---     .22114    .23343    .45479    .49330    .49605
     Eigenvalues ---     .56269    .58282    .63356    .64918    .72031
     Eigenvalues ---     .746921000.000001000.000001000.000001000.00000
     Eigenvalues --- 1000.000001000.000001000.000001000.000001000.00000
     Eigenvalues --- 1000.000001000.000001000.000001000.000001000.00000
     Eigenvalues --- 1000.000001000.000001000.00000
 RFO step:  Lambda=-8.58197571D-04.
 Quartic linear search produced a step of  -.01962.
 Iteration  1 RMS(Cart)=   .00754194 RMS(Int)=   .00003042
 Iteration  2 RMS(Cart)=   .00002806 RMS(Int)=   .00000450
 Iteration  3 RMS(Cart)=   .00000000 RMS(Int)=   .00000450
 Variable       Old X    -DE/DX   Delta X   Delta X   Delta X     New X
                                 (Linear)    (Quad)   (Total)
    R1        2.63117    .01016   -.00211    .01687    .01477   2.64594
    R2        2.55429   -.00387   -.00116   -.00314   -.00430   2.54999
    R3        1.92892   -.00369   -.00150   -.00341   -.00491   1.92401
    R4        2.05953   -.00418   -.00187   -.00516   -.00703   2.05250
    R5        2.65589   -.01128   -.00136   -.01546   -.01681   2.63908
    R6        2.62605    .01071   -.00222    .01745    .01523   2.64128
    R7        2.06201   -.00409   -.00185   -.00510   -.00695   2.05506
    R8        2.05827   -.00353   -.00184   -.00393   -.00577   2.05251
    R9        2.63229   -.00052   -.00203    .00301    .00097   2.63326
    A1        1.83132    .00473    .00061    .01784    .01845   1.84978
    A2        2.31066   -.00074   -.00146   -.00171   -.00317   2.30749
    A3        2.14335   -.00091    .00113   -.00567   -.00454   2.13881
    A4        1.82918    .00165    .00034    .00738    .00772   1.83689
    A5        1.94103   -.00324   -.00066   -.01381   -.01445   1.92658
    A6        2.11182    .00181    .00124    .00706    .00830   2.12011
    A7        2.23034    .00143   -.00059    .00675    .00616   2.23649
    A8        2.19418    .00202   -.00011    .00912    .00901   2.20320
    A9        1.94085   -.00347   -.00057   -.01387   -.01445   1.92641
   A10        2.14815    .00145    .00068    .00475    .00543   2.15358
   A11        2.19644    .00008   -.00001    .00012    .00011   2.19655
   A12        2.20435   -.00041   -.00027   -.00257   -.00284   2.20151
   A13        1.88240    .00033    .00028    .00246    .00273   1.88513
    D1         .00000    .00000    .00000    .00000    .00000    .00000
    D2        3.14159    .00000    .00000    .00000    .00000   3.14159
    D3        3.14159    .00000    .00000    .00000    .00000   3.14159
    D4         .00000    .00000    .00000    .00000    .00000    .00000
    D5        3.14159    .00000    .00000    .00000    .00000   3.14159
    D6         .00000    .00000    .00000    .00000    .00000    .00000
    D7         .00000    .00000    .00000    .00000    .00000    .00000
    D8        3.14159    .00000    .00000    .00000    .00000   3.14159
    D9         .00000    .00000    .00000    .00000    .00000    .00000
   D10        3.14159    .00000    .00000    .00000    .00000   3.14159
   D11        3.14159    .00000    .00000    .00000    .00000   3.14159
   D12         .00000    .00000    .00000    .00000    .00000    .00000
   D13        3.14159    .00000    .00000    .00000    .00000   3.14159
   D14         .00000    .00000    .00000    .00000    .00000    .00000
   D15         .00000    .00000    .00000    .00000    .00000    .00000
   D16        3.14159    .00000    .00000    .00000    .00000   3.14159
         Item               Value     Threshold  Converged?
 Maximum Force             .011278      .000450     NO 
 RMS     Force             .003559      .000300     NO 
 Maximum Displacement      .020965      .001800     NO 
 RMS     Displacement      .007541      .001200     NO 
 Predicted change in Energy=-4.358972D-04
 GradGradGradGradGradGradGradGradGradGradGradGradGradGradGradGradGradGrad

                          Input orientation:                          
 ---------------------------------------------------------------------
 Center     Atomic     Atomic              Coordinates (Angstroms)
 Number     Number      Type              X           Y           Z
 ---------------------------------------------------------------------
    1          7             0         .500697     .000000    1.146002
    2          1             0         .489606     .000000   -2.082953
    3          6             0       -1.037960     .000000    -.558568
    4          1             0       -1.927701     .000000   -1.181503
    5          6             0        -.862633     .000000     .826921
    6          1             0       -1.626842     .000000    1.600627
    7          1             0        2.235995     .000000    -.166218
    8          6             0        1.158129     .000000    -.032407
    9          7             0         .253740     .000000   -1.092507
 ---------------------------------------------------------------------
                    Distance matrix (angstroms):
                    1          2          3          4          5
     1  N     .000000
     2  H    3.228974    .000000
     3  C    2.296307   2.158056    .000000
     4  H    3.363688   2.579920   1.086134    .000000
     5  C    1.400171   3.208725   1.396539   2.273354    .000000
     6  H    2.175569   4.248307   2.238058   2.798350   1.087490
     7  H    2.175587   2.593019   3.297381   4.285693   3.253893
     8  C    1.349394   2.156771   2.258241   3.292836   2.195888
     9  N    2.252090   1.018143   1.397705   2.183256   2.220471
                    6          7          8          9
     6  H     .000000
     7  H    4.247734    .000000
     8  C    3.228446   1.086140    .000000
     9  N    3.284746   2.188000   1.393460    .000000
 Stoichiometry    C3H4N2
 Framework group  CS[SG(C3H4N2)]
 Deg. of freedom   15
 Full point group                 CS      NOp   2
 Largest Abelian subgroup         CS      NOp   2
 Largest concise Abelian subgroup C1      NOp   1
                         Standard orientation:                         
 ---------------------------------------------------------------------
 Center     Atomic     Atomic              Coordinates (Angstroms)
 Number     Number      Type              X           Y           Z
 ---------------------------------------------------------------------
    1          7             0        -.747591   -1.003863     .000000
    2          1             0        -.005385    2.138652     .000000
    3          6             0        1.137182     .307875     .000000
    4          1             0        2.144900     .713079     .000000
    5          6             0         .652579   -1.001889     .000000
    6          1             0        1.221669   -1.928589     .000000
    7          1             0       -2.140549     .667319     .000000
    8          6             0       -1.121010     .292834     .000000
    9          7             0         .000000    1.120523     .000000
 ---------------------------------------------------------------------
 Rotational constants (GHZ):      9.3650193      9.1067338      4.6170354
 Isotopes: N-14,H-1,C-12,H-1,C-12,H-1,H-1,C-12,N-14
 Standard basis: 6-31G (6D, 7F)
 There are    43 symmetry adapted basis functions of A'  symmetry.
 There are    10 symmetry adapted basis functions of A"  symmetry.
 Crude estimate of integral set expansion from redundant integrals=1.000.
 Integral buffers will be    262144 words long.
 Raffenetti 2 integral format.
 Two-electron integral symmetry is turned on.
    53 basis functions      126 primitive gaussians
    18 alpha electrons       18 beta electrons
       nuclear repulsion energy       160.3305033930 Hartrees.
 One-electron integrals computed using PRISM.
 NBasis=    53 RedAO= T  NBF=    43    10
 NBsUse=    53 1.00D-04 NBFU=    43    10
 Initial guess read from the read-write file:
 Initial guess orbital symmetries:
       Occupied  (A') (A') (A') (A') (A') (A') (A') (A') (A') (A')
                 (A') (A') (A') (A") (A') (A") (A') (A")
       Virtual   (A") (A") (A') (A') (A') (A') (A') (A') (A') (A')
                 (A') (A") (A') (A') (A") (A') (A") (A') (A') (A')
                 (A") (A') (A") (A') (A') (A') (A') (A') (A') (A')
                 (A') (A') (A') (A') (A')
 Requested convergence on RMS density matrix=1.00D-08 within  64 cycles.
 Requested convergence on MAX density matrix=1.00D-06.
 Keep R1 and R2 integrals in memory in canonical form, NReq=     2463126.
 Integral accuracy reduced to 1.0D-05 until final iterations.
 Initial convergence to 1.0D-05 achieved.  Increase integral accuracy.
 SCF Done:  E(RB-LYP) =  -226.067225169     A.U. after   13 cycles
             Convg  =     .1626D-08             -V/T =  2.0059
             S**2   =    .0000
 ***** Axes restored to original set *****
 -------------------------------------------------------------------
 Center     Atomic                   Forces (Hartrees/Bohr)
 Number     Number              X              Y              Z
 -------------------------------------------------------------------
    1          7            .008014570     .000000000     .000905457
    2          1           -.000831882     .000000000     .001122418
    3          6           -.003925021     .000000000     .006141729
    4          1            .001517602     .000000000     .000346059
    5          6           -.005394895     .000000000    -.006645001
    6          1            .001872920     .000000000    -.000961137
    7          1           -.001648760     .000000000     .000243053
    8          6           -.004123653     .000000000     .004188985
    9          7            .004519118     .000000000    -.005341562
 -------------------------------------------------------------------
 Cartesian Forces:  Max      .008014570 RMS      .003257649

 GradGradGradGradGradGradGradGradGradGradGradGradGradGradGradGradGradGrad
 Berny optimization.
 Internal  Forces:  Max      .004490746 RMS      .001628255
 Search for a local minimum.
 Step number   4 out of a maximum of  48
 All quantities printed in internal units (Hartrees-Bohrs-Radians)
 Update second derivatives using information from points  1  2  3  4
 Trust test= 1.10D+00 RLast= 4.46D-02 DXMaxT set to 4.24D-01
     Eigenvalues ---     .03204    .03262    .03287    .03304    .03350
     Eigenvalues ---     .03404    .15341    .15996    .16000    .16047
     Eigenvalues ---     .21395    .34071    .39800    .46752    .49407
     Eigenvalues ---     .49667    .57349    .59598    .64563    .67103
     Eigenvalues ---     .771731000.000001000.000001000.000001000.00000
     Eigenvalues --- 1000.000001000.000001000.000001000.000001000.00000
     Eigenvalues --- 1000.000001000.000001000.000001000.000001000.00000
     Eigenvalues --- 1000.000001000.000001000.00000
 RFO step:  Lambda=-2.76327272D-04.
 Quartic linear search produced a step of   .11546.
 Iteration  1 RMS(Cart)=   .00339561 RMS(Int)=   .00000820
 Iteration  2 RMS(Cart)=   .00000876 RMS(Int)=   .00000469
 Iteration  3 RMS(Cart)=   .00000000 RMS(Int)=   .00000469
 Variable       Old X    -DE/DX   Delta X   Delta X   Delta X     New X
                                 (Linear)    (Quad)   (Total)
    R1        2.64594    .00448    .00171    .01104    .01274   2.65868
    R2        2.54999   -.00387   -.00050   -.00612   -.00661   2.54338
    R3        1.92401   -.00128   -.00057   -.00232   -.00289   1.92112
    R4        2.05250   -.00144   -.00081   -.00338   -.00419   2.04830
    R5        2.63908   -.00449   -.00194   -.01021   -.01216   2.62692
    R6        2.64128    .00261    .00176    .00860    .01035   2.65163
    R7        2.05506   -.00200   -.00080   -.00467   -.00547   2.04959
    R8        2.05251   -.00167   -.00067   -.00363   -.00429   2.04821
    R9        2.63326    .00068    .00011    .00268    .00280   2.63606
    A1        1.84978   -.00241    .00213   -.00861   -.00648   1.84330
    A2        2.30749    .00066   -.00037    .00397    .00360   2.31109
    A3        2.13881   -.00055   -.00052   -.00541   -.00593   2.13288
    A4        1.83689   -.00011    .00089    .00144    .00232   1.83921
    A5        1.92658    .00159   -.00167    .00501    .00333   1.92991
    A6        2.12011   -.00147    .00096   -.00720   -.00623   2.11388
    A7        2.23649   -.00012    .00071    .00219    .00290   2.23940
    A8        2.20320   -.00140    .00104   -.00483   -.00380   2.19940
    A9        1.92641    .00272   -.00167    .00999    .00833   1.93474
   A10        2.15358   -.00132    .00063   -.00516   -.00454   2.14905
   A11        2.19655    .00037    .00001    .00054    .00054   2.19710
   A12        2.20151    .00142   -.00033    .00729    .00696   2.20846
   A13        1.88513   -.00180    .00032   -.00782   -.00750   1.87762
    D1         .00000    .00000    .00000    .00000    .00000    .00000
    D2        3.14159    .00000    .00000    .00000    .00000   3.14159
    D3        3.14159    .00000    .00000    .00000    .00000   3.14159
    D4         .00000    .00000    .00000    .00000    .00000    .00000
    D5        3.14159    .00000    .00000    .00000    .00000   3.14159
    D6         .00000    .00000    .00000    .00000    .00000    .00000
    D7         .00000    .00000    .00000    .00000    .00000    .00000
    D8        3.14159    .00000    .00000    .00000    .00000   3.14159
    D9         .00000    .00000    .00000    .00000    .00000    .00000
   D10        3.14159    .00000    .00000    .00000    .00000   3.14159
   D11        3.14159    .00000    .00000    .00000    .00000   3.14159
   D12         .00000    .00000    .00000    .00000    .00000    .00000
   D13        3.14159    .00000    .00000    .00000    .00000   3.14159
   D14         .00000    .00000    .00000    .00000    .00000    .00000
   D15         .00000    .00000    .00000    .00000    .00000    .00000
   D16        3.14159    .00000    .00000    .00000    .00000   3.14159
         Item               Value     Threshold  Converged?
 Maximum Force             .004491      .000450     NO 
 RMS     Force             .001628      .000300     NO 
 Maximum Displacement      .008262      .001800     NO 
 RMS     Displacement      .003398      .001200     NO 
 Predicted change in Energy=-1.432410D-04
 GradGradGradGradGradGradGradGradGradGradGradGradGradGradGradGradGradGrad

                          Input orientation:                          
 ---------------------------------------------------------------------
 Center     Atomic     Atomic              Coordinates (Angstroms)
 Number     Number      Type              X           Y           Z
 ---------------------------------------------------------------------
    1          7             0         .504870     .000000    1.148814
    2          1             0         .488607     .000000   -2.083871
    3          6             0       -1.039624     .000000    -.554417
    4          1             0       -1.925725     .000000   -1.178674
    5          6             0        -.864169     .000000     .824570
    6          1             0       -1.623574     .000000    1.598942
    7          1             0        2.231697     .000000    -.162612
    8          6             0        1.156090     .000000    -.029045
    9          7             0         .255525     .000000   -1.094337
 ---------------------------------------------------------------------
                    Distance matrix (angstroms):
                    1          2          3          4          5
     1  N     .000000
     2  H    3.232726    .000000
     3  C    2.299230   2.162110    .000000
     4  H    3.365263   2.578445   1.083915    .000000
     5  C    1.406913   3.207652   1.390104   2.267132    .000000
     6  H    2.175521   4.245518   2.231133   2.794002   1.084596
     7  H    2.168356   2.594146   3.294700   4.279782   3.249448
     8  C    1.345897   2.160519   2.257692   3.289260   2.193195
     9  N    2.256967   1.016614   1.403184   2.182880   2.221693
                    6          7          8          9
     6  H     .000000
     7  H    4.238654    .000000
     8  C    3.221316   1.083868    .000000
     9  N    3.284017   2.184803   1.394943    .000000
 Stoichiometry    C3H4N2
 Framework group  CS[SG(C3H4N2)]
 Deg. of freedom   15
 Full point group                 CS      NOp   2
 Largest Abelian subgroup         CS      NOp   2
 Largest concise Abelian subgroup C1      NOp   1
                         Standard orientation:                         
 ---------------------------------------------------------------------
 Center     Atomic     Atomic              Coordinates (Angstroms)
 Number     Number      Type              X           Y           Z
 ---------------------------------------------------------------------
    1          7             0        -.752456   -1.004068     .000000
    2          1             0        -.002170    2.140385     .000000
    3          6             0        1.138613     .303722     .000000
    4          1             0        2.143370     .710337     .000000
    5          6             0         .654448    -.999341     .000000
    6          1             0        1.218061   -1.925996     .000000
    7          1             0       -2.136176     .665389     .000000
    8          6             0       -1.119043     .290943     .000000
    9          7             0         .000000    1.123774     .000000
 ---------------------------------------------------------------------
 Rotational constants (GHZ):      9.3634791      9.0955345      4.6137811
 Isotopes: N-14,H-1,C-12,H-1,C-12,H-1,H-1,C-12,N-14
 Standard basis: 6-31G (6D, 7F)
 There are    43 symmetry adapted basis functions of A'  symmetry.
 There are    10 symmetry adapted basis functions of A"  symmetry.
 Crude estimate of integral set expansion from redundant integrals=1.000.
 Integral buffers will be    262144 words long.
 Raffenetti 2 integral format.
 Two-electron integral symmetry is turned on.
    53 basis functions      126 primitive gaussians
    18 alpha electrons       18 beta electrons
       nuclear repulsion energy       160.2930729746 Hartrees.
 One-electron integrals computed using PRISM.
 NBasis=    53 RedAO= T  NBF=    43    10
 NBsUse=    53 1.00D-04 NBFU=    43    10
 Initial guess read from the read-write file:
 Initial guess orbital symmetries:
       Occupied  (A') (A') (A') (A') (A') (A') (A') (A') (A') (A')
                 (A') (A') (A') (A") (A') (A") (A') (A")
       Virtual   (A") (A") (A') (A') (A') (A') (A') (A') (A') (A')
                 (A') (A") (A') (A') (A") (A') (A") (A') (A') (A')
                 (A") (A') (A") (A') (A') (A') (A') (A') (A') (A')
                 (A') (A') (A') (A') (A')
 Requested convergence on RMS density matrix=1.00D-08 within  64 cycles.
 Requested convergence on MAX density matrix=1.00D-06.
 Keep R1 and R2 integrals in memory in canonical form, NReq=     2463126.
 SCF Done:  E(RB-LYP) =  -226.067406734     A.U. after   10 cycles
             Convg  =     .8822D-08             -V/T =  2.0059
             S**2   =    .0000
 ***** Axes restored to original set *****
 -------------------------------------------------------------------
 Center     Atomic                   Forces (Hartrees/Bohr)
 Number     Number              X              Y              Z
 -------------------------------------------------------------------
    1          7            .003178060     .000000000     .000073709
    2          1           -.000229735     .000000000     .000124887
    3          6           -.000315650     .000000000     .001395086
    4          1            .000010591     .000000000    -.000227068
    5          6           -.001725510     .000000000    -.002309627
    6          1            .000314471     .000000000     .000254555
    7          1            .000134531     .000000000    -.000026931
    8          6           -.002761354     .000000000     .001205482
    9          7            .001394597     .000000000    -.000490092
 -------------------------------------------------------------------
 Cartesian Forces:  Max      .003178060 RMS      .001089157

 GradGradGradGradGradGradGradGradGradGradGradGradGradGradGradGradGradGrad
 Berny optimization.
 Internal  Forces:  Max      .001694822 RMS      .000523323
 Search for a local minimum.
 Step number   5 out of a maximum of  48
 All quantities printed in internal units (Hartrees-Bohrs-Radians)
 Update second derivatives using information from points  1  2  3  4  5

 Trust test= 1.27D+00 RLast= 3.01D-02 DXMaxT set to 4.24D-01
     Eigenvalues ---     .03204    .03262    .03287    .03304    .03350
     Eigenvalues ---     .03404    .14263    .15968    .16006    .16028
     Eigenvalues ---     .20909    .28042    .41891    .46818    .49455
     Eigenvalues ---     .49670    .57333    .59370    .64952    .66858
     Eigenvalues ---     .773061000.000001000.000001000.000001000.00000
     Eigenvalues --- 1000.000001000.000001000.000001000.000001000.00000
     Eigenvalues --- 1000.000001000.000001000.000001000.000001000.00000
     Eigenvalues --- 1000.000001000.000001000.00000
 RFO step:  Lambda=-9.28426755D-06.
 Quartic linear search produced a step of   .36151.
 Iteration  1 RMS(Cart)=   .00136665 RMS(Int)=   .00000352
 Iteration  2 RMS(Cart)=   .00000229 RMS(Int)=   .00000284
 Iteration  3 RMS(Cart)=   .00000000 RMS(Int)=   .00000284
 Variable       Old X    -DE/DX   Delta X   Delta X   Delta X     New X
                                 (Linear)    (Quad)   (Total)
    R1        2.65868    .00169    .00461    .00151    .00611   2.66479
    R2        2.54338   -.00166   -.00239   -.00128   -.00367   2.53971
    R3        1.92112   -.00017   -.00104    .00035   -.00070   1.92042
    R4        2.04830    .00012   -.00152    .00133   -.00019   2.04811
    R5        2.62692   -.00100   -.00440    .00034   -.00406   2.62286
    R6        2.65163    .00026    .00374   -.00033    .00342   2.65505
    R7        2.04959   -.00004   -.00198    .00131   -.00067   2.04892
    R8        2.04821    .00014   -.00155    .00156    .00000   2.04822
    R9        2.63606   -.00045    .00101   -.00123   -.00022   2.63584
    A1        1.84330   -.00091   -.00234   -.00078   -.00312   1.84017
    A2        2.31109    .00030    .00130    .00070    .00201   2.31310
    A3        2.13288   -.00010   -.00214   -.00018   -.00232   2.13056
    A4        1.83921   -.00020    .00084   -.00053    .00031   1.83952
    A5        1.92991    .00030    .00120   -.00003    .00117   1.93107
    A6        2.11388   -.00056   -.00225   -.00196   -.00421   2.10967
    A7        2.23940    .00026    .00105    .00199    .00304   2.24244
    A8        2.19940   -.00054   -.00137   -.00024   -.00162   2.19778
    A9        1.93474    .00110    .00301    .00097    .00399   1.93873
   A10        2.14905   -.00056   -.00164   -.00073   -.00237   2.14668
   A11        2.19710   -.00004    .00020   -.00052   -.00032   2.19677
   A12        2.20846    .00033    .00252    .00016    .00267   2.21113
   A13        1.87762   -.00029   -.00271    .00036   -.00234   1.87528
    D1         .00000    .00000    .00000    .00000    .00000    .00000
    D2        3.14159    .00000    .00000    .00000    .00000   3.14159
    D3        3.14159    .00000    .00000    .00000    .00000   3.14159
    D4         .00000    .00000    .00000    .00000    .00000    .00000
    D5        3.14159    .00000    .00000    .00000    .00000   3.14159
    D6         .00000    .00000    .00000    .00000    .00000    .00000
    D7         .00000    .00000    .00000    .00000    .00000    .00000
    D8        3.14159    .00000    .00000    .00000    .00000   3.14159
    D9         .00000    .00000    .00000    .00000    .00000    .00000
   D10        3.14159    .00000    .00000    .00000    .00000   3.14159
   D11        3.14159    .00000    .00000    .00000    .00000   3.14159
   D12         .00000    .00000    .00000    .00000    .00000    .00000
   D13        3.14159    .00000    .00000    .00000    .00000   3.14159
   D14         .00000    .00000    .00000    .00000    .00000    .00000
   D15         .00000    .00000    .00000    .00000    .00000    .00000
   D16        3.14159    .00000    .00000    .00000    .00000   3.14159
         Item               Value     Threshold  Converged?
 Maximum Force             .001695      .000450     NO 
 RMS     Force             .000523      .000300     NO 
 Maximum Displacement      .003585      .001800     NO 
 RMS     Displacement      .001367      .001200     NO 
 Predicted change in Energy=-1.838894D-05
 GradGradGradGradGradGradGradGradGradGradGradGradGradGradGradGradGradGrad

                          Input orientation:                          
 ---------------------------------------------------------------------
 Center     Atomic     Atomic              Coordinates (Angstroms)
 Number     Number      Type              X           Y           Z
 ---------------------------------------------------------------------
    1          7             0         .506557     .000000    1.149446
    2          1             0         .488242     .000000   -2.084338
    3          6             0       -1.040615     .000000    -.553836
    4          1             0       -1.925446     .000000   -1.179720
    5          6             0        -.865284     .000000     .823002
    6          1             0       -1.621999     .000000    1.599510
    7          1             0        2.229962     .000000    -.162093
    8          6             0        1.154412     .000000    -.028052
    9          7             0         .255978     .000000   -1.094992
 ---------------------------------------------------------------------
                    Distance matrix (angstroms):
                    1          2          3          4          5
     1  N     .000000
     2  H    3.233836    .000000
     3  C    2.301068   2.163294    .000000
     4  H    3.367440   2.577640   1.083815    .000000
     5  C    1.410147   3.206970   1.387957   2.266018    .000000
     6  H    2.175617   4.245451   2.230450   2.795746   1.084243
     7  H    2.165700   2.593957   3.293955   4.278198   3.248223
     8  C    1.343956   2.161503   2.257121   3.288140   2.191681
     9  N    2.258382   1.016244   1.404993   2.183069   2.221695
                    6          7          8          9
     6  H     .000000
     7  H    4.235663    .000000
     8  C    3.218294   1.083870    .000000
     9  N    3.284378   2.183326   1.394828    .000000
 Stoichiometry    C3H4N2
 Framework group  CS[SG(C3H4N2)]
 Deg. of freedom   15
 Full point group                 CS      NOp   2
 Largest Abelian subgroup         CS      NOp   2
 Largest concise Abelian subgroup C1      NOp   1
                         Standard orientation:                         
 ---------------------------------------------------------------------
 Center     Atomic     Atomic              Coordinates (Angstroms)
 Number     Number      Type              X           Y           Z
 ---------------------------------------------------------------------
    1          7             0        -.754918   -1.003921     .000000
    2          1             0        -.000955    2.140794     .000000
    3          6             0        1.139365     .302449     .000000
    4          1             0        2.143440     .710479     .000000
    5          6             0         .655217    -.998330     .000000
    6          1             0        1.215304   -1.926708     .000000
    7          1             0       -2.134522     .665495     .000000
    8          6             0       -1.117722     .290138     .000000
    9          7             0         .000000    1.124550     .000000
 ---------------------------------------------------------------------
 Rotational constants (GHZ):      9.3656174      9.0899785      4.6128698
 Isotopes: N-14,H-1,C-12,H-1,C-12,H-1,H-1,C-12,N-14
 Standard basis: 6-31G (6D, 7F)
 There are    43 symmetry adapted basis functions of A'  symmetry.
 There are    10 symmetry adapted basis functions of A"  symmetry.
 Crude estimate of integral set expansion from redundant integrals=1.000.
 Integral buffers will be    262144 words long.
 Raffenetti 2 integral format.
 Two-electron integral symmetry is turned on.
    53 basis functions      126 primitive gaussians
    18 alpha electrons       18 beta electrons
       nuclear repulsion energy       160.2821575191 Hartrees.
 One-electron integrals computed using PRISM.
 NBasis=    53 RedAO= T  NBF=    43    10
 NBsUse=    53 1.00D-04 NBFU=    43    10
 Initial guess read from the read-write file:
 Initial guess orbital symmetries:
       Occupied  (A') (A') (A') (A') (A') (A') (A') (A') (A') (A')
                 (A') (A') (A') (A") (A') (A") (A') (A")
       Virtual   (A") (A") (A') (A') (A') (A') (A') (A') (A') (A')
                 (A') (A") (A') (A') (A") (A') (A") (A') (A') (A')
                 (A") (A') (A") (A') (A') (A') (A') (A') (A') (A')
                 (A') (A') (A') (A') (A')
 Requested convergence on RMS density matrix=1.00D-08 within  64 cycles.
 Requested convergence on MAX density matrix=1.00D-06.
 Keep R1 and R2 integrals in memory in canonical form, NReq=     2463126.
 SCF Done:  E(RB-LYP) =  -226.067427062     A.U. after    9 cycles
             Convg  =     .6487D-08             -V/T =  2.0059
             S**2   =    .0000
 ***** Axes restored to original set *****
 -------------------------------------------------------------------
 Center     Atomic                   Forces (Hartrees/Bohr)
 Number     Number              X              Y              Z
 -------------------------------------------------------------------
    1          7            .000694491     .000000000    -.000038125
    2          1           -.000006864     .000000000    -.000079788
    3          6            .000510617     .000000000    -.000234572
    4          1           -.000157145     .000000000    -.000110039
    5          6           -.000479926     .000000000    -.000143870
    6          1           -.000047037     .000000000     .000209268
    7          1            .000251512     .000000000    -.000044557
    8          6           -.000912035     .000000000    -.000174073
    9          7            .000146387     .000000000     .000615757
 -------------------------------------------------------------------
 Cartesian Forces:  Max      .000912035 RMS      .000302319

 GradGradGradGradGradGradGradGradGradGradGradGradGradGradGradGradGradGrad
 Berny optimization.
 Internal  Forces:  Max      .000504789 RMS      .000157095
 Search for a local minimum.
 Step number   6 out of a maximum of  48
 All quantities printed in internal units (Hartrees-Bohrs-Radians)
 Update second derivatives using information from points  2  3  4  5  6

 Trust test= 1.11D+00 RLast= 1.28D-02 DXMaxT set to 4.24D-01
     Eigenvalues ---     .03203    .03262    .03287    .03303    .03350
     Eigenvalues ---     .03404    .13458    .15898    .16000    .16042
     Eigenvalues ---     .20703    .28439    .40948    .46747    .49453
     Eigenvalues ---     .49683    .57055    .58859    .63999    .66183
     Eigenvalues ---     .762981000.000001000.000001000.000001000.00000
     Eigenvalues --- 1000.000001000.000001000.000001000.000001000.00000
     Eigenvalues --- 1000.000001000.000001000.000001000.000001000.00000
     Eigenvalues --- 1000.000001000.000001000.00000
 RFO step:  Lambda=-1.53706634D-06.
 Quartic linear search produced a step of   .11261.
 Iteration  1 RMS(Cart)=   .00036121 RMS(Int)=   .00000019
 Iteration  2 RMS(Cart)=   .00000013 RMS(Int)=   .00000013
 Variable       Old X    -DE/DX   Delta X   Delta X   Delta X     New X
                                 (Linear)    (Quad)   (Total)
    R1        2.66479    .00042    .00069    .00048    .00116   2.66595
    R2        2.53971   -.00025   -.00041   -.00020   -.00061   2.53910
    R3        1.92042    .00008   -.00008    .00015    .00007   1.92050
    R4        2.04811    .00019   -.00002    .00038    .00036   2.04847
    R5        2.62286    .00014   -.00046    .00048    .00002   2.62288
    R6        2.65505   -.00029    .00038   -.00050   -.00012   2.65493
    R7        2.04892    .00018   -.00008    .00039    .00031   2.04924
    R8        2.04822    .00025    .00000    .00051    .00051   2.04873
    R9        2.63584   -.00050   -.00002   -.00081   -.00083   2.63501
    A1        1.84017   -.00015   -.00035   -.00007   -.00042   1.83975
    A2        2.31310    .00001    .00023   -.00014    .00009   2.31319
    A3        2.13056    .00000   -.00026    .00004   -.00022   2.13035
    A4        1.83952   -.00001    .00003    .00009    .00013   1.83965
    A5        1.93107   -.00019    .00013   -.00047   -.00034   1.93073
    A6        2.10967   -.00002   -.00047   -.00029   -.00076   2.10891
    A7        2.24244    .00021    .00034    .00076    .00111   2.24355
    A8        2.19778   -.00010   -.00018   -.00006   -.00024   2.19753
    A9        1.93873    .00022    .00045    .00026    .00071   1.93944
   A10        2.14668   -.00012   -.00027   -.00020   -.00046   2.14622
   A11        2.19677   -.00009   -.00004   -.00015   -.00018   2.19659
   A12        2.21113   -.00004    .00030   -.00005    .00025   2.21138
   A13        1.87528    .00013   -.00026    .00019   -.00007   1.87521
    D1         .00000    .00000    .00000    .00000    .00000    .00000
    D2        3.14159    .00000    .00000    .00000    .00000   3.14159
    D3        3.14159    .00000    .00000    .00000    .00000   3.14159
    D4         .00000    .00000    .00000    .00000    .00000    .00000
    D5        3.14159    .00000    .00000    .00000    .00000   3.14159
    D6         .00000    .00000    .00000    .00000    .00000    .00000
    D7         .00000    .00000    .00000    .00000    .00000    .00000
    D8        3.14159    .00000    .00000    .00000    .00000   3.14159
    D9         .00000    .00000    .00000    .00000    .00000    .00000
   D10        3.14159    .00000    .00000    .00000    .00000   3.14159
   D11        3.14159    .00000    .00000    .00000    .00000   3.14159
   D12         .00000    .00000    .00000    .00000    .00000    .00000
   D13        3.14159    .00000    .00000    .00000    .00000   3.14159
   D14         .00000    .00000    .00000    .00000    .00000    .00000
   D15         .00000    .00000    .00000    .00000    .00000    .00000
   D16        3.14159    .00000    .00000    .00000    .00000   3.14159
         Item               Value     Threshold  Converged?
 Maximum Force             .000505      .000450     NO 
 RMS     Force             .000157      .000300     YES
 Maximum Displacement      .001281      .001800     YES
 RMS     Displacement      .000361      .001200     YES
 Predicted change in Energy=-9.785715D-07
 GradGradGradGradGradGradGradGradGradGradGradGradGradGradGradGradGradGrad

                          Input orientation:                          
 ---------------------------------------------------------------------
 Center     Atomic     Atomic              Coordinates (Angstroms)
 Number     Number      Type              X           Y           Z
 ---------------------------------------------------------------------
    1          7             0         .506846     .000000    1.149452
    2          1             0         .488375     .000000   -2.084272
    3          6             0       -1.040522     .000000    -.553982
    4          1             0       -1.925262     .000000   -1.180322
    5          6             0        -.865607     .000000     .822919
    6          1             0       -1.621814     .000000    1.600154
    7          1             0        2.229787     .000000    -.162374
    8          6             0        1.154000     .000000    -.028064
    9          7             0         .256109     .000000   -1.094887
 ---------------------------------------------------------------------
                    Distance matrix (angstroms):
                    1          2          3          4          5
     1  N     .000000
     2  H    3.233777    .000000
     3  C    2.301312   2.163172    .000000
     4  H    3.367936   2.577357   1.084004    .000000
     5  C    1.410763   3.207028   1.387967   2.266239    .000000
     6  H    2.175850   4.245927   2.231188   2.796985   1.084409
     7  H    2.165506   2.593494   3.293673   4.277926   3.248426
     8  C    1.343634   2.161261   2.256661   3.287788   2.191571
     9  N    2.258302   1.016283   1.404931   2.183043   2.221762
                    6          7          8          9
     6  H     .000000
     7  H    4.235722    .000000
     8  C    3.218111   1.084139    .000000
     9  N    3.284789   2.182885   1.394389    .000000
 Stoichiometry    C3H4N2
 Framework group  CS[SG(C3H4N2)]
 Deg. of freedom   15
 Full point group                 CS      NOp   2
 Largest Abelian subgroup         CS      NOp   2
 Largest concise Abelian subgroup C1      NOp   1
                         Standard orientation:                         
 ---------------------------------------------------------------------
 Center     Atomic     Atomic              Coordinates (Angstroms)
 Number     Number      Type              X           Y           Z
 ---------------------------------------------------------------------
    1          7             0        -.755376   -1.003765     .000000
    2          1             0        -.000791    2.140741     .000000
    3          6             0        1.139333     .302418     .000000
    4          1             0        2.143485     .710760     .000000
    5          6             0         .655376    -.998442     .000000
    6          1             0        1.214660   -1.927499     .000000
    7          1             0       -2.134207     .666038     .000000
    8          6             0       -1.117295     .290209     .000000
    9          7             0         .000000    1.124459     .000000
 ---------------------------------------------------------------------
 Rotational constants (GHZ):      9.3663567      9.0898110      4.6130060
 Isotopes: N-14,H-1,C-12,H-1,C-12,H-1,H-1,C-12,N-14
 Standard basis: 6-31G (6D, 7F)
 There are    43 symmetry adapted basis functions of A'  symmetry.
 There are    10 symmetry adapted basis functions of A"  symmetry.
 Crude estimate of integral set expansion from redundant integrals=1.000.
 Integral buffers will be    262144 words long.
 Raffenetti 2 integral format.
 Two-electron integral symmetry is turned on.
    53 basis functions      126 primitive gaussians
    18 alpha electrons       18 beta electrons
       nuclear repulsion energy       160.2840857388 Hartrees.
 One-electron integrals computed using PRISM.
 NBasis=    53 RedAO= T  NBF=    43    10
 NBsUse=    53 1.00D-04 NBFU=    43    10
 Initial guess read from the read-write file:
 Initial guess orbital symmetries:
       Occupied  (A') (A') (A') (A') (A') (A') (A') (A') (A') (A')
                 (A') (A') (A') (A") (A') (A") (A') (A")
       Virtual   (A") (A") (A') (A') (A') (A') (A') (A') (A') (A')
                 (A') (A") (A') (A') (A") (A') (A") (A') (A') (A')
                 (A") (A') (A") (A') (A') (A') (A') (A') (A') (A')
                 (A') (A') (A') (A') (A')
 Requested convergence on RMS density matrix=1.00D-08 within  64 cycles.
 Requested convergence on MAX density matrix=1.00D-06.
 Keep R1 and R2 integrals in memory in canonical form, NReq=     2463126.
 SCF Done:  E(RB-LYP) =  -226.067428383     A.U. after    8 cycles
             Convg  =     .9113D-08             -V/T =  2.0059
             S**2   =    .0000
 ***** Axes restored to original set *****
[...]
 IR Inten    --     4.3266                 3.2096                20.1436
 Raman Activ --      .0000                  .0000                  .0000
 Depolar     --      .0000                  .0000                  .0000
 Atom AN      X      Y      Z        X      Y      Z        X      Y      Z
   1   7      .00    .00    .00      .00    .00    .00      .00    .00    .00
   2   1     -.01    .02    .00      .00   -.03    .00      .00   1.00    .00
   3   6     -.02   -.01    .00     -.07   -.03    .00      .00    .00    .00
   4   1      .25    .10    .00      .72    .30    .00      .02    .01    .00
   5   6      .00    .01    .00     -.02    .05    .00      .00    .00    .00
   6   1      .05   -.09    .00      .28   -.47    .00      .00   -.01    .00
   7   1      .90   -.33    .00     -.26    .10    .00     -.02    .00    .00
   8   6     -.08    .03    .00      .03   -.01    .00      .00    .00    .00
   9   7      .00    .00    .00      .00    .00    .00      .00   -.07    .00

 -------------------
 - Thermochemistry -
 -------------------
 Temperature   298.150 Kelvin.  Pressure   1.00000 Atm.
 Atom  1 has atomic number  7 and mass  14.00307
 Atom  2 has atomic number  1 and mass   1.00783
 Atom  3 has atomic number  6 and mass  12.00000
 Atom  4 has atomic number  1 and mass   1.00783
 Atom  5 has atomic number  6 and mass  12.00000
 Atom  6 has atomic number  1 and mass   1.00783
 Atom  7 has atomic number  1 and mass   1.00783
 Atom  8 has atomic number  6 and mass  12.00000
 Atom  9 has atomic number  7 and mass  14.00307
 Molecular mass:    68.03745 amu.
 Principal axes and moments of inertia in atomic units:
                           1         2         3
     EIGENVALUES --   192.68337 198.54551 391.22888
           X             .51225    .85884    .00000
           Y             .85884   -.51225    .00000
           Z             .00000    .00000   1.00000
 THIS MOLECULE IS AN ASYMMETRIC TOP.
 ROTATIONAL SYMMETRY NUMBER  1.
 ROTATIONAL TEMPERATURES (KELVIN)       .44951      .43624      .22139
 ROTATIONAL CONSTANTS (GHZ)            9.36636     9.08981     4.61301
 Zero-point vibrational energy     182000.0 (Joules/Mol)
                                   43.49905 (Kcal/Mol)
 WARNING-- EXPLICIT CONSIDERATION OF   1 DEGREES OF FREEDOM AS
           VIBRATIONS MAY CAUSE SIGNIFICANT ERROR
 VIBRATIONAL TEMPERATURES:    856.99   905.72   949.13  1027.66  1102.48
          (KELVIN)           1210.16  1271.98  1327.47  1481.86  1537.28
                             1564.27  1625.91  1793.77  1873.10  1966.75
                             2063.34  2161.01  4630.24  4647.56  4666.63
                             5115.59
 
 Zero-point correction=                            .069320 (Hartree/Particle)
 Thermal correction to Energy=                     .073114
 Thermal correction to Enthalpy=                   .074058
 Thermal correction to Gibbs Free Energy=          .042999
 Sum of electronic and zero-point Energies=           -225.998108
 Sum of electronic and thermal Energies=              -225.994315
 Sum of electronic and thermal Enthalpies=            -225.993370
 Sum of electronic and thermal Free Energies=         -226.024429
 
                     E (Thermal)             CV                S
                      KCAL/MOL        CAL/MOL-KELVIN    CAL/MOL-KELVIN
 TOTAL                   45.880             13.779             65.368
 ELECTRONIC                .000               .000               .000
 TRANSLATIONAL             .889              2.981             38.570
 ROTATIONAL                .889              2.981             24.219
 VIBRATIONAL             44.102              7.817              2.579
 VIBRATION  1              .953              1.041               .457
                       Q            LOG10(Q)             LN(Q)
 TOTAL BOT        .166632D-19        -19.778241        -45.541083
 TOTAL V=0        .127820D+13         12.106597         27.876471
 VIB (BOT)        .172488D-31        -31.763241        -73.137564
 VIB (BOT)  1     .251812D+00          -.598923         -1.379071
 VIB (V=0)        .132312D+01           .121598           .279990
 VIB (V=0)  1     .105983D+01           .025236           .058108
 ELECTRONIC       .100000D+01           .000000           .000000
 TRANSLATIONAL    .220588D+08          7.343582         16.909224
 ROTATIONAL       .437942D+05          4.641417         10.687258
 ***** Axes restored to original set *****
 -------------------------------------------------------------------
 Center     Atomic                   Forces (Hartrees/Bohr)
 Number     Number              X              Y              Z
 -------------------------------------------------------------------
    1          7            .000231420     .000000000     .000028709
    2          1            .000004536     .000000000    -.000036799
    3          6            .000258144     .000000000    -.000215831
    4          1           -.000063874     .000000000    -.000019330
    5          6           -.000227891     .000000000     .000019046
    6          1           -.000016331     .000000000     .000055776
    7          1            .000089158     .000000000    -.000007969
    8          6           -.000240993     .000000000    -.000226915
    9          7           -.000034171     .000000000     .000403312
 -------------------------------------------------------------------
 Cartesian Forces:  Max      .000403312 RMS      .000137506

 GradGradGradGradGradGradGradGradGradGradGradGradGradGradGradGradGradGrad
 Berny optimization.
 Internal  Forces:  Max      .000240743 RMS      .000071546
 Search for a local minimum.
 Step number   1 out of a maximum of  48
 All quantities printed in internal units (Hartrees-Bohrs-Radians)
 Second derivative matrix not updated -- analytic derivatives used.
     Eigenvalues ---     .00674    .01064    .01839    .02582    .05800
     Eigenvalues ---     .06020    .09590    .10373    .10782    .11341
     Eigenvalues ---     .21536    .22615    .29854    .35553    .36603
     Eigenvalues ---     .36644    .37375    .40847    .44266    .45655
     Eigenvalues ---     .515661000.000001000.000001000.000001000.00000
     Eigenvalues --- 1000.000001000.000001000.000001000.000001000.00000
     Eigenvalues --- 1000.000001000.000001000.000001000.000001000.00000
     Eigenvalues --- 1000.000001000.000001000.00000
 Angle between quadratic step and forces=  18.92 degrees.
 Linear search not attempted -- first point.
 Iteration  1 RMS(Cart)=   .00021606 RMS(Int)=   .00000004
 Iteration  2 RMS(Cart)=   .00000004 RMS(Int)=   .00000001
 Variable       Old X    -DE/DX   Delta X   Delta X   Delta X     New X
                                 (Linear)    (Quad)   (Total)
    R1        2.66595    .00019    .00000    .00075    .00075   2.66670
    R2        2.53910   -.00001    .00000    .00006    .00006   2.53916
    R3        1.92050    .00004    .00000    .00010    .00010   1.92059
    R4        2.04847    .00006    .00000    .00017    .00017   2.04864
    R5        2.62288    .00008    .00000    .00024    .00024   2.62312
    R6        2.65493   -.00018    .00000   -.00059   -.00059   2.65434
    R7        2.04924    .00005    .00000    .00011    .00011   2.04935
    R8        2.04873    .00009    .00000    .00025    .00025   2.04898
    R9        2.63501   -.00024    .00000   -.00078   -.00078   2.63423
    A1        1.83975   -.00005    .00000   -.00021   -.00021   1.83954
    A2        2.31319   -.00002    .00000   -.00026   -.00026   2.31293
    A3        2.13035    .00002    .00000    .00024    .00024   2.13059
    A4        1.83965   -.00001    .00000    .00001    .00001   1.83966
    A5        1.93073   -.00010    .00000   -.00032   -.00032   1.93041
    A6        2.10891    .00002    .00000   -.00019   -.00019   2.10872
    A7        2.24355    .00007    .00000    .00051    .00051   2.24405
    A8        2.19753   -.00002    .00000   -.00020   -.00020   2.19733
    A9        1.93944    .00003    .00000    .00011    .00011   1.93954
   A10        2.14622   -.00001    .00000    .00009    .00009   2.14631
   A11        2.19659   -.00006    .00000   -.00023   -.00023   2.19636
   A12        2.21138   -.00006    .00000   -.00019   -.00019   2.21120
   A13        1.87521    .00013    .00000    .00041    .00041   1.87562
    D1         .00000    .00000    .00000    .00000    .00000    .00000
    D2        3.14159    .00000    .00000    .00000    .00000   3.14159
    D3        3.14159    .00000    .00000    .00000    .00000   3.14159
    D4         .00000    .00000    .00000    .00000    .00000    .00000
    D5        3.14159    .00000    .00000    .00000    .00000   3.14159
    D6         .00000    .00000    .00000    .00000    .00000    .00000
    D7         .00000    .00000    .00000    .00000    .00000    .00000
    D8        3.14159    .00000    .00000    .00000    .00000   3.14159
    D9         .00000    .00000    .00000    .00000    .00000    .00000
   D10        3.14159    .00000    .00000    .00000    .00000   3.14159
   D11        3.14159    .00000    .00000    .00000    .00000   3.14159
   D12         .00000    .00000    .00000    .00000    .00000    .00000
   D13        3.14159    .00000    .00000    .00000    .00000   3.14159
   D14         .00000    .00000    .00000    .00000    .00000    .00000
   D15         .00000    .00000    .00000    .00000    .00000    .00000
   D16        3.14159    .00000    .00000    .00000    .00000   3.14159
         Item               Value     Threshold  Converged?
 Maximum Force             .000241      .000450     YES
 RMS     Force             .000072      .000300     YES
 Maximum Displacement      .000551      .001800     YES
 RMS     Displacement      .000216      .001200     YES
 Predicted change in Energy=-3.353349D-07
 Optimization completed.
    -- Stationary point found.
                         ----------------------------
                         !   Optimized Parameters   !
                         ! (Angstroms and Degrees)  !
 ------------------------                            -------------------------
 ! Name  Definition              Value          Derivative Info.             !
 -----------------------------------------------------------------------------
 ! R1    R(1,5)                  1.4108         -DE/DX =    0.0002           !
 ! R2    R(1,8)                  1.3436         -DE/DX =    0.               !
 ! R3    R(2,9)                  1.0163         -DE/DX =    0.               !
 ! R4    R(3,4)                  1.084          -DE/DX =    0.0001           !
 ! R5    R(3,5)                  1.388          -DE/DX =    0.0001           !
 ! R6    R(3,9)                  1.4049         -DE/DX =   -0.0002           !
 ! R7    R(5,6)                  1.0844         -DE/DX =    0.0001           !
 ! R8    R(7,8)                  1.0841         -DE/DX =    0.0001           !
 ! R9    R(8,9)                  1.3944         -DE/DX =   -0.0002           !
 ! A1    A(5,1,8)              105.4099         -DE/DX =   -0.0001           !
 ! A2    A(4,3,5)              132.5359         -DE/DX =    0.               !
 ! A3    A(4,3,9)              122.0599         -DE/DX =    0.               !
 ! A4    A(5,3,9)              105.4042         -DE/DX =    0.               !
 ! A5    A(1,5,3)              110.6228         -DE/DX =   -0.0001           !
 ! A6    A(1,5,6)              120.8314         -DE/DX =    0.               !
 ! A7    A(3,5,6)              128.5458         -DE/DX =    0.0001           !
 ! A8    A(1,8,7)              125.9093         -DE/DX =    0.               !
 ! A9    A(1,8,9)              111.1215         -DE/DX =    0.               !
 ! A10   A(7,8,9)              122.9692         -DE/DX =    0.               !
 ! A11   A(2,9,3)              125.8554         -DE/DX =   -0.0001           !
 ! A12   A(2,9,8)              126.703          -DE/DX =   -0.0001           !
 ! A13   A(3,9,8)              107.4416         -DE/DX =    0.0001           !
 ! D1    D(8,1,5,3)              0.             -DE/DX =    0.               !
 ! D2    D(8,1,5,6)            180.             -DE/DX =    0.               !
 ! D3    D(5,1,8,7)            180.             -DE/DX =    0.               !
 ! D4    D(5,1,8,9)              0.             -DE/DX =    0.               !
 ! D5    D(4,3,5,1)            180.             -DE/DX =    0.               !
 ! D6    D(4,3,5,6)              0.             -DE/DX =    0.               !
 ! D7    D(9,3,5,1)              0.             -DE/DX =    0.               !
 ! D8    D(9,3,5,6)            180.             -DE/DX =    0.               !
 ! D9    D(4,3,9,2)              0.             -DE/DX =    0.               !
 ! D10   D(4,3,9,8)            180.             -DE/DX =    0.               !
 ! D11   D(5,3,9,2)            180.             -DE/DX =    0.               !
 ! D12   D(5,3,9,8)              0.             -DE/DX =    0.               !
 ! D13   D(1,8,9,2)            180.             -DE/DX =    0.               !
 ! D14   D(1,8,9,3)              0.             -DE/DX =    0.               !
 ! D15   D(7,8,9,2)              0.             -DE/DX =    0.               !
 ! D16   D(7,8,9,3)            180.             -DE/DX =    0.               !
 -----------------------------------------------------------------------------
 GradGradGradGradGradGradGradGradGradGradGradGradGradGradGradGradGradGrad

 1\1\GINC-SNAKE\Freq\RBLYP\6-31G\C3H4N2\RUS\16-May-2000\0\\#N GEOM=ALLC
 HECK GUESS=TCHECK RBLYP/6-31G FREQ\\1H imidazole C3H4N2 casno=288324\\
 0,1\N,0.5068739013,0.,1.149441425\H,0.4884026251,0.,-2.0842828603\C,-1
 .040494454,0.,-0.5539924124\H,-1.9252337979,0.,-1.1803320903\C,-0.8655
 790557,0.,0.8229085026\H,-1.6217859647,0.,1.6001433466\H,2.2298155027,
 0.,-0.1623845585\C,1.1540281116,0.,-0.028074372\N,0.2561366736,0.,-1.0
 948977316\\Version=IBM-RS6000-G98RevA.7\State=1-A'\HF=-226.0674284\RMS
 D=3.033e-09\RMSF=1.375e-04\Dipole=-0.161694,0.,-1.5104591\DipoleDeriv=
 -0.3414278,-0.0000414,0.0404513,-0.0007843,-0.2886169,0.0002467,0.0138
 154,-0.0001168,-0.4981111,0.1850271,0.0000308,-0.0016793,0.0000602,0.3
 751257,-0.0000455,0.005112,-0.0001625,0.1051706,0.0099172,-0.0000608,-
 0.2074186,0.0002795,-0.0945393,-0.0002617,-0.0286017,0.0000627,0.20805
 46,0.0082429,-0.000051,-0.0464238,0.0000055,0.1780485,-0.0000183,-0.08
 27301,-0.0000592,0.0256998,0.1586245,0.0000027,-0.126744,0.0004351,-0.
 1219105,-0.0000649,-0.0931541,0.0001647,0.092672,-0.0064451,0.0000967,
 0.0761603,-0.0001433,0.144271,0.0000983,0.0791333,-0.0000948,0.0252267
 ,-0.0323127,0.000035,0.0249354,0.0000239,0.1596775,-0.0000973,0.041684
 9,-0.0000173,0.068274,0.1308933,-0.0000247,0.0983193,0.0008598,-0.0172
 105,-0.0004737,-0.0102991,0.0002335,0.481262,-0.1125187,0.0000129,0.14
 23989,-0.0007363,-0.3348451,0.0006165,0.0750395,-0.0000102,-0.5082477\
 Polar=49.634093,0.0018728,15.9495093,-0.8370952,-0.002508,47.1058494\P
 G=CS [SG(C3H4N2)]\NImag=0\\0.41959403,-0.00005448,0.09620268,-0.055096
 46,0.00003130,0.48507200,-0.00346847,-0.00000768,-0.00727719,0.0792202
 6,0.00000621,0.00625199,-0.00000321,0.00000071,0.01336800,-0.00256472,
 0.00003481,-0.00358226,-0.08843861,-0.00000325,0.42824116,-0.03558086,
 0.00003925,-0.01720648,0.00565016,-0.00000409,-0.00604645,0.69087228,0
 .00001291,0.01552029,-0.00000365,0.00000276,-0.00519667,-0.00001254,-0
 .00001426,0.10479334,-0.07852120,0.00004162,-0.02486251,0.02917506,-0.
 00000342,-0.00070834,0.16771283,-0.00001958,0.69209245,0.00128505,-0.0
 0002444,0.00168412,0.00007159,0.00000386,0.00035756,-0.24980806,0.0000
 1061,-0.13758669,0.26267122,0.00000046,0.00671505,-0.00000013,-0.00000
 013,-0.00110811,0.00000040,0.00000058,-0.02003327,-0.00000083,-0.00000
 033,0.01757307,-0.00336892,-0.00001822,-0.00425166,-0.00090793,0.00000
 293,0.00013968,-0.14823853,0.00000800,-0.15881497,0.14903233,-0.000000
 18,0.15339157,-0.20053298,-0.00001872,-0.01317003,-0.00796419,0.000001
 04,-0.00280426,-0.09499865,0.00000992,-0.01795374,0.00522318,-0.000000
 06,-0.02171369,0.59241429,0.00002601,-0.06484648,-0.00001357,0.0000023
 2,0.00276238,-0.00000986,-0.00001371,-0.06097313,-0.00001928,0.0000072
 0,-0.00160243,0.00000585,0.00000817,0.12401947,-0.03827718,0.00001132,
 -0.09152644,0.00327050,-0.00000371,0.00060791,-0.02997239,-0.00000174,
 -0.35825645,0.00331653,0.00000079,0.00170874,-0.17132777,-0.00000437,0
 .74642212,-0.01858527,0.00003972,0.01940231,0.00075217,-0.00000413,0.0
 0016011,0.00836822,-0.00001507,-0.00736036,-0.00014957,-0.00000010,0.0
 0075973,-0.18865731,-0.00001898,0.14673022,0.20317325,-0.00000542,-0.0
 0522734,0.00000045,0.00000031,0.00158453,-0.00000148,-0.00000026,-0.00
 053926,0.00000768,0.00000016,-0.00191025,-0.00000044,-0.00000189,-0.02
 708233,-0.00000160,0.00000483,0.02184906,-0.00852933,-0.00003720,0.010
 69192,0.00118171,0.00000408,0.00007687,0.02056782,0.00001294,-0.007638
 63,-0.00056440,0.00000009,-0.00033502,0.14903092,0.00001801,-0.2146845
 7,-0.15588097,-0.00000437,0.21522267,-0.00678379,0.00002811,0.00182785
 ,-0.00055468,-0.00000346,-0.00060054,0.00152532,-0.00000579,-0.0022500
 7,-0.00032520,0.00000061,0.00026581,0.00136840,-0.00001389,0.00149647,
 -0.00034659,0.00000090,-0.00013233,0.36228350,0.00000252,-0.00570990,-
 0.00000127,0.00000125,-0.00100891,-0.00000585,-0.00000555,0.00247715,-
 0.00000401,0.00000467,0.00158843,0.00000323,0.00000226,0.00663780,-0.0
 0000158,-0.00000316,0.00109147,0.00000263,-0.00000192,0.01854799,0.027
 67361,-0.00000246,-0.00071984,0.00052236,0.00000034,0.00010921,-0.0011
 3861,0.00000124,-0.00547102,-0.00091512,0.,0.00100119,0.00278060,0.000
 00124,-0.00392748,0.00131863,-0.00000055,0.00064426,-0.03668407,0.0000
 0036,0.05902729,-0.14887490,-0.00000662,0.09276473,0.01606837,0.000000
 64,0.01574909,-0.08985495,0.00000360,-0.00021390,-0.00220573,-0.000001
 06,0.00452943,-0.08993042,0.00000278,0.02052511,-0.00508038,0.00000131
 ,-0.00433717,-0.34583216,0.00000189,0.03562473,0.84448015,0.00005759,-
 0.06932849,-0.00003000,0.00000862,-0.00638969,-0.00003921,-0.00004440,
 0.01675533,-0.00005023,0.00003061,0.00271908,0.00002292,0.00002230,0.0
 0941781,-0.00001345,-0.00004550,0.00511040,0.00004198,-0.00002968,-0.0
 2095951,0.00000334,0.00000842,0.12032916,0.13137461,-0.00002672,-0.269
 76703,-0.01849724,0.00000229,-0.00982616,-0.04205521,0.00000013,-0.008
 12320,0.00317118,-0.00000011,-0.00566170,0.06071879,0.00000948,-0.0123
 1213,-0.00156022,0.00000285,0.00063566,0.03107872,0.00000092,-0.056521
 80,-0.08812781,0.00002206,0.53838002,-0.00705282,0.00000486,-0.0229288
 3,-0.08977520,-0.00000079,0.08418783,-0.23617345,-0.00000468,0.0469980
 8,-0.01676247,0.00000002,0.01964178,-0.01692232,0.00000010,0.06423851,
 0.00052550,0.00000005,-0.00133626,-0.01133478,-0.00000195,-0.02918214,
 -0.17877000,-0.00000796,-0.07610282,0.55626553,-0.00004580,0.02042219,
 0.00002010,-0.00000816,-0.01026353,0.00003698,0.00004242,-0.05280378,0
 .00004808,-0.00003233,-0.00394157,-0.00002408,-0.00002304,0.01166690,0
 .00001432,0.00004238,0.00512371,-0.00003817,0.00002512,-0.00266453,-0.
 00000352,-0.00001094,-0.05765409,-0.00001092,0.00001035,0.09011467,0.0
 2730960,-0.00003446,-0.10105417,0.08097134,0.00000395,-0.41505807,0.05
 637702,0.00001520,-0.12821734,-0.01849551,-0.00000002,0.01282217,0.014
 43918,0.00001249,-0.06803171,-0.00356944,-0.00000255,-0.00461316,0.004
 99817,0.00000557,0.00585820,-0.07651421,0.00004260,-0.17680367,-0.0855
 1616,-0.00004279,0.87509776\\-0.00023142,0.,-0.00002871,-0.00000454,0.
 ,0.00003680,-0.00025814,0.,0.00021583,0.00006387,0.,0.00001933,0.00022
 789,0.,-0.00001905,0.00001633,0.,-0.00005578,-0.00008916,0.,0.00000797
 ,0.00024099,0.,0.00022691,0.00003417,0.,-0.00040331\\\@


 IF YOU DON'T HAVE THE LAW - ARGUE THE FACTS.
 IF YOU DON'T HAVE THE FACTS - ARGUE THE LAW.
 IF YOU DON'T HAVE EITHER - POUND THE TABLE.
 Job cpu time:  0 days  0 hours  3 minutes 56.2 seconds.
 File lengths (MBytes):  RWF=   10 Int=    0 D2E=    0 Chk=    3 Scr=    1
 Normal termination of Gaussian 98.
