 Entering Gaussian System, Link 0=g98
 Initial command:
 /usr/local/apps/g98/g98/l1.exe /wrk/Gau-6942634.inp -scrdir=/wrk/
 Entering Link 1 = /usr/local/apps/g98/g98/l1.exe PID=   6946430.
  
 Copyright (c) 1988,1990,1992,1993,1995,1998 Gaussian, Inc.
                  All Rights Reserved.
  
 This is part of the Gaussian(R) 98 program.  It is based on
 the Gaussian 94(TM) system (copyright 1995 Gaussian, Inc.),
 the Gaussian 92(TM) system (copyright 1992 Gaussian, Inc.),
 the Gaussian 90(TM) system (copyright 1990 Gaussian, Inc.),
 the Gaussian 88(TM) system (copyright 1988 Gaussian, Inc.),
 the Gaussian 86(TM) system (copyright 1986 Carnegie Mellon
 University), and the Gaussian 82(TM) system (copyright 1983
 Carnegie Mellon University). Gaussian is a federally registered
 trademark of Gaussian, Inc.
  
 This software contains proprietary and confidential information,
 including trade secrets, belonging to Gaussian, Inc.
  
 This software is provided under written license and may be
 used, copied, transmitted, or stored only in accord with that
 written license.
  
 The following legend is applicable only to US Government
 contracts under DFARS:
  
                    RESTRICTED RIGHTS LEGEND
  
 Use, duplication or disclosure by the US Government is subject
 to restrictions as set forth in subparagraph (c)(1)(ii) of the
 Rights in Technical Data and Computer Software clause at DFARS
 252.227-7013.
  
 Gaussian, Inc.
 Carnegie Office Park, Building 6, Pittsburgh, PA 15106 USA
  
 The following legend is applicable only to US Government
 contracts under FAR:
  
                    RESTRICTED RIGHTS LEGEND
  
 Use, reproduction and disclosure by the US Government is subject
 to restrictions as set forth in subparagraph (c) of the
 Commercial Computer Software - Restricted Rights clause at FAR
 52.227-19.
  
 Gaussian, Inc.
 Carnegie Office Park, Building 6, Pittsburgh, PA 15106 USA
  
  
 ---------------------------------------------------------------
 Warning -- This program may not be used in any manner that
 competes with the business of Gaussian, Inc. or will provide
 assistance to any competitor of Gaussian, Inc.  The licensee
 of this program is prohibited from giving any competitor of
 Gaussian, Inc. access to this program.  By using this program,
 the user acknowledges that Gaussian, Inc. is engaged in the
 business of creating and licensing software in the field of
 computational chemistry and represents and warrants to the
 licensee that it is not a competitor of Gaussian, Inc. and that
 it will not use this program in any manner prohibited above.
 ---------------------------------------------------------------
  

 Cite this work as:
 Gaussian 98, Revision A.6,
 M. J. Frisch, G. W. Trucks, H. B. Schlegel, G. E. Scuseria, 
 M. A. Robb, J. R. Cheeseman, V. G. Zakrzewski, J. A. Montgomery, Jr., 
 R. E. Stratmann, J. C. Burant, S. Dapprich, J. M. Millam, 
 A. D. Daniels, K. N. Kudin, M. C. Strain, O. Farkas, J. Tomasi, 
 V. Barone, M. Cossi, R. Cammi, B. Mennucci, C. Pomelli, C. Adamo, 
 S. Clifford, J. Ochterski, G. A. Petersson, P. Y. Ayala, Q. Cui, 
 K. Morokuma, D. K. Malick, A. D. Rabuck, K. Raghavachari, 
 J. B. Foresman, J. Cioslowski, J. V. Ortiz, B. B. Stefanov, G. Liu, 
 A. Liashenko, P. Piskorz, I. Komaromi, R. Gomperts, R. L. Martin, 
 D. J. Fox, T. Keith, M. A. Al-Laham, C. Y. Peng, A. Nanayakkara, 
 C. Gonzalez, M. Challacombe, P. M. W. Gill, B. Johnson, W. Chen, 
 M. W. Wong, J. L. Andres, C. Gonzalez, M. Head-Gordon, 
 E. S. Replogle, and J. A. Pople, 
 Gaussian, Inc., Pittsburgh PA, 1998.

 ***************************************
 Gaussian 98:  SGI-G98RevA.6 19-Oct-1998
               23-May-2000 
 ***************************************
 %mem=24000000
 -----------------------
 #BLYP/6-31+G** opt freq
 -----------------------
 1/14=-1,18=20,26=3,38=1/1,3;
 2/9=110,17=6,18=5/2;
 3/5=1,6=6,7=111,11=2,25=1,30=1/1,2,3;
 4//1;
 5/5=2,38=4,42=402/2;
 6/7=2,8=2,9=2,10=2,28=1/1;
 7//1,2,3,16;
 1/14=-1,18=20/3(1);
 99//99;
 2/9=110/2;
 3/5=1,6=6,7=111,11=2,25=1,30=1/1,2,3;
 4/5=5,16=2/1;
 5/5=2,38=4,42=402/2;
 7//1,2,3,16;
 1/14=-1,18=20/3(-5);
 2/9=110/2;
 6/7=2,8=2,9=2,10=2,19=2,28=1/1;
 99/9=1/99;
 --------------------------------
 1H imidazole C3H4N2 casno=288324
 --------------------------------
 Symbolic Z-matrix:
 Charge =  0 Multiplicity = 1
 N                     0.30938   0.        1.30938 
 H                     0.3125    0.       -1.6875 
 C                    -1.06875   0.       -0.28438 
 H                    -1.91875   0.       -0.79063 
 C                    -0.93438   0.        1.02812 
 H                    -1.675     0.        1.6875 
 H                     1.91875   0.        0.09063 
 C                     0.93438   0.        0.19063 
 N                     0.09688   0.       -0.775 

 GradGradGradGradGradGradGradGradGradGradGradGradGradGradGradGradGradGrad
 Berny optimization.
 Initialization pass.
                         ----------------------------
                         !    Initial Parameters    !
                         ! (Angstroms and Degrees)  !
 ------------------------                            -------------------------
 ! Name  Definition              Value          Derivative Info.             !
 -----------------------------------------------------------------------------
 ! R1    R(1,5)                  1.2752         estimate D2E/DX2             !
 ! R2    R(1,8)                  1.2815         estimate D2E/DX2             !
 ! R3    R(2,9)                  0.9376         estimate D2E/DX2             !
 ! R4    R(3,4)                  0.9893         estimate D2E/DX2             !
 ! R5    R(3,5)                  1.3194         estimate D2E/DX2             !
 ! R6    R(3,9)                  1.2647         estimate D2E/DX2             !
 ! R7    R(5,6)                  0.9916         estimate D2E/DX2             !
 ! R8    R(7,8)                  0.9894         estimate D2E/DX2             !
 ! R9    R(8,9)                  1.2782         estimate D2E/DX2             !
 ! A1    A(5,1,8)              106.4483         estimate D2E/DX2             !
 ! A2    A(4,3,5)              126.6232         estimate D2E/DX2             !
 ! A3    A(4,3,9)              126.3957         estimate D2E/DX2             !
 ! A4    A(5,3,9)              106.9812         estimate D2E/DX2             !
 ! A5    A(1,5,3)              108.5877         estimate D2E/DX2             !
 ! A6    A(1,5,6)              125.5794         estimate D2E/DX2             !
 ! A7    A(3,5,6)              125.8329         estimate D2E/DX2             !
 ! A8    A(1,8,7)              124.9909         estimate D2E/DX2             !
 ! A9    A(1,8,9)              109.8741         estimate D2E/DX2             !
 ! A10   A(7,8,9)              125.1349         estimate D2E/DX2             !
 ! A11   A(2,9,3)              126.122          estimate D2E/DX2             !
 ! A12   A(2,9,8)              125.7693         estimate D2E/DX2             !
 ! A13   A(3,9,8)              108.1088         estimate D2E/DX2             !
 ! D1    D(8,1,5,3)              0.             estimate D2E/DX2             !
 ! D2    D(8,1,5,6)            180.             estimate D2E/DX2             !
 ! D3    D(5,1,8,7)            180.             estimate D2E/DX2             !
 ! D4    D(5,1,8,9)              0.             estimate D2E/DX2             !
 ! D5    D(4,3,5,1)            180.             estimate D2E/DX2             !
 ! D6    D(4,3,5,6)              0.             estimate D2E/DX2             !
 ! D7    D(9,3,5,1)              0.             estimate D2E/DX2             !
 ! D8    D(9,3,5,6)            180.             estimate D2E/DX2             !
 ! D9    D(4,3,9,2)              0.             estimate D2E/DX2             !
 ! D10   D(4,3,9,8)            180.             estimate D2E/DX2             !
 ! D11   D(5,3,9,2)            180.             estimate D2E/DX2             !
 ! D12   D(5,3,9,8)              0.             estimate D2E/DX2             !
 ! D13   D(1,8,9,2)            180.             estimate D2E/DX2             !
 ! D14   D(1,8,9,3)              0.             estimate D2E/DX2             !
 ! D15   D(7,8,9,2)              0.             estimate D2E/DX2             !
 ! D16   D(7,8,9,3)            180.             estimate D2E/DX2             !
 -----------------------------------------------------------------------------
 Trust Radius=3.00D-01 FncErr=1.00D-07 GrdErr=1.00D-06
 Number of steps in this run=  48 maximum allowed number of steps= 100.
 GradGradGradGradGradGradGradGradGradGradGradGradGradGradGradGradGradGrad

                          Input orientation:                          
 ---------------------------------------------------------------------
 Center     Atomic     Atomic              Coordinates (Angstroms)
 Number     Number      Type              X           Y           Z
 ---------------------------------------------------------------------
    1          7             0        0.309375    0.000000    1.309375
    2          1             0        0.312500    0.000000   -1.687500
    3          6             0       -1.068750    0.000000   -0.284375
    4          1             0       -1.918750    0.000000   -0.790625
    5          6             0       -0.934375    0.000000    1.028125
    6          1             0       -1.675000    0.000000    1.687500
    7          1             0        1.918750    0.000000    0.090625
    8          6             0        0.934375    0.000000    0.190625
    9          7             0        0.096875    0.000000   -0.775000
 ---------------------------------------------------------------------
                    Distance matrix (angstroms):
                    1          2          3          4          5
     1  N    0.000000
     2  H    2.996877   0.000000
     3  C    2.106957   1.968911   0.000000
     4  H    3.061787   2.404758   0.989338   0.000000
     5  C    1.275153   2.988196   1.319361   2.068054   0.000000
     6  H    2.020080   3.916731   2.062966   2.490084   0.991615
     7  H    2.018772   2.396199   3.010944   3.937386   3.003203
     8  C    1.281494   1.978404   2.058673   3.017147   2.047836
     9  N    2.095179   0.937630   1.264672   2.015686   2.077194
                    6          7          8          9
     6  H    0.000000
     7  H    3.932563   0.000000
     8  C    3.008234   0.989441   0.000000
     9  N    3.033718   2.017061   1.278217   0.000000
 Stoichiometry    C3H4N2
 Framework group  CS[SG(C3H4N2)]
 Deg. of freedom   15
 Full point group                 CS      NOp   2
 Largest Abelian subgroup         CS      NOp   2
 Largest concise Abelian subgroup C1      NOp   1
                         Standard orientation:                         
 ---------------------------------------------------------------------
 Center     Atomic     Atomic              Coordinates (Angstroms)
 Number     Number      Type              X           Y           Z
 ---------------------------------------------------------------------
    1          7             0       -0.674969   -0.941702    0.000000
    2          1             0       -0.005288    1.979393    0.000000
    3          6             0        1.025744    0.302019    0.000000
    4          1             0        1.967693    0.604544    0.000000
    5          6             0        0.600174   -0.946822    0.000000
    6          1             0        1.173884   -1.755622    0.000000
    7          1             0       -1.969692    0.607211    0.000000
    8          6             0       -1.032886    0.288794    0.000000
    9          7             0        0.000000    1.041778    0.000000
 ---------------------------------------------------------------------
 Rotational constants (GHZ):     11.1543393     10.4769603      5.4025219
 Isotopes: N-14,H-1,C-12,H-1,C-12,H-1,H-1,C-12,N-14
 Standard basis: 6-31+G(d,p) (6D, 7F)
 There are    86 symmetry adapted basis functions of A'  symmetry.
 There are    29 symmetry adapted basis functions of A"  symmetry.
 Crude estimate of integral set expansion from redundant integrals=1.000.
 Integral buffers will be    262144 words long.
 Raffenetti 2 integral format.
 Two-electron integral symmetry is turned on.
   115 basis functions      188 primitive gaussians
    18 alpha electrons       18 beta electrons
       nuclear repulsion energy       173.5664837334 Hartrees.
 One-electron integrals computed using PRISM.
 NBasis=   115 RedAO= T  NBF=    86    29
 NBsUse=   115 1.00D-04 NBFU=    86    29
 Projected INDO Guess.
 Initial guess orbital symmetries:
       Occupied  (A') (A') (A') (A') (A') (A') (A') (A') (A') (A')
                 (A') (A") (A') (A') (A') (A") (A') (A")
       Virtual   (A") (A') (A') (A") (A') (A') (A') (A') (A') (A')
                 (A') (A') (A') (A') (A') (A') (A') (A') (A') (A')
                 (A') (A') (A') (A') (A') (A') (A') (A') (A') (A')
                 (A') (A') (A') (A') (A') (A') (A') (A') (A') (A')
                 (A') (A') (A') (A') (A') (A') (A') (A') (A') (A')
                 (A') (A') (A') (A') (A') (A') (A') (A') (A') (A')
                 (A') (A') (A') (A') (A') (A') (A') (A') (A') (A')
                 (A') (A') (A') (A") (A") (A") (A") (A") (A") (A")
                 (A") (A") (A") (A") (A") (A") (A") (A") (A") (A")
                 (A") (A") (A") (A") (A") (A") (A")
 Requested convergence on RMS density matrix=1.00D-08 within  64 cycles.
 Requested convergence on MAX density matrix=1.00D-06.
 SCF Done:  E(RB-LYP) =  -226.077902752     A.U. after   13 cycles
             Convg  =    0.3030D-08             -V/T =  2.0012
             S**2   =   0.0000

 **********************************************************************

            Population analysis using the SCF density.

 **********************************************************************

 Orbital Symmetries:
       Occupied  (A') (A') (A') (A') (A') (A') (A') (A') (A') (A')
                 (A') (A") (A') (A') (A') (A") (A') (A")
       Virtual   (A') (A") (A') (A') (A") (A') (A') (A") (A') (A")
                 (A") (A') (A') (A') (A') (A") (A') (A') (A") (A')
                 (A') (A') (A') (A') (A') (A') (A') (A') (A') (A')
                 (A') (A") (A") (A") (A') (A') (A') (A') (A') (A')
                 (A") (A') (A') (A') (A") (A') (A') (A') (A') (A')
                 (A") (A') (A') (A') (A") (A") (A") (A') (A") (A')
                 (A') (A') (A') (A") (A') (A') (A") (A') (A") (A")
                 (A') (A') (A") (A') (A') (A") (A') (A') (A') (A")
                 (A') (A") (A") (A') (A') (A') (A') (A') (A') (A')
                 (A') (A') (A') (A') (A') (A') (A')
  The electronic state is 1-A'.
 Alpha  occ. eigenvalues --  -14.08610 -13.99156  -9.95257  -9.92673  -9.90883
 Alpha  occ. eigenvalues --   -0.98657  -0.82199  -0.69231  -0.58814  -0.55283
 Alpha  occ. eigenvalues --   -0.53228  -0.41760  -0.41482  -0.39250  -0.37339
 Alpha  occ. eigenvalues --   -0.26170  -0.20896  -0.19883
 Alpha virt. eigenvalues --   -0.01927   0.00743   0.01553   0.02703   0.04084
 Alpha virt. eigenvalues --    0.04780   0.05160   0.05389   0.06822   0.08456
 Alpha virt. eigenvalues --    0.10376   0.10583   0.11601   0.13700   0.15022
 Alpha virt. eigenvalues --    0.17547   0.18962   0.20365   0.21274   0.21530
 Alpha virt. eigenvalues --    0.23188   0.24784   0.25100   0.25656   0.28433
 Alpha virt. eigenvalues --    0.30758   0.31141   0.32326   0.44584   0.46580
 Alpha virt. eigenvalues --    0.53350   0.63456   0.64446   0.67382   0.67682
 Alpha virt. eigenvalues --    0.68381   0.76522   0.80621   0.82748   0.85113
 Alpha virt. eigenvalues --    0.86894   0.88936   0.89876   0.94243   0.94817
 Alpha virt. eigenvalues --    0.98941   1.01050   1.02072   1.09895   1.14052
 Alpha virt. eigenvalues --    1.17494   1.22637   1.25960   1.28918   1.29925
 Alpha virt. eigenvalues --    1.31628   1.41906   1.47005   1.47712   1.55536
 Alpha virt. eigenvalues --    1.74356   1.91180   1.95781   2.01314   2.01488
 Alpha virt. eigenvalues --    2.05348   2.10175   2.12285   2.20547   2.23858
 Alpha virt. eigenvalues --    2.26856   2.33463   2.38086   2.41559   2.46180
 Alpha virt. eigenvalues --    2.47030   2.53522   2.62650   2.63984   2.64670
 Alpha virt. eigenvalues --    2.65838   2.75906   2.88973   2.90854   3.05115
 Alpha virt. eigenvalues --    3.08595   3.20086   3.39710   3.40396   3.53031
 Alpha virt. eigenvalues --    3.83030   3.91246   4.11713   4.23363   4.30000
 Alpha virt. eigenvalues --    4.51846   4.92198
          Condensed to atoms (all electrons):
              1          2          3          4          5          6
  1  N    6.883855   0.022091   0.058795   0.015703   0.312758  -0.099571
  2  H    0.022091   0.472985   0.008552  -0.005317  -0.013985  -0.000124
  3  C    0.058795   0.008552   5.431787   0.396676   0.381261  -0.170312
  4  H    0.015703  -0.005317   0.396676   0.613254  -0.073097  -0.002171
  5  C    0.312758  -0.013985   0.381261  -0.073097   5.086821   0.468112
  6  H   -0.099571  -0.000124  -0.170312  -0.002171   0.468112   0.661910
  7  H   -0.083256  -0.000880  -0.007682  -0.000237   0.009261  -0.000084
  8  C    0.283962  -0.040128  -0.531071   0.031365  -0.019279   0.056182
  9  N   -0.026829   0.296931   0.493001  -0.074912  -0.200502   0.006737
              7          8          9
  1  N   -0.083256   0.283962  -0.026829
  2  H   -0.000880  -0.040128   0.296931
  3  C   -0.007682  -0.531071   0.493001
  4  H   -0.000237   0.031365  -0.074912
  5  C    0.009261  -0.019279  -0.200502
  6  H   -0.000084   0.056182   0.006737
  7  H    0.630425   0.480139  -0.126893
  8  C    0.480139   5.484577   0.127181
  9  N   -0.126893   0.127181   6.789635
 Total atomic charges:
              1
  1  N   -0.367506
  2  H    0.259874
  3  C   -0.061007
  4  H    0.098736
  5  C    0.048650
  6  H    0.079321
  7  H    0.099208
  8  C    0.127073
  9  N   -0.284349
 Sum of Mulliken charges=   0.00000
 Atomic charges with hydrogens summed into heavy atoms:
              1
  1  N   -0.367506
  2  H    0.000000
  3  C    0.037729
  4  H    0.000000
  5  C    0.127971
  6  H    0.000000
  7  H    0.000000
  8  C    0.226281
  9  N   -0.024475
 Sum of Mulliken charges=   0.00000
 Electronic spatial extent (au):  <R**2>=   260.6393
 Charge=     0.0000 electrons
 Dipole moment (Debye):
    X=     1.1941    Y=     3.7309    Z=     0.0000  Tot=     3.9174
 Quadrupole moment (Debye-Ang):
   XX=   -27.9175   YY=   -26.5335   ZZ=   -31.1760
   XY=    -3.3341   XZ=     0.0000   YZ=     0.0000
 Octapole moment (Debye-Ang**2):
  XXX=     0.7897  YYY=    16.3725  ZZZ=     0.0000  XYY=     5.1260
  XXY=     5.4015  XXZ=     0.0000  XZZ=    -0.6535  YZZ=     1.5360
  YYZ=     0.0000  XYZ=     0.0000
 Hexadecapole moment (Debye-Ang**3):
 XXXX=  -151.6236 YYYY=  -139.1876 ZZZZ=   -36.6727 XXXY=    -3.9133
 XXXZ=     0.0000 YYYX=    -8.2788 YYYZ=     0.0000 ZZZX=     0.0000
 ZZZY=     0.0000 XXYY=   -55.8107 XXZZ=   -37.4217 YYZZ=   -34.7184
 XXYZ=     0.0000 YYXZ=     0.0000 ZZXY=     0.3525
 N-N= 1.735664837334D+02 E-N=-8.735827863437D+02  KE= 2.258092131435D+02
 Symmetry A'   KE= 2.175412190826D+02
 Symmetry A"   KE= 8.267994060888D+00
 ***** Axes restored to original set *****
 -------------------------------------------------------------------
 Center     Atomic                   Forces (Hartrees/Bohr)
 Number     Number              X              Y              Z
 -------------------------------------------------------------------
    1          7           0.085288954    0.000000000    0.102320963
    2          1           0.020310024    0.000000000   -0.086385897
    3          6          -0.088420588    0.000000000    0.010583240
    4          1          -0.072454057    0.000000000   -0.052630356
    5          6          -0.039189491    0.000000000   -0.002343866
    6          1          -0.062604859    0.000000000    0.061963357
    7          1           0.088717855    0.000000000   -0.011548187
    8          6           0.034653505    0.000000000    0.040633067
    9          7           0.033698656    0.000000000   -0.062592321
 -------------------------------------------------------------------
 Cartesian Forces:  Max     0.102320963 RMS     0.049731955

 GradGradGradGradGradGradGradGradGradGradGradGradGradGradGradGradGradGrad
 Berny optimization.
 Internal  Forces:  Max     0.145318784 RMS     0.051862940
 Search for a local minimum.
 Step number   1 out of a maximum of  48
 All quantities printed in internal units (Hartrees-Bohrs-Radians)
 Second derivative matrix not updated -- first step.
     Eigenvalues ---    0.03211   0.03261   0.03288   0.03318   0.03352
     Eigenvalues ---    0.03407   0.16000   0.16000   0.16000   0.16000
     Eigenvalues ---    0.22000   0.22917   0.49193   0.49594   0.49613
     Eigenvalues ---    0.54578   0.60577   0.63413   0.68379   0.73836
     Eigenvalues ---    0.765081000.000001000.000001000.000001000.00000
     Eigenvalues --- 1000.000001000.000001000.000001000.000001000.00000
     Eigenvalues --- 1000.000001000.000001000.000001000.000001000.00000
     Eigenvalues --- 1000.000001000.000001000.00000
 RFO step:  Lambda=-1.31209438D-01.
 Linear search not attempted -- first point.
 Maximum step size (   0.300) exceeded in Quadratic search.
    -- Step size scaled by   0.720
 Iteration  1 RMS(Cart)=  0.06640158 RMS(Int)=  0.00034813
 Iteration  2 RMS(Cart)=  0.00040296 RMS(Int)=  0.00008682
 Iteration  3 RMS(Cart)=  0.00000018 RMS(Int)=  0.00008682
 Variable       Old X    -DE/DX   Delta X   Delta X   Delta X     New X
                                 (Linear)    (Quad)   (Total)
    R1        2.40969   0.13122   0.00000   0.10550   0.10543   2.51512
    R2        2.42167   0.07970   0.00000   0.06550   0.06535   2.48702
    R3        1.77186   0.08874   0.00000   0.08670   0.08670   1.85856
    R4        1.86958   0.08918   0.00000   0.10235   0.10235   1.97193
    R5        2.49323   0.09589   0.00000   0.09187   0.09198   2.58522
    R6        2.38988   0.14532   0.00000   0.11696   0.11710   2.50698
    R7        1.87388   0.08796   0.00000   0.10163   0.10163   1.97551
    R8        1.86977   0.08943   0.00000   0.10267   0.10267   1.97245
    R9        2.41548   0.12706   0.00000   0.10678   0.10675   2.52223
    A1        1.85787   0.00537   0.00000   0.00022  -0.00006   1.85781
    A2        2.20999   0.01459   0.00000   0.03019   0.03006   2.24005
    A3        2.20602  -0.00063   0.00000  -0.00743  -0.00756   2.19847
    A4        1.86717  -0.01396   0.00000  -0.02276  -0.02251   1.84467
    A5        1.89521   0.00935   0.00000   0.01523   0.01529   1.91050
    A6        2.19177  -0.00904   0.00000  -0.01840  -0.01843   2.17334
    A7        2.19620  -0.00031   0.00000   0.00317   0.00314   2.19934
    A8        2.18150   0.00222   0.00000   0.00532   0.00539   2.18690
    A9        1.91767   0.00028   0.00000   0.00105   0.00090   1.91857
   A10        2.18402  -0.00250   0.00000  -0.00637  -0.00629   2.17772
   A11        2.20124   0.00042   0.00000  -0.00336  -0.00342   2.19783
   A12        2.19509   0.00061   0.00000  -0.00290  -0.00296   2.19213
   A13        1.88685  -0.00103   0.00000   0.00626   0.00638   1.89323
    D1        0.00000   0.00000   0.00000   0.00000   0.00000   0.00000
    D2        3.14159   0.00000   0.00000   0.00000   0.00000   3.14159
    D3        3.14159   0.00000   0.00000   0.00000   0.00000   3.14159
    D4        0.00000   0.00000   0.00000   0.00000   0.00000   0.00000
    D5        3.14159   0.00000   0.00000   0.00000   0.00000   3.14159
    D6        0.00000   0.00000   0.00000   0.00000   0.00000   0.00000
    D7        0.00000   0.00000   0.00000   0.00000   0.00000   0.00000
    D8        3.14159   0.00000   0.00000   0.00000   0.00000   3.14159
    D9        0.00000   0.00000   0.00000   0.00000   0.00000   0.00000
   D10        3.14159   0.00000   0.00000   0.00000   0.00000   3.14159
   D11        3.14159   0.00000   0.00000   0.00000   0.00000   3.14159
   D12        0.00000   0.00000   0.00000   0.00000   0.00000   0.00000
   D13        3.14159   0.00000   0.00000   0.00000   0.00000   3.14159
   D14        0.00000   0.00000   0.00000   0.00000   0.00000   0.00000
   D15        0.00000   0.00000   0.00000   0.00000   0.00000   0.00000
   D16        3.14159   0.00000   0.00000   0.00000   0.00000   3.14159
         Item               Value     Threshold  Converged?
 Maximum Force            0.145319     0.000450     NO 
 RMS     Force            0.051863     0.000300     NO 
 Maximum Displacement     0.189959     0.001800     NO 
 RMS     Displacement     0.066361     0.001200     NO 
 Predicted change in Energy=-2.810810D-02
 GradGradGradGradGradGradGradGradGradGradGradGradGradGradGradGradGradGrad

                          Input orientation:                          
 ---------------------------------------------------------------------
 Center     Atomic     Atomic              Coordinates (Angstroms)
 Number     Number      Type              X           Y           Z
 ---------------------------------------------------------------------
    1          7             0        0.475629    0.000000    1.113518
    2          1             0        0.476016    0.000000   -2.000778
    3          6             0       -0.981363    0.000000   -0.539815
    4          1             0       -1.869482    0.000000   -1.087664
    5          6             0       -0.822307    0.000000    0.818945
    6          1             0       -1.590714    0.000000    1.527751
    7          1             0        2.156251    0.000000   -0.145293
    8          6             0        1.118326    0.000000   -0.034956
    9          7             0        0.245455    0.000000   -1.044676
 ---------------------------------------------------------------------
                    Distance matrix (angstroms):
                    1          2          3          4          5
     1  N    0.000000
     2  H    3.114296   0.000000
     3  C    2.203709   2.063581   0.000000
     4  H    3.216325   2.516970   1.043501   0.000000
     5  C    1.330944   3.104268   1.368037   2.175254   0.000000
     6  H    2.107454   4.089241   2.155490   2.630229   1.045397
     7  H    2.099785   2.503201   3.162320   4.134560   3.130745
     8  C    1.316074   2.068096   2.159532   3.167837   2.120189
     9  N    2.170434   0.983509   1.326637   2.115373   2.147836
                    6          7          8          9
     6  H    0.000000
     7  H    4.103514   0.000000
     8  C    3.127451   1.043773   0.000000
     9  N    3.160522   2.111879   1.334706   0.000000
 Stoichiometry    C3H4N2
 Framework group  CS[SG(C3H4N2)]
 Deg. of freedom   15
 Full point group                 CS      NOp   2
 Largest Abelian subgroup         CS      NOp   2
 Largest concise Abelian subgroup C1      NOp   1
                         Standard orientation:                         
 ---------------------------------------------------------------------
 Center     Atomic     Atomic              Coordinates (Angstroms)
 Number     Number      Type              X           Y           Z
 ---------------------------------------------------------------------
    1          7             0       -0.709278   -0.972304    0.000000
    2          1             0       -0.009809    2.062426    0.000000
    3          6             0        1.081987    0.311326    0.000000
    4          1             0        2.070503    0.645584    0.000000
    5          6             0        0.621658   -0.976938    0.000000
    6          1             0        1.211128   -1.840292    0.000000
    7          1             0       -2.064035    0.631981    0.000000
    8          6             0       -1.077451    0.291223    0.000000
    9          7             0        0.000000    1.078966    0.000000
 ---------------------------------------------------------------------
 Rotational constants (GHZ):     10.1771032      9.7680417      4.9841888
 Isotopes: N-14,H-1,C-12,H-1,C-12,H-1,H-1,C-12,N-14
 Standard basis: 6-31+G(d,p) (6D, 7F)
 There are    86 symmetry adapted basis functions of A'  symmetry.
 There are    29 symmetry adapted basis functions of A"  symmetry.
 Crude estimate of integral set expansion from redundant integrals=1.000.
 Integral buffers will be    262144 words long.
 Raffenetti 2 integral format.
 Two-electron integral symmetry is turned on.
   115 basis functions      188 primitive gaussians
    18 alpha electrons       18 beta electrons
       nuclear repulsion energy       166.6064497692 Hartrees.
 One-electron integrals computed using PRISM.
 NBasis=   115 RedAO= T  NBF=    86    29
 NBsUse=   115 1.00D-04 NBFU=    86    29
 Initial guess read from the read-write file:
 Initial guess orbital symmetries:
       Occupied  (A') (A') (A') (A') (A') (A') (A') (A') (A') (A')
                 (A') (A") (A') (A') (A') (A") (A') (A")
       Virtual   (A') (A") (A') (A') (A") (A') (A') (A") (A') (A")
                 (A") (A') (A') (A') (A') (A") (A') (A') (A") (A')
                 (A') (A') (A') (A') (A') (A') (A') (A') (A') (A')
                 (A') (A") (A") (A") (A') (A') (A') (A') (A') (A')
                 (A") (A') (A') (A') (A") (A') (A') (A') (A') (A')
                 (A") (A') (A') (A') (A") (A") (A") (A') (A") (A')
                 (A') (A') (A') (A") (A') (A') (A") (A') (A") (A")
                 (A') (A') (A") (A') (A') (A") (A') (A') (A') (A")
                 (A') (A") (A") (A') (A') (A') (A') (A') (A') (A')
                 (A') (A') (A') (A') (A') (A') (A')
 Requested convergence on RMS density matrix=1.00D-08 within  64 cycles.
 Requested convergence on MAX density matrix=1.00D-06.
 SCF Done:  E(RB-LYP) =  -226.141410296     A.U. after   12 cycles
             Convg  =    0.8702D-09             -V/T =  2.0066
             S**2   =   0.0000
 ***** Axes restored to original set *****
 -------------------------------------------------------------------
 Center     Atomic                   Forces (Hartrees/Bohr)
 Number     Number              X              Y              Z
 -------------------------------------------------------------------
    1          7           0.037939160    0.000000000    0.040560657
    2          1           0.007319535    0.000000000   -0.031983535
    3          6          -0.038373714    0.000000000    0.016610571
    4          1          -0.024924747    0.000000000   -0.023032284
    5          6          -0.016875650    0.000000000   -0.012268767
    6          1          -0.021584280    0.000000000    0.025263198
    7          1           0.032948269    0.000000000   -0.005806731
    8          6           0.005779850    0.000000000    0.021977034
    9          7           0.017771577    0.000000000   -0.031320144
 -------------------------------------------------------------------
 Cartesian Forces:  Max     0.040560657 RMS     0.020667702

 GradGradGradGradGradGradGradGradGradGradGradGradGradGradGradGradGradGrad
 Berny optimization.
 Internal  Forces:  Max     0.057550875 RMS     0.019586246
 Search for a local minimum.
 Step number   2 out of a maximum of  48
 All quantities printed in internal units (Hartrees-Bohrs-Radians)
 Update second derivatives using information from points  1  2
 Trust test= 2.26D+00 RLast= 3.00D-01 DXMaxT set to 4.24D-01
     Eigenvalues ---    0.03210   0.03262   0.03288   0.03315   0.03351
     Eigenvalues ---    0.03406   0.15933   0.16000   0.16000   0.16000
     Eigenvalues ---    0.22084   0.22836   0.49306   0.49604   0.51159
     Eigenvalues ---    0.55654   0.61021   0.63972   0.70320   0.73006
     Eigenvalues ---    0.756581000.000001000.000001000.000001000.00000
     Eigenvalues --- 1000.000001000.000001000.000001000.000001000.00000
     Eigenvalues --- 1000.000001000.000001000.000001000.000001000.00000
     Eigenvalues --- 1000.000001000.000001000.00000
 RFO step:  Lambda=-2.26330358D-03.
 Quartic linear search produced a step of  0.81165.
 Iteration  1 RMS(Cart)=  0.05573064 RMS(Int)=  0.00102162
 Iteration  2 RMS(Cart)=  0.00120927 RMS(Int)=  0.00010742
 Iteration  3 RMS(Cart)=  0.00000177 RMS(Int)=  0.00010741
 Iteration  4 RMS(Cart)=  0.00000000 RMS(Int)=  0.00010741
 Variable       Old X    -DE/DX   Delta X   Delta X   Delta X     New X
                                 (Linear)    (Quad)   (Total)
    R1        2.51512   0.05167   0.08557   0.00300   0.08845   2.60357
    R2        2.48702   0.02618   0.05304  -0.01068   0.04219   2.52921
    R3        1.85856   0.03281   0.07037  -0.00004   0.07033   1.92889
    R4        1.97193   0.03331   0.08308   0.00529   0.08837   2.06030
    R5        2.58522   0.03088   0.07466  -0.01388   0.06086   2.64608
    R6        2.50698   0.05755   0.09504   0.00490   0.10012   2.60710
    R7        1.97551   0.03299   0.08249   0.00598   0.08847   2.06398
    R8        1.97245   0.03338   0.08333   0.00524   0.08857   2.06102
    R9        2.52223   0.04816   0.08664   0.00008   0.08674   2.60897
    A1        1.85781  -0.00125  -0.00005  -0.02931  -0.02973   1.82808
    A2        2.24005   0.00882   0.02440   0.05078   0.07504   2.31509
    A3        2.19847  -0.00403  -0.00613  -0.04875  -0.05502   2.14344
    A4        1.84467  -0.00478  -0.01827  -0.00203  -0.02002   1.82465
    A5        1.91050   0.00587   0.01241   0.02100   0.03340   1.94390
    A6        2.17334  -0.00682  -0.01496  -0.04132  -0.05628   2.11707
    A7        2.19934   0.00095   0.00255   0.02032   0.02288   2.22222
    A8        2.18690   0.00044   0.00438   0.00376   0.00819   2.19509
    A9        1.91857   0.00365   0.00073   0.02934   0.02996   1.94853
   A10        2.17772  -0.00408  -0.00511  -0.03310  -0.03815   2.13957
   A11        2.19783   0.00138  -0.00277   0.00579   0.00291   2.20073
   A12        2.19213   0.00210  -0.00240   0.01322   0.01071   2.20284
   A13        1.89323  -0.00348   0.00518  -0.01900  -0.01361   1.87962
    D1        0.00000   0.00000   0.00000   0.00000   0.00000   0.00000
    D2        3.14159   0.00000   0.00000   0.00000   0.00000   3.14159
    D3        3.14159   0.00000   0.00000   0.00000   0.00000   3.14159
    D4        0.00000   0.00000   0.00000   0.00000   0.00000   0.00000
    D5        3.14159   0.00000   0.00000   0.00000   0.00000   3.14159
    D6        0.00000   0.00000   0.00000   0.00000   0.00000   0.00000
    D7        0.00000   0.00000   0.00000   0.00000   0.00000   0.00000
    D8        3.14159   0.00000   0.00000   0.00000   0.00000   3.14159
    D9        0.00000   0.00000   0.00000   0.00000   0.00000   0.00000
   D10        3.14159   0.00000   0.00000   0.00000   0.00000   3.14159
   D11        3.14159   0.00000   0.00000   0.00000   0.00000   3.14159
   D12        0.00000   0.00000   0.00000   0.00000   0.00000   0.00000
   D13        3.14159   0.00000   0.00000   0.00000   0.00000   3.14159
   D14        0.00000   0.00000   0.00000   0.00000   0.00000   0.00000
   D15        0.00000   0.00000   0.00000   0.00000   0.00000   0.00000
   D16        3.14159   0.00000   0.00000   0.00000   0.00000   3.14159
         Item               Value     Threshold  Converged?
 Maximum Force            0.057551     0.000450     NO 
 RMS     Force            0.019586     0.000300     NO 
 Maximum Displacement     0.161660     0.001800     NO 
 RMS     Displacement     0.055577     0.001200     NO 
 Predicted change in Energy=-2.052575D-02
 GradGradGradGradGradGradGradGradGradGradGradGradGradGradGradGradGradGrad

                          Input orientation:                          
 ---------------------------------------------------------------------
 Center     Atomic     Atomic              Coordinates (Angstroms)
 Number     Number      Type              X           Y           Z
 ---------------------------------------------------------------------
    1          7             0        0.497703    0.000000    1.159043
    2          1             0        0.491576    0.000000   -2.067681
    3          6             0       -1.029165    0.000000   -0.553840
    4          1             0       -1.923064    0.000000   -1.178035
    5          6             0       -0.841086    0.000000    0.833715
    6          1             0       -1.612820    0.000000    1.606605
    7          1             0        2.215901    0.000000   -0.158185
    8          6             0        1.134265    0.000000   -0.018286
    9          7             0        0.247603    0.000000   -1.076542
 ---------------------------------------------------------------------
                    Distance matrix (angstroms):
                    1          2          3          4          5
     1  N    0.000000
     2  H    3.226730   0.000000
     3  C    2.294623   2.145779   0.000000
     4  H    3.364824   2.573316   1.090263   0.000000
     5  C    1.377750   3.192818   1.400244   2.284253   0.000000
     6  H    2.157456   4.234248   2.237895   2.801869   1.092214
     7  H    2.165016   2.572833   3.269097   4.262759   3.213882
     8  C    1.338400   2.147806   2.228733   3.269905   2.151260
     9  N    2.249531   1.020725   1.379621   2.173038   2.198710
                    6          7          8          9
     6  H    0.000000
     7  H    4.215873   0.000000
     8  C    3.191668   1.090645   0.000000
     9  N    3.265034   2.171998   1.380608   0.000000
 Stoichiometry    C3H4N2
 Framework group  CS[SG(C3H4N2)]
 Deg. of freedom   15
 Full point group                 CS      NOp   2
 Largest Abelian subgroup         CS      NOp   2
 Largest concise Abelian subgroup C1      NOp   1
                         Standard orientation:                         
 ---------------------------------------------------------------------
 Center     Atomic     Atomic              Coordinates (Angstroms)
 Number     Number      Type              X           Y           Z
 ---------------------------------------------------------------------
    1          7             0       -0.742087   -1.009317    0.000000
    2          1             0       -0.016927    2.134872    0.000000
    3          6             0        1.128148    0.320162    0.000000
    4          1             0        2.138684    0.729418    0.000000
    5          6             0        0.635535   -0.990569    0.000000
    6          1             0        1.215590   -1.916024    0.000000
    7          1             0       -2.123473    0.657735    0.000000
    8          6             0       -1.100228    0.280275    0.000000
    9          7             0        0.000000    1.114287    0.000000
 ---------------------------------------------------------------------
 Rotational constants (GHZ):      9.6646047      9.1034778      4.6878265
 Isotopes: N-14,H-1,C-12,H-1,C-12,H-1,H-1,C-12,N-14
 Standard basis: 6-31+G(d,p) (6D, 7F)
 There are    86 symmetry adapted basis functions of A'  symmetry.
 There are    29 symmetry adapted basis functions of A"  symmetry.
 Crude estimate of integral set expansion from redundant integrals=1.000.
 Integral buffers will be    262144 words long.
 Raffenetti 2 integral format.
 Two-electron integral symmetry is turned on.
   115 basis functions      188 primitive gaussians
    18 alpha electrons       18 beta electrons
       nuclear repulsion energy       161.5166211524 Hartrees.
 One-electron integrals computed using PRISM.
 NBasis=   115 RedAO= T  NBF=    86    29
 NBsUse=   115 1.00D-04 NBFU=    86    29
 Initial guess read from the read-write file:
 Initial guess orbital symmetries:
       Occupied  (A') (A') (A') (A') (A') (A') (A') (A') (A') (A')
                 (A') (A') (A") (A') (A') (A") (A') (A")
       Virtual   (A') (A") (A') (A') (A") (A') (A') (A") (A') (A")
                 (A") (A') (A') (A') (A') (A") (A') (A') (A') (A")
                 (A') (A') (A') (A') (A') (A') (A') (A') (A') (A')
                 (A') (A") (A') (A") (A") (A') (A') (A') (A') (A')
                 (A") (A') (A') (A') (A") (A') (A') (A') (A') (A')
                 (A") (A') (A') (A') (A") (A") (A") (A') (A") (A')
                 (A') (A') (A') (A') (A') (A") (A') (A") (A") (A')
                 (A") (A') (A") (A') (A") (A') (A') (A") (A') (A')
                 (A') (A") (A") (A') (A') (A') (A') (A') (A') (A')
                 (A') (A') (A') (A') (A') (A') (A')
 Requested convergence on RMS density matrix=1.00D-08 within  64 cycles.
 Requested convergence on MAX density matrix=1.00D-06.
 SCF Done:  E(RB-LYP) =  -226.155832388     A.U. after   12 cycles
             Convg  =    0.1085D-08             -V/T =  2.0102
             S**2   =   0.0000
 ***** Axes restored to original set *****
 -------------------------------------------------------------------
 Center     Atomic                   Forces (Hartrees/Bohr)
 Number     Number              X              Y              Z
 -------------------------------------------------------------------
    1          7           0.007084123    0.000000000   -0.007262287
    2          1          -0.000383450    0.000000000    0.002648158
    3          6          -0.008044435    0.000000000    0.011931169
    4          1           0.002702258    0.000000000    0.001552578
    5          6          -0.013610235    0.000000000   -0.005101328
    6          1           0.001873103    0.000000000   -0.001980008
    7          1          -0.002224495    0.000000000   -0.000080080
    8          6           0.004319174    0.000000000    0.004513709
    9          7           0.008283957    0.000000000   -0.006221912
 -------------------------------------------------------------------
 Cartesian Forces:  Max     0.013610235 RMS     0.005080371

 GradGradGradGradGradGradGradGradGradGradGradGradGradGradGradGradGradGrad
 Berny optimization.
 Internal  Forces:  Max     0.009956417 RMS     0.002989906
 Search for a local minimum.
 Step number   3 out of a maximum of  48
 All quantities printed in internal units (Hartrees-Bohrs-Radians)
 Update second derivatives using information from points  1  2  3
 Trust test= 7.03D-01 RLast= 2.77D-01 DXMaxT set to 4.24D-01
     Eigenvalues ---    0.03205   0.03260   0.03287   0.03304   0.03349
     Eigenvalues ---    0.03404   0.15529   0.16000   0.16000   0.16003
     Eigenvalues ---    0.22083   0.23305   0.45000   0.49334   0.49611
     Eigenvalues ---    0.55950   0.58608   0.63673   0.65658   0.72082
     Eigenvalues ---    0.746921000.000001000.000001000.000001000.00000
     Eigenvalues --- 1000.000001000.000001000.000001000.000001000.00000
     Eigenvalues --- 1000.000001000.000001000.000001000.000001000.00000
     Eigenvalues --- 1000.000001000.000001000.00000
 RFO step:  Lambda=-6.19260127D-04.
 Quartic linear search produced a step of -0.01461.
 Iteration  1 RMS(Cart)=  0.00639610 RMS(Int)=  0.00002512
 Iteration  2 RMS(Cart)=  0.00002395 RMS(Int)=  0.00000488
 Iteration  3 RMS(Cart)=  0.00000000 RMS(Int)=  0.00000488
 Variable       Old X    -DE/DX   Delta X   Delta X   Delta X     New X
                                 (Linear)    (Quad)   (Total)
    R1        2.60357   0.00764  -0.00129   0.01246   0.01118   2.61475
    R2        2.52921  -0.00437  -0.00062  -0.00474  -0.00535   2.52385
    R3        1.92889  -0.00266  -0.00103  -0.00221  -0.00324   1.92565
    R4        2.06030  -0.00310  -0.00129  -0.00358  -0.00487   2.05543
    R5        2.64608  -0.00913  -0.00089  -0.01253  -0.01341   2.63266
    R6        2.60710   0.00996  -0.00146   0.01587   0.01440   2.62151
    R7        2.06398  -0.00272  -0.00129  -0.00287  -0.00417   2.05982
    R8        2.06102  -0.00220  -0.00129  -0.00177  -0.00306   2.05796
    R9        2.60897  -0.00031  -0.00127   0.00240   0.00112   2.61009
    A1        1.82808   0.00475   0.00043   0.01679   0.01723   1.84531
    A2        2.31509  -0.00035  -0.00110  -0.00033  -0.00143   2.31366
    A3        2.14344  -0.00091   0.00080  -0.00637  -0.00556   2.13788
    A4        1.82465   0.00126   0.00029   0.00670   0.00699   1.83164
    A5        1.94390  -0.00298  -0.00049  -0.01286  -0.01333   1.93057
    A6        2.11707   0.00156   0.00082   0.00610   0.00692   2.12398
    A7        2.22222   0.00141  -0.00033   0.00675   0.00641   2.22863
    A8        2.19509   0.00179  -0.00012   0.00854   0.00843   2.20351
    A9        1.94853  -0.00282  -0.00044  -0.01155  -0.01199   1.93654
   A10        2.13957   0.00103   0.00056   0.00300   0.00356   2.14313
   A11        2.20073   0.00035  -0.00004   0.00101   0.00097   2.20171
   A12        2.20284  -0.00015  -0.00016  -0.00192  -0.00207   2.20077
   A13        1.87962  -0.00021   0.00020   0.00091   0.00110   1.88071
    D1        0.00000   0.00000   0.00000   0.00000   0.00000   0.00000
    D2        3.14159   0.00000   0.00000   0.00000   0.00000   3.14159
    D3        3.14159   0.00000   0.00000   0.00000   0.00000   3.14159
    D4        0.00000   0.00000   0.00000   0.00000   0.00000   0.00000
    D5        3.14159   0.00000   0.00000   0.00000   0.00000   3.14159
    D6        0.00000   0.00000   0.00000   0.00000   0.00000   0.00000
    D7        0.00000   0.00000   0.00000   0.00000   0.00000   0.00000
    D8        3.14159   0.00000   0.00000   0.00000   0.00000   3.14159
    D9        0.00000   0.00000   0.00000   0.00000   0.00000   0.00000
   D10        3.14159   0.00000   0.00000   0.00000   0.00000   3.14159
   D11        3.14159   0.00000   0.00000   0.00000   0.00000   3.14159
   D12        0.00000   0.00000   0.00000   0.00000   0.00000   0.00000
   D13        3.14159   0.00000   0.00000   0.00000   0.00000   3.14159
   D14        0.00000   0.00000   0.00000   0.00000   0.00000   0.00000
   D15        0.00000   0.00000   0.00000   0.00000   0.00000   0.00000
   D16        3.14159   0.00000   0.00000   0.00000   0.00000   3.14159
         Item               Value     Threshold  Converged?
 Maximum Force            0.009956     0.000450     NO 
 RMS     Force            0.002990     0.000300     NO 
 Maximum Displacement     0.019155     0.001800     NO 
 RMS     Displacement     0.006393     0.001200     NO 
 Predicted change in Energy=-3.124652D-04
 GradGradGradGradGradGradGradGradGradGradGradGradGradGradGradGradGradGrad

                          Input orientation:                          
 ---------------------------------------------------------------------
 Center     Atomic     Atomic              Coordinates (Angstroms)
 Number     Number      Type              X           Y           Z
 ---------------------------------------------------------------------
    1          7             0        0.497379    0.000000    1.139191
    2          1             0        0.493801    0.000000   -2.075631
    3          6             0       -1.030829    0.000000   -0.557062
    4          1             0       -1.920672    0.000000   -1.182555
    5          6             0       -0.849978    0.000000    0.824296
    6          1             0       -1.618710    0.000000    1.597063
    7          1             0        2.222524    0.000000   -0.169911
    8          6             0        1.142494    0.000000   -0.030238
    9          7             0        0.251700    0.000000   -1.085797
 ---------------------------------------------------------------------
                    Distance matrix (angstroms):
                    1          2          3          4          5
     1  N    0.000000
     2  H    3.214824   0.000000
     3  C    2.283132   2.151871   0.000000
     4  H    3.352234   2.574348   1.087687   0.000000
     5  C    1.383665   3.196141   1.393146   2.274607   0.000000
     6  H    2.165059   4.236908   2.232904   2.795972   1.090009
     7  H    2.165612   2.572985   3.276308   4.265152   3.229352
     8  C    1.335566   2.145795   2.236264   3.272739   2.167988
     9  N    2.238511   1.019011   1.387242   2.174526   2.205028
                    6          7          8          9
     6  H    0.000000
     7  H    4.228153   0.000000
     8  C    3.205052   1.089024   0.000000
     9  N    3.270501   2.173245   1.381202   0.000000
 Stoichiometry    C3H4N2
 Framework group  CS[SG(C3H4N2)]
 Deg. of freedom   15
 Full point group                 CS      NOp   2
 Largest Abelian subgroup         CS      NOp   2
 Largest concise Abelian subgroup C1      NOp   1
                         Standard orientation:                         
 ---------------------------------------------------------------------
 Center     Atomic     Atomic              Coordinates (Angstroms)
 Number     Number      Type              X           Y           Z
 ---------------------------------------------------------------------
    1          7             0       -0.742688   -0.998024    0.000000
    2          1             0       -0.011885    2.132635    0.000000
    3          6             0        1.129655    0.308508    0.000000
    4          1             0        2.137937    0.716466    0.000000
    5          6             0        0.640976   -0.996118    0.000000
    6          1             0        1.214946   -1.922766    0.000000
    7          1             0       -2.126933    0.667431    0.000000
    8          6             0       -1.106506    0.287034    0.000000
    9          7             0        0.000000    1.113693    0.000000
 ---------------------------------------------------------------------
 Rotational constants (GHZ):      9.5505145      9.1939745      4.6844268
 Isotopes: N-14,H-1,C-12,H-1,C-12,H-1,H-1,C-12,N-14
 Standard basis: 6-31+G(d,p) (6D, 7F)
 There are    86 symmetry adapted basis functions of A'  symmetry.
 There are    29 symmetry adapted basis functions of A"  symmetry.
 Crude estimate of integral set expansion from redundant integrals=1.000.
 Integral buffers will be    262144 words long.
 Raffenetti 2 integral format.
 Two-electron integral symmetry is turned on.
   115 basis functions      188 primitive gaussians
    18 alpha electrons       18 beta electrons
       nuclear repulsion energy       161.4503975083 Hartrees.
 One-electron integrals computed using PRISM.
 NBasis=   115 RedAO= T  NBF=    86    29
 NBsUse=   115 1.00D-04 NBFU=    86    29
 Initial guess read from the read-write file:
 Initial guess orbital symmetries:
       Occupied  (A') (A') (A') (A') (A') (A') (A') (A') (A') (A')
                 (A') (A') (A') (A") (A') (A") (A') (A")
       Virtual   (A') (A") (A') (A") (A') (A') (A') (A") (A') (A")
                 (A') (A") (A') (A') (A') (A') (A") (A') (A') (A')
                 (A") (A') (A') (A') (A') (A') (A') (A') (A') (A')
                 (A') (A') (A") (A") (A") (A') (A') (A') (A') (A')
                 (A') (A") (A') (A') (A") (A') (A') (A') (A') (A')
                 (A') (A") (A') (A') (A") (A") (A") (A') (A") (A')
                 (A') (A') (A') (A') (A') (A") (A') (A") (A') (A")
                 (A") (A') (A") (A') (A") (A') (A') (A") (A') (A')
                 (A') (A") (A") (A') (A') (A') (A') (A') (A') (A')
                 (A') (A') (A') (A') (A') (A') (A')
 Requested convergence on RMS density matrix=1.00D-08 within  64 cycles.
 Requested convergence on MAX density matrix=1.00D-06.
 SCF Done:  E(RB-LYP) =  -226.156182301     A.U. after   11 cycles
             Convg  =    0.1041D-08             -V/T =  2.0102
             S**2   =   0.0000
 ***** Axes restored to original set *****
 -------------------------------------------------------------------
 Center     Atomic                   Forces (Hartrees/Bohr)
 Number     Number              X              Y              Z
 -------------------------------------------------------------------
    1          7           0.006205543    0.000000000   -0.000123705
    2          1          -0.000676150    0.000000000    0.000966422
    3          6          -0.003700025    0.000000000    0.005437737
    4          1           0.001283883    0.000000000    0.000236488
    5          6          -0.004095822    0.000000000   -0.005314384
    6          1           0.001541552    0.000000000   -0.000811078
    7          1          -0.001286703    0.000000000    0.000182540
    8          6          -0.003309892    0.000000000    0.004020881
    9          7           0.004037614    0.000000000   -0.004594901
 -------------------------------------------------------------------
 Cartesian Forces:  Max     0.006205543 RMS     0.002715924

 GradGradGradGradGradGradGradGradGradGradGradGradGradGradGradGradGradGrad
 Berny optimization.
 Internal  Forces:  Max     0.003856603 RMS     0.001346553
 Search for a local minimum.
 Step number   4 out of a maximum of  48
 All quantities printed in internal units (Hartrees-Bohrs-Radians)
 Update second derivatives using information from points  1  2  3  4
 Trust test= 1.12D+00 RLast= 3.85D-02 DXMaxT set to 4.24D-01
     Eigenvalues ---    0.03205   0.03261   0.03287   0.03304   0.03350
     Eigenvalues ---    0.03404   0.15048   0.15997   0.16000   0.16067
     Eigenvalues ---    0.21290   0.33729   0.40594   0.46340   0.49422
     Eigenvalues ---    0.49680   0.56784   0.59739   0.64628   0.67615
     Eigenvalues ---    0.769521000.000001000.000001000.000001000.00000
     Eigenvalues --- 1000.000001000.000001000.000001000.000001000.00000
     Eigenvalues --- 1000.000001000.000001000.000001000.000001000.00000
     Eigenvalues --- 1000.000001000.000001000.00000
 RFO step:  Lambda=-1.79955516D-04.
 Quartic linear search produced a step of  0.13917.
 Iteration  1 RMS(Cart)=  0.00265482 RMS(Int)=  0.00000588
 Iteration  2 RMS(Cart)=  0.00000676 RMS(Int)=  0.00000270
 Iteration  3 RMS(Cart)=  0.00000000 RMS(Int)=  0.00000270
 Variable       Old X    -DE/DX   Delta X   Delta X   Delta X     New X
                                 (Linear)    (Quad)   (Total)
    R1        2.61475   0.00329   0.00156   0.00756   0.00911   2.62386
    R2        2.52385  -0.00364  -0.00075  -0.00614  -0.00688   2.51698
    R3        1.92565  -0.00110  -0.00045  -0.00167  -0.00212   1.92353
    R4        2.05543  -0.00119  -0.00068  -0.00235  -0.00302   2.05241
    R5        2.63266  -0.00386  -0.00187  -0.00808  -0.00995   2.62271
    R6        2.62151   0.00261   0.00200   0.00741   0.00942   2.63093
    R7        2.05982  -0.00166  -0.00058  -0.00337  -0.00395   2.05587
    R8        2.05796  -0.00130  -0.00043  -0.00233  -0.00276   2.05520
    R9        2.61009   0.00063   0.00016   0.00227   0.00243   2.61252
    A1        1.84531  -0.00151   0.00240  -0.00630  -0.00390   1.84141
    A2        2.31366   0.00066  -0.00020   0.00423   0.00404   2.31770
    A3        2.13788  -0.00046  -0.00077  -0.00503  -0.00581   2.13207
    A4        1.83164  -0.00020   0.00097   0.00080   0.00177   1.83341
    A5        1.93057   0.00122  -0.00186   0.00406   0.00220   1.93277
    A6        2.12398  -0.00115   0.00096  -0.00600  -0.00503   2.11895
    A7        2.22863  -0.00008   0.00089   0.00193   0.00283   2.23146
    A8        2.20351  -0.00102   0.00117  -0.00366  -0.00249   2.20103
    A9        1.93654   0.00201  -0.00167   0.00802   0.00635   1.94289
   A10        2.14313  -0.00099   0.00050  -0.00436  -0.00386   2.13927
   A11        2.20171   0.00035   0.00014   0.00059   0.00072   2.20243
   A12        2.20077   0.00117  -0.00029   0.00599   0.00570   2.20647
   A13        1.88071  -0.00152   0.00015  -0.00658  -0.00642   1.87429
    D1        0.00000   0.00000   0.00000   0.00000   0.00000   0.00000
    D2        3.14159   0.00000   0.00000   0.00000   0.00000   3.14159
    D3        3.14159   0.00000   0.00000   0.00000   0.00000   3.14159
    D4        0.00000   0.00000   0.00000   0.00000   0.00000   0.00000
    D5        3.14159   0.00000   0.00000   0.00000   0.00000   3.14159
    D6        0.00000   0.00000   0.00000   0.00000   0.00000   0.00000
    D7        0.00000   0.00000   0.00000   0.00000   0.00000   0.00000
    D8        3.14159   0.00000   0.00000   0.00000   0.00000   3.14159
    D9        0.00000   0.00000   0.00000   0.00000   0.00000   0.00000
   D10        3.14159   0.00000   0.00000   0.00000   0.00000   3.14159
   D11        3.14159   0.00000   0.00000   0.00000   0.00000   3.14159
   D12        0.00000   0.00000   0.00000   0.00000   0.00000   0.00000
   D13        3.14159   0.00000   0.00000   0.00000   0.00000   3.14159
   D14        0.00000   0.00000   0.00000   0.00000   0.00000   0.00000
   D15        0.00000   0.00000   0.00000   0.00000   0.00000   0.00000
   D16        3.14159   0.00000   0.00000   0.00000   0.00000   3.14159
         Item               Value     Threshold  Converged?
 Maximum Force            0.003857     0.000450     NO 
 RMS     Force            0.001347     0.000300     NO 
 Maximum Displacement     0.006120     0.001800     NO 
 RMS     Displacement     0.002656     0.001200     NO 
 Predicted change in Energy=-9.524223D-05
 GradGradGradGradGradGradGradGradGradGradGradGradGradGradGradGradGradGrad

                          Input orientation:                          
 ---------------------------------------------------------------------
 Center     Atomic     Atomic              Coordinates (Angstroms)
 Number     Number      Type              X           Y           Z
 ---------------------------------------------------------------------
    1          7             0        0.500490    0.000000    1.140581
    2          1             0        0.493478    0.000000   -2.076424
    3          6             0       -1.032341    0.000000   -0.553335
    4          1             0       -1.918832    0.000000   -1.180804
    5          6             0       -0.851108    0.000000    0.822662
    6          1             0       -1.615581    0.000000    1.596707
    7          1             0        2.219546    0.000000   -0.166717
    8          6             0        1.140960    0.000000   -0.027248
    9          7             0        0.253443    0.000000   -1.087241
 ---------------------------------------------------------------------
                    Distance matrix (angstroms):
                    1          2          3          4          5
     1  N    0.000000
     2  H    3.217014   0.000000
     3  C    2.284496   2.155905   0.000000
     4  H    3.352901   2.573204   1.086087   0.000000
     5  C    1.388485   3.195718   1.387880   2.270222   0.000000
     6  H    2.164672   4.235567   2.227745   2.794016   1.087918
     7  H    2.159673   2.574159   3.274789   4.260815   3.226111
     8  C    1.331927   2.149036   2.236069   3.270018   2.165799
     9  N    2.241478   1.017891   1.392227   2.174289   2.206300
                    6          7          8          9
     6  H    0.000000
     7  H    4.221122   0.000000
     8  C    3.199336   1.087566   0.000000
     9  N    3.270600   2.170928   1.382487   0.000000
 Stoichiometry    C3H4N2
 Framework group  CS[SG(C3H4N2)]
 Deg. of freedom   15
 Full point group                 CS      NOp   2
 Largest Abelian subgroup         CS      NOp   2
 Largest concise Abelian subgroup C1      NOp   1
                         Standard orientation:                         
 ---------------------------------------------------------------------
 Center     Atomic     Atomic              Coordinates (Angstroms)
 Number     Number      Type              X           Y           Z
 ---------------------------------------------------------------------
    1          7             0       -0.746311   -0.997241    0.000000
    2          1             0       -0.009226    2.134194    0.000000
    3          6             0        1.131022    0.304504    0.000000
    4          1             0        2.136806    0.714361    0.000000
    5          6             0        0.642170   -0.994432    0.000000
    6          1             0        1.210979   -1.921805    0.000000
    7          1             0       -2.123737    0.666155    0.000000
    8          6             0       -1.104966    0.285489    0.000000
    9          7             0        0.000000    1.116345    0.000000
 ---------------------------------------------------------------------
 Rotational constants (GHZ):      9.5467722      9.1906381      4.6826604
 Isotopes: N-14,H-1,C-12,H-1,C-12,H-1,H-1,C-12,N-14
 Standard basis: 6-31+G(d,p) (6D, 7F)
 There are    86 symmetry adapted basis functions of A'  symmetry.
 There are    29 symmetry adapted basis functions of A"  symmetry.
 Crude estimate of integral set expansion from redundant integrals=1.000.
 Integral buffers will be    262144 words long.
 Raffenetti 2 integral format.
 Two-electron integral symmetry is turned on.
   115 basis functions      188 primitive gaussians
    18 alpha electrons       18 beta electrons
       nuclear repulsion energy       161.4317869319 Hartrees.
 One-electron integrals computed using PRISM.
 NBasis=   115 RedAO= T  NBF=    86    29
 NBsUse=   115 1.00D-04 NBFU=    86    29
 Initial guess read from the read-write file:
 Initial guess orbital symmetries:
       Occupied  (A') (A') (A') (A') (A') (A') (A') (A') (A') (A')
                 (A') (A') (A') (A") (A') (A") (A') (A")
       Virtual   (A') (A") (A') (A") (A') (A') (A') (A") (A') (A")
                 (A') (A") (A') (A') (A') (A') (A") (A') (A') (A')
                 (A") (A') (A') (A') (A') (A') (A') (A') (A') (A')
                 (A') (A') (A") (A") (A") (A') (A') (A') (A') (A')
                 (A') (A") (A') (A') (A") (A') (A') (A') (A') (A')
                 (A') (A") (A') (A') (A") (A") (A") (A') (A") (A')
                 (A') (A') (A') (A') (A') (A") (A') (A") (A') (A")
                 (A") (A') (A") (A') (A") (A') (A') (A") (A') (A')
                 (A') (A") (A") (A') (A') (A') (A') (A') (A') (A')
                 (A') (A') (A') (A') (A') (A') (A')
 Requested convergence on RMS density matrix=1.00D-08 within  64 cycles.
 Requested convergence on MAX density matrix=1.00D-06.
 SCF Done:  E(RB-LYP) =  -226.156303528     A.U. after    9 cycles
             Convg  =    0.9643D-08             -V/T =  2.0101
             S**2   =   0.0000
 ***** Axes restored to original set *****
 -------------------------------------------------------------------
 Center     Atomic                   Forces (Hartrees/Bohr)
 Number     Number              X              Y              Z
 -------------------------------------------------------------------
    1          7           0.002324359    0.000000000    0.000173521
    2          1          -0.000249850    0.000000000    0.000252017
    3          6          -0.000538666    0.000000000    0.001158643
    4          1           0.000142634    0.000000000   -0.000066071
    5          6          -0.001243851    0.000000000   -0.001820717
    6          1           0.000392063    0.000000000   -0.000018415
    7          1          -0.000098814    0.000000000    0.000013809
    8          6          -0.001873602    0.000000000    0.000997024
    9          7           0.001145727    0.000000000   -0.000689813
 -------------------------------------------------------------------
 Cartesian Forces:  Max     0.002324359 RMS     0.000828546

 GradGradGradGradGradGradGradGradGradGradGradGradGradGradGradGradGradGrad
 Berny optimization.
 Internal  Forces:  Max     0.001247808 RMS     0.000411825
 Search for a local minimum.
 Step number   5 out of a maximum of  48
 All quantities printed in internal units (Hartrees-Bohrs-Radians)
 Update second derivatives using information from points  1  2  3  4  5

 Trust test= 1.27D+00 RLast= 2.46D-02 DXMaxT set to 4.24D-01
     Eigenvalues ---    0.03204   0.03261   0.03287   0.03303   0.03349
     Eigenvalues ---    0.03404   0.14162   0.15977   0.16007   0.16025
     Eigenvalues ---    0.20961   0.28496   0.40997   0.46380   0.49513
     Eigenvalues ---    0.49682   0.56618   0.59493   0.64855   0.67158
     Eigenvalues ---    0.770091000.000001000.000001000.000001000.00000
     Eigenvalues --- 1000.000001000.000001000.000001000.000001000.00000
     Eigenvalues --- 1000.000001000.000001000.000001000.000001000.00000
     Eigenvalues --- 1000.000001000.000001000.00000
 RFO step:  Lambda=-3.73379992D-06.
 Quartic linear search produced a step of  0.37286.
 Iteration  1 RMS(Cart)=  0.00111868 RMS(Int)=  0.00000210
 Iteration  2 RMS(Cart)=  0.00000126 RMS(Int)=  0.00000180
 Iteration  3 RMS(Cart)=  0.00000000 RMS(Int)=  0.00000180
 Variable       Old X    -DE/DX   Delta X   Delta X   Delta X     New X
                                 (Linear)    (Quad)   (Total)
    R1        2.62386   0.00119   0.00340   0.00071   0.00410   2.62796
    R2        2.51698  -0.00125  -0.00256  -0.00045  -0.00301   2.51396
    R3        1.92353  -0.00030  -0.00079  -0.00002  -0.00081   1.92273
    R4        2.05241  -0.00008  -0.00113   0.00065  -0.00048   2.05193
    R5        2.62271  -0.00093  -0.00371   0.00031  -0.00340   2.61931
    R6        2.63093   0.00026   0.00351  -0.00068   0.00283   2.63376
    R7        2.05587  -0.00029  -0.00147   0.00048  -0.00099   2.05487
    R8        2.05520  -0.00010  -0.00103   0.00071  -0.00031   2.05489
    R9        2.61252  -0.00019   0.00091  -0.00081   0.00010   2.61262
    A1        1.84141  -0.00077  -0.00145  -0.00112  -0.00258   1.83884
    A2        2.31770   0.00024   0.00151   0.00020   0.00171   2.31941
    A3        2.13207  -0.00004  -0.00216   0.00047  -0.00169   2.13038
    A4        1.83341  -0.00019   0.00066  -0.00068  -0.00002   1.83339
    A5        1.93277   0.00040   0.00082   0.00059   0.00141   1.93418
    A6        2.11895  -0.00047  -0.00188  -0.00127  -0.00315   2.11581
    A7        2.23146   0.00007   0.00106   0.00068   0.00174   2.23320
    A8        2.20103  -0.00042  -0.00093  -0.00032  -0.00125   2.19977
    A9        1.94289   0.00084   0.00237   0.00080   0.00318   1.94607
   A10        2.13927  -0.00042  -0.00144  -0.00048  -0.00192   2.13734
   A11        2.20243  -0.00004   0.00027  -0.00063  -0.00037   2.20206
   A12        2.20647   0.00031   0.00212   0.00023   0.00235   2.20882
   A13        1.87429  -0.00027  -0.00239   0.00040  -0.00199   1.87230
    D1        0.00000   0.00000   0.00000   0.00000   0.00000   0.00000
    D2        3.14159   0.00000   0.00000   0.00000   0.00000   3.14159
    D3        3.14159   0.00000   0.00000   0.00000   0.00000   3.14159
    D4        0.00000   0.00000   0.00000   0.00000   0.00000   0.00000
    D5        3.14159   0.00000   0.00000   0.00000   0.00000   3.14159
    D6        0.00000   0.00000   0.00000   0.00000   0.00000   0.00000
    D7        0.00000   0.00000   0.00000   0.00000   0.00000   0.00000
    D8        3.14159   0.00000   0.00000   0.00000   0.00000   3.14159
    D9        0.00000   0.00000   0.00000   0.00000   0.00000   0.00000
   D10        3.14159   0.00000   0.00000   0.00000   0.00000   3.14159
   D11        3.14159   0.00000   0.00000   0.00000   0.00000   3.14159
   D12        0.00000   0.00000   0.00000   0.00000   0.00000   0.00000
   D13        3.14159   0.00000   0.00000   0.00000   0.00000   3.14159
   D14        0.00000   0.00000   0.00000   0.00000   0.00000   0.00000
   D15        0.00000   0.00000   0.00000   0.00000   0.00000   0.00000
   D16        3.14159   0.00000   0.00000   0.00000   0.00000   3.14159
         Item               Value     Threshold  Converged?
 Maximum Force            0.001248     0.000450     NO 
 RMS     Force            0.000412     0.000300     NO 
 Maximum Displacement     0.003093     0.001800     NO 
 RMS     Displacement     0.001119     0.001200     YES
 Predicted change in Energy=-1.150448D-05
 GradGradGradGradGradGradGradGradGradGradGradGradGradGradGradGradGradGrad

                          Input orientation:                          
 ---------------------------------------------------------------------
 Center     Atomic     Atomic              Coordinates (Angstroms)
 Number     Number      Type              X           Y           Z
 ---------------------------------------------------------------------
    1          7             0        0.501865    0.000000    1.141174
    2          1             0        0.493132    0.000000   -2.076666
    3          6             0       -1.033049    0.000000   -0.552767
    4          1             0       -1.918504    0.000000   -1.181262
    5          6             0       -0.851520    0.000000    0.821376
    6          1             0       -1.613978    0.000000    1.596668
    7          1             0        2.218133    0.000000   -0.166026
    8          6             0        1.139754    0.000000   -0.026250
    9          7             0        0.253921    0.000000   -1.087721
 ---------------------------------------------------------------------
                    Distance matrix (angstroms):
                    1          2          3          4          5
     1  N    0.000000
     2  H    3.217852   0.000000
     3  C    2.285913   2.156733   0.000000
     4  H    3.354385   2.572497   1.085835   0.000000
     5  C    1.390655   3.194798   1.386081   2.269144   0.000000
     6  H    2.164317   4.234772   2.226555   2.794572   1.087391
     7  H    2.157394   2.574136   3.274104   4.259399   3.224552
     8  C    1.330332   2.149959   2.235686   3.269097   2.164172
     9  N    2.242644   1.017465   1.393725   2.174439   2.206049
                    6          7          8          9
     6  H    0.000000
     7  H    4.218076   0.000000
     8  C    3.196389   1.087400   0.000000
     9  N    3.270320   2.169712   1.382541   0.000000
 Stoichiometry    C3H4N2
 Framework group  CS[SG(C3H4N2)]
 Deg. of freedom   15
 Full point group                 CS      NOp   2
 Largest Abelian subgroup         CS      NOp   2
 Largest concise Abelian subgroup C1      NOp   1
                         Standard orientation:                         
 ---------------------------------------------------------------------
 Center     Atomic     Atomic              Coordinates (Angstroms)
 Number     Number      Type              X           Y           Z
 ---------------------------------------------------------------------
    1          7             0       -0.748117   -0.997192    0.000000
    2          1             0       -0.008145    2.134424    0.000000
    3          6             0        1.131675    0.303493    0.000000
    4          1             0        2.136817    0.714256    0.000000
    5          6             0        0.642533   -0.993412    0.000000
    6          1             0        1.208794   -1.921727    0.000000
    7          1             0       -2.122307    0.665923    0.000000
    8          6             0       -1.103932    0.284673    0.000000
    9          7             0        0.000000    1.116992    0.000000
 ---------------------------------------------------------------------
 Rotational constants (GHZ):      9.5500513      9.1869220      4.6824839
 Isotopes: N-14,H-1,C-12,H-1,C-12,H-1,H-1,C-12,N-14
 Standard basis: 6-31+G(d,p) (6D, 7F)
 There are    86 symmetry adapted basis functions of A'  symmetry.
 There are    29 symmetry adapted basis functions of A"  symmetry.
 Crude estimate of integral set expansion from redundant integrals=1.000.
 Integral buffers will be    262144 words long.
 Raffenetti 2 integral format.
 Two-electron integral symmetry is turned on.
   115 basis functions      188 primitive gaussians
    18 alpha electrons       18 beta electrons
       nuclear repulsion energy       161.4328652629 Hartrees.
 One-electron integrals computed using PRISM.
 NBasis=   115 RedAO= T  NBF=    86    29
 NBsUse=   115 1.00D-04 NBFU=    86    29
 Initial guess read from the read-write file:
 Initial guess orbital symmetries:
       Occupied  (A') (A') (A') (A') (A') (A') (A') (A') (A') (A')
                 (A') (A') (A') (A") (A') (A") (A') (A")
       Virtual   (A') (A") (A') (A") (A') (A') (A') (A") (A') (A")
                 (A') (A") (A') (A') (A') (A') (A") (A') (A') (A')
                 (A") (A') (A') (A') (A') (A') (A') (A') (A') (A')
                 (A') (A') (A") (A") (A") (A') (A') (A') (A') (A')
                 (A') (A") (A') (A') (A") (A') (A') (A') (A') (A')
                 (A') (A") (A') (A') (A") (A") (A") (A') (A") (A')
                 (A') (A') (A') (A') (A') (A") (A') (A") (A') (A")
                 (A") (A') (A") (A') (A") (A') (A') (A") (A') (A')
                 (A') (A") (A") (A') (A') (A') (A') (A') (A') (A')
                 (A') (A') (A') (A') (A') (A') (A')
 Requested convergence on RMS density matrix=1.00D-08 within  64 cycles.
 Requested convergence on MAX density matrix=1.00D-06.
 SCF Done:  E(RB-LYP) =  -226.156315679     A.U. after    9 cycles
             Convg  =    0.3428D-08             -V/T =  2.0101
             S**2   =   0.0000
 ***** Axes restored to original set *****
 -------------------------------------------------------------------
 Center     Atomic                   Forces (Hartrees/Bohr)
 Number     Number              X              Y              Z
 -------------------------------------------------------------------
    1          7           0.000399455    0.000000000    0.000123611
    2          1          -0.000023137    0.000000000   -0.000011432
    3          6           0.000344111    0.000000000   -0.000156584
    4          1          -0.000079660    0.000000000   -0.000033900
    5          6          -0.000360449    0.000000000   -0.000102104
    6          1           0.000003275    0.000000000    0.000092565
    7          1           0.000118369    0.000000000   -0.000022512
    8          6          -0.000488781    0.000000000   -0.000218344
    9          7           0.000086817    0.000000000    0.000328700
 -------------------------------------------------------------------
 Cartesian Forces:  Max     0.000488781 RMS     0.000181714

 GradGradGradGradGradGradGradGradGradGradGradGradGradGradGradGradGradGrad
 Berny optimization.
 Internal  Forces:  Max     0.000304981 RMS     0.000092378
 Search for a local minimum.
 Step number   6 out of a maximum of  48
 All quantities printed in internal units (Hartrees-Bohrs-Radians)
 Update second derivatives using information from points  1  2  3  4  5
                                                        6
 Trust test= 1.06D+00 RLast= 9.99D-03 DXMaxT set to 4.24D-01
     Eigenvalues ---    0.03204   0.03261   0.03286   0.03303   0.03349
     Eigenvalues ---    0.03404   0.13715   0.15859   0.16001   0.16045
     Eigenvalues ---    0.20616   0.28410   0.40452   0.45995   0.49493
     Eigenvalues ---    0.49679   0.56506   0.58991   0.64157   0.67044
     Eigenvalues ---    0.762411000.000001000.000001000.000001000.00000
     Eigenvalues --- 1000.000001000.000001000.000001000.000001000.00000
     Eigenvalues --- 1000.000001000.000001000.000001000.000001000.00000
     Eigenvalues --- 1000.000001000.000001000.00000
 RFO step:  Lambda=-5.76239528D-07.
 Quartic linear search produced a step of  0.05561.
 Iteration  1 RMS(Cart)=  0.00017950 RMS(Int)=  0.00000005
 Iteration  2 RMS(Cart)=  0.00000004 RMS(Int)=  0.00000004
 Variable       Old X    -DE/DX   Delta X   Delta X   Delta X     New X
                                 (Linear)    (Quad)   (Total)
    R1        2.62796   0.00028   0.00023   0.00037   0.00060   2.62855
    R2        2.51396  -0.00003  -0.00017   0.00003  -0.00014   2.51382
    R3        1.92273   0.00001  -0.00004   0.00002  -0.00002   1.92271
    R4        2.05193   0.00008  -0.00003   0.00018   0.00015   2.05208
    R5        2.61931   0.00006  -0.00019   0.00022   0.00003   2.61934
    R6        2.63376  -0.00020   0.00016  -0.00034  -0.00018   2.63358
    R7        2.05487   0.00006  -0.00006   0.00015   0.00010   2.05497
    R8        2.05489   0.00012  -0.00002   0.00025   0.00023   2.05512
    R9        2.61262  -0.00030   0.00001  -0.00050  -0.00049   2.61213
    A1        1.83884  -0.00014  -0.00014  -0.00019  -0.00033   1.83851
    A2        2.31941  -0.00003   0.00010  -0.00023  -0.00013   2.31928
    A3        2.13038   0.00000  -0.00009   0.00009  -0.00001   2.13037
    A4        1.83339   0.00003   0.00000   0.00014   0.00014   1.83353
    A5        1.93418  -0.00010   0.00008  -0.00025  -0.00017   1.93401
    A6        2.11581  -0.00002  -0.00017  -0.00024  -0.00041   2.11540
    A7        2.23320   0.00012   0.00010   0.00049   0.00058   2.23378
    A8        2.19977  -0.00006  -0.00007  -0.00009  -0.00016   2.19962
    A9        1.94607   0.00014   0.00018   0.00026   0.00044   1.94651
   A10        2.13734  -0.00008  -0.00011  -0.00017  -0.00028   2.13706
   A11        2.20206  -0.00006  -0.00002  -0.00012  -0.00014   2.20193
   A12        2.20882  -0.00001   0.00013   0.00008   0.00021   2.20903
   A13        1.87230   0.00007  -0.00011   0.00004  -0.00007   1.87223
    D1        0.00000   0.00000   0.00000   0.00000   0.00000   0.00000
    D2        3.14159   0.00000   0.00000   0.00000   0.00000   3.14159
    D3        3.14159   0.00000   0.00000   0.00000   0.00000   3.14159
    D4        0.00000   0.00000   0.00000   0.00000   0.00000   0.00000
    D5        3.14159   0.00000   0.00000   0.00000   0.00000   3.14159
    D6        0.00000   0.00000   0.00000   0.00000   0.00000   0.00000
    D7        0.00000   0.00000   0.00000   0.00000   0.00000   0.00000
    D8        3.14159   0.00000   0.00000   0.00000   0.00000   3.14159
    D9        0.00000   0.00000   0.00000   0.00000   0.00000   0.00000
   D10        3.14159   0.00000   0.00000   0.00000   0.00000   3.14159
   D11        3.14159   0.00000   0.00000   0.00000   0.00000   3.14159
   D12        0.00000   0.00000   0.00000   0.00000   0.00000   0.00000
   D13        3.14159   0.00000   0.00000   0.00000   0.00000   3.14159
   D14        0.00000   0.00000   0.00000   0.00000   0.00000   0.00000
   D15        0.00000   0.00000   0.00000   0.00000   0.00000   0.00000
   D16        3.14159   0.00000   0.00000   0.00000   0.00000   3.14159
         Item               Value     Threshold  Converged?
 Maximum Force            0.000305     0.000450     YES
 RMS     Force            0.000092     0.000300     YES
 Maximum Displacement     0.000534     0.001800     YES
 RMS     Displacement     0.000179     0.001200     YES
 Predicted change in Energy=-3.219010D-07
 Optimization completed.
    -- Stationary point found.
                         ----------------------------
                         !   Optimized Parameters   !
                         ! (Angstroms and Degrees)  !
 ------------------------                            -------------------------
 ! Name  Definition              Value          Derivative Info.             !
 -----------------------------------------------------------------------------
 ! R1    R(1,5)                  1.3907         -DE/DX =    0.0003           !
 ! R2    R(1,8)                  1.3303         -DE/DX =    0.               !
 ! R3    R(2,9)                  1.0175         -DE/DX =    0.               !
 ! R4    R(3,4)                  1.0858         -DE/DX =    0.0001           !
 ! R5    R(3,5)                  1.3861         -DE/DX =    0.0001           !
 ! R6    R(3,9)                  1.3937         -DE/DX =   -0.0002           !
 ! R7    R(5,6)                  1.0874         -DE/DX =    0.0001           !
 ! R8    R(7,8)                  1.0874         -DE/DX =    0.0001           !
 ! R9    R(8,9)                  1.3825         -DE/DX =   -0.0003           !
 ! A1    A(5,1,8)              105.3576         -DE/DX =   -0.0001           !
 ! A2    A(4,3,5)              132.8925         -DE/DX =    0.               !
 ! A3    A(4,3,9)              122.0618         -DE/DX =    0.               !
 ! A4    A(5,3,9)              105.0458         -DE/DX =    0.               !
 ! A5    A(1,5,3)              110.8202         -DE/DX =   -0.0001           !
 ! A6    A(1,5,6)              121.227          -DE/DX =    0.               !
 ! A7    A(3,5,6)              127.9528         -DE/DX =    0.0001           !
 ! A8    A(1,8,7)              126.0378         -DE/DX =   -0.0001           !
 ! A9    A(1,8,9)              111.5014         -DE/DX =    0.0001           !
[...]
   2   1    -0.01   0.02   0.00     0.00  -0.02   0.00    -0.01   1.00   0.00
   3   6    -0.01  -0.01   0.00    -0.08  -0.03   0.00     0.00   0.00   0.00
   4   1     0.11   0.05   0.00     0.85   0.35   0.00     0.01   0.00   0.00
   5   6     0.01   0.00   0.00    -0.01   0.03   0.00     0.00   0.00   0.00
   6   1    -0.04   0.06   0.00     0.18  -0.31   0.00     0.00   0.00   0.00
   7   1     0.92  -0.34   0.00    -0.08   0.03   0.00    -0.01   0.00   0.00
   8   6    -0.08   0.03   0.00     0.01   0.00   0.00     0.00   0.00   0.00
   9   7     0.00   0.00   0.00     0.00   0.00   0.00     0.00  -0.07   0.00

 -------------------
 - Thermochemistry -
 -------------------
 Temperature   298.150 Kelvin.  Pressure   1.00000 Atm.
 Atom  1 has atomic number  7 and mass  14.00307
 Atom  2 has atomic number  1 and mass   1.00783
 Atom  3 has atomic number  6 and mass  12.00000
 Atom  4 has atomic number  1 and mass   1.00783
 Atom  5 has atomic number  6 and mass  12.00000
 Atom  6 has atomic number  1 and mass   1.00783
 Atom  7 has atomic number  1 and mass   1.00783
 Atom  8 has atomic number  6 and mass  12.00000
 Atom  9 has atomic number  7 and mass  14.00307
 Molecular mass:    68.03745 amu.
 Principal axes and moments of inertia in atomic units:
                           1         2         3
     EIGENVALUES --   188.97712 196.44677 385.42389
           X            0.46745   0.88402   0.00000
           Y            0.88402  -0.46745   0.00000
           Z            0.00000   0.00000   1.00000
 THIS MOLECULE IS AN ASYMMETRIC TOP.
 ROTATIONAL SYMMETRY NUMBER  1.
 ROTATIONAL TEMPERATURES (KELVIN)      0.45833     0.44090     0.22472
 ROTATIONAL CONSTANTS (GHZ)            9.55005     9.18692     4.68248
 Zero-point vibrational energy     180254.3 (Joules/Mol)
                                   43.08180 (Kcal/Mol)
 WARNING-- EXPLICIT CONSIDERATION OF   2 DEGREES OF FREEDOM AS
           VIBRATIONS MAY CAUSE SIGNIFICANT ERROR
 VIBRATIONAL TEMPERATURES:    709.41   888.13   941.09   986.56  1089.34
          (KELVIN)           1181.60  1254.46  1308.22  1494.24  1522.35
                             1598.24  1608.75  1787.81  1892.16  1979.39
                             2076.36  2155.66  4576.92  4588.21  4617.08
                             5102.98
 
 Zero-point correction=                           0.068655 (Hartree/Particle)
 Thermal correction to Energy=                    0.072547
 Thermal correction to Enthalpy=                  0.073492
 Thermal correction to Gibbs Free Energy=         0.042306
 Sum of electronic and zero-point Energies=           -226.087660
 Sum of electronic and thermal Energies=              -226.083768
 Sum of electronic and thermal Enthalpies=            -226.082824
 Sum of electronic and thermal Free Energies=         -226.114009
 
                     E (Thermal)             CV                S
                      KCAL/MOL        CAL/MOL-KELVIN    CAL/MOL-KELVIN
 TOTAL                   45.524             14.158             65.635
 ELECTRONIC               0.000              0.000              0.000
 TRANSLATIONAL            0.889              2.981             38.570
 ROTATIONAL               0.889              2.981             24.174
 VIBRATIONAL             43.747              8.196              2.891
 VIBRATION  1             0.849              1.265              0.676
 VIBRATION  2             0.977              0.995              0.421
                       Q            LOG10(Q)             LN(Q)
 TOTAL BOT       0.347172D-19        -19.459455        -44.807052
 TOTAL V=0       0.131686D+13         12.119541         27.906273
 VIB (BOT)       0.367550D-31        -31.434684        -72.381034
 VIB (BOT)  1    0.335375D+00         -0.474469         -1.092506
 VIB (BOT)  2    0.237590D+00         -0.624171         -1.437207
 VIB (V=0)       0.139416D+01          0.144312          0.332291
 VIB (V=0)  1    0.110206D+01          0.042205          0.097181
 VIB (V=0)  2    0.105358D+01          0.022667          0.052193
 ELECTRONIC      0.100000D+01          0.000000          0.000000
 TRANSLATIONAL   0.220588D+08          7.343582         16.909224
 ROTATIONAL      0.428199D+05          4.631646         10.664758
 ***** Axes restored to original set *****
 -------------------------------------------------------------------
 Center     Atomic                   Forces (Hartrees/Bohr)
 Number     Number              X              Y              Z
 -------------------------------------------------------------------
    1          7           0.000399374    0.000000000    0.000123617
    2          1          -0.000023131    0.000000000   -0.000011451
    3          6           0.000344085    0.000000000   -0.000156500
    4          1          -0.000079659    0.000000000   -0.000033907
    5          6          -0.000360455    0.000000000   -0.000102101
    6          1           0.000003307    0.000000000    0.000092534
    7          1           0.000118378    0.000000000   -0.000022513
    8          6          -0.000488732    0.000000000   -0.000218357
    9          7           0.000086834    0.000000000    0.000328679
 -------------------------------------------------------------------
 Cartesian Forces:  Max     0.000488732 RMS     0.000181698

 GradGradGradGradGradGradGradGradGradGradGradGradGradGradGradGradGradGrad
 Berny optimization.
 Internal  Forces:  Max     0.000304967 RMS     0.000092366
 Search for a local minimum.
 Step number   1 out of a maximum of  48
 All quantities printed in internal units (Hartrees-Bohrs-Radians)
 Second derivative matrix not updated -- analytic derivatives used.
     Eigenvalues ---    0.00468   0.00977   0.01784   0.02513   0.05487
     Eigenvalues ---    0.05773   0.09278   0.09894   0.10462   0.11215
     Eigenvalues ---    0.21608   0.22826   0.31426   0.35334   0.35740
     Eigenvalues ---    0.36053   0.37620   0.41202   0.43183   0.45101
     Eigenvalues ---    0.526711000.000001000.000001000.000001000.00000
     Eigenvalues --- 1000.000001000.000001000.000001000.000001000.00000
     Eigenvalues --- 1000.000001000.000001000.000001000.000001000.00000
     Eigenvalues --- 1000.000001000.000001000.00000
 Angle between quadratic step and forces=  24.28 degrees.
 Linear search not attempted -- first point.
 Iteration  1 RMS(Cart)=  0.00028209 RMS(Int)=  0.00000008
 Iteration  2 RMS(Cart)=  0.00000008 RMS(Int)=  0.00000001
 Variable       Old X    -DE/DX   Delta X   Delta X   Delta X     New X
                                 (Linear)    (Quad)   (Total)
    R1        2.62796   0.00028   0.00000   0.00112   0.00112   2.62908
    R2        2.51396  -0.00003   0.00000  -0.00006  -0.00006   2.51391
    R3        1.92273   0.00001   0.00000   0.00001   0.00001   1.92274
    R4        2.05193   0.00008   0.00000   0.00024   0.00024   2.05217
    R5        2.61931   0.00006   0.00000   0.00009   0.00009   2.61941
    R6        2.63376  -0.00020   0.00000  -0.00053  -0.00053   2.63323
    R7        2.05487   0.00006   0.00000   0.00013   0.00013   2.05500
    R8        2.05489   0.00012   0.00000   0.00038   0.00038   2.05527
    R9        2.61262  -0.00030   0.00000  -0.00095  -0.00095   2.61168
    A1        1.83884  -0.00014   0.00000  -0.00050  -0.00050   1.83834
    A2        2.31941  -0.00003   0.00000  -0.00036  -0.00036   2.31905
    A3        2.13038   0.00000   0.00000   0.00019   0.00019   2.13057
    A4        1.83339   0.00003   0.00000   0.00017   0.00016   1.83356
    A5        1.93418  -0.00010   0.00000  -0.00034  -0.00034   1.93383
    A6        2.11581  -0.00002   0.00000  -0.00061  -0.00061   2.11520
    A7        2.23320   0.00012   0.00000   0.00096   0.00096   2.23415
    A8        2.19977  -0.00006   0.00000  -0.00029  -0.00029   2.19948
    A9        1.94607   0.00014   0.00000   0.00050   0.00050   1.94657
   A10        2.13734  -0.00008   0.00000  -0.00021  -0.00021   2.13713
   A11        2.20206  -0.00006   0.00000  -0.00031  -0.00031   2.20175
   A12        2.20882  -0.00001   0.00000   0.00014   0.00014   2.20896
   A13        1.87230   0.00007   0.00000   0.00018   0.00018   1.87248
    D1        0.00000   0.00000   0.00000   0.00000   0.00000   0.00000
    D2        3.14159   0.00000   0.00000   0.00000   0.00000   3.14159
    D3        3.14159   0.00000   0.00000   0.00000   0.00000   3.14159
    D4        0.00000   0.00000   0.00000   0.00000   0.00000   0.00000
    D5        3.14159   0.00000   0.00000   0.00000   0.00000   3.14159
    D6        0.00000   0.00000   0.00000   0.00000   0.00000   0.00000
    D7        0.00000   0.00000   0.00000   0.00000   0.00000   0.00000
    D8        3.14159   0.00000   0.00000   0.00000   0.00000   3.14159
    D9        0.00000   0.00000   0.00000   0.00000   0.00000   0.00000
   D10        3.14159   0.00000   0.00000   0.00000   0.00000   3.14159
   D11        3.14159   0.00000   0.00000   0.00000   0.00000   3.14159
   D12        0.00000   0.00000   0.00000   0.00000   0.00000   0.00000
   D13        3.14159   0.00000   0.00000   0.00000   0.00000   3.14159
   D14        0.00000   0.00000   0.00000   0.00000   0.00000   0.00000
   D15        0.00000   0.00000   0.00000   0.00000   0.00000   0.00000
   D16        3.14159   0.00000   0.00000   0.00000   0.00000   3.14159
         Item               Value     Threshold  Converged?
 Maximum Force            0.000305     0.000450     YES
 RMS     Force            0.000092     0.000300     YES
 Maximum Displacement     0.000755     0.001800     YES
 RMS     Displacement     0.000282     0.001200     YES
 Predicted change in Energy=-5.831786D-07
 Optimization completed.
    -- Stationary point found.
                         ----------------------------
                         !   Optimized Parameters   !
                         ! (Angstroms and Degrees)  !
 ------------------------                            -------------------------
 ! Name  Definition              Value          Derivative Info.             !
 -----------------------------------------------------------------------------
 ! R1    R(1,5)                  1.3907         -DE/DX =    0.0003           !
 ! R2    R(1,8)                  1.3303         -DE/DX =    0.               !
 ! R3    R(2,9)                  1.0175         -DE/DX =    0.               !
 ! R4    R(3,4)                  1.0858         -DE/DX =    0.0001           !
 ! R5    R(3,5)                  1.3861         -DE/DX =    0.0001           !
 ! R6    R(3,9)                  1.3937         -DE/DX =   -0.0002           !
 ! R7    R(5,6)                  1.0874         -DE/DX =    0.0001           !
 ! R8    R(7,8)                  1.0874         -DE/DX =    0.0001           !
 ! R9    R(8,9)                  1.3825         -DE/DX =   -0.0003           !
 ! A1    A(5,1,8)              105.3576         -DE/DX =   -0.0001           !
 ! A2    A(4,3,5)              132.8925         -DE/DX =    0.               !
 ! A3    A(4,3,9)              122.0618         -DE/DX =    0.               !
 ! A4    A(5,3,9)              105.0458         -DE/DX =    0.               !
 ! A5    A(1,5,3)              110.8202         -DE/DX =   -0.0001           !
 ! A6    A(1,5,6)              121.227          -DE/DX =    0.               !
 ! A7    A(3,5,6)              127.9528         -DE/DX =    0.0001           !
 ! A8    A(1,8,7)              126.0378         -DE/DX =   -0.0001           !
 ! A9    A(1,8,9)              111.5014         -DE/DX =    0.0001           !
 ! A10   A(7,8,9)              122.4608         -DE/DX =   -0.0001           !
 ! A11   A(2,9,3)              126.1689         -DE/DX =   -0.0001           !
 ! A12   A(2,9,8)              126.5561         -DE/DX =    0.               !
 ! A13   A(3,9,8)              107.275          -DE/DX =    0.0001           !
 ! D1    D(8,1,5,3)              0.             -DE/DX =    0.               !
 ! D2    D(8,1,5,6)            180.             -DE/DX =    0.               !
 ! D3    D(5,1,8,7)            180.             -DE/DX =    0.               !
 ! D4    D(5,1,8,9)              0.             -DE/DX =    0.               !
 ! D5    D(4,3,5,1)            180.             -DE/DX =    0.               !
 ! D6    D(4,3,5,6)              0.             -DE/DX =    0.               !
 ! D7    D(9,3,5,1)              0.             -DE/DX =    0.               !
 ! D8    D(9,3,5,6)            180.             -DE/DX =    0.               !
 ! D9    D(4,3,9,2)              0.             -DE/DX =    0.               !
 ! D10   D(4,3,9,8)            180.             -DE/DX =    0.               !
 ! D11   D(5,3,9,2)            180.             -DE/DX =    0.               !
 ! D12   D(5,3,9,8)              0.             -DE/DX =    0.               !
 ! D13   D(1,8,9,2)            180.             -DE/DX =    0.               !
 ! D14   D(1,8,9,3)              0.             -DE/DX =    0.               !
 ! D15   D(7,8,9,2)              0.             -DE/DX =    0.               !
 ! D16   D(7,8,9,3)            180.             -DE/DX =    0.               !
 -----------------------------------------------------------------------------
 GradGradGradGradGradGradGradGradGradGradGradGradGradGradGradGradGradGrad

 1\1\ NATIONAL INSTITUTE OF STANDARDS AND TECHNOLOGY-AMUR\Freq\RBLYP\6-
 31+G(d,p)\C3H4N2\RDJ3\23-May-2000\0\\#N GEOM=ALLCHECK GUESS=TCHECK RBL
 YP/6-31+G(D,P) FREQ\\1H imidazole C3H4N2 casno=288324\\0,1\N,0.5018541
 931,0.,1.1411454616\H,0.4931208389,0.,-2.0766950897\C,-1.03306009,0.,-
 0.5527958889\H,-1.9185154736,0.,-1.181290924\C,-0.8515310325,0.,0.8213
 471222\H,-1.6139888772,0.,1.5966389724\H,2.2181222757,0.,-0.1660543808
 \C,1.1397426302,0.,-0.0262792079\N,0.2539104054,0.,-1.0877498515\\Vers
 ion=SGI-G98RevA.6\State=1-A'\HF=-226.1563157\RMSD=2.840e-09\RMSF=1.817
 e-04\Dipole=-0.1338183,0.,-1.4893088\DipoleDeriv=-0.3354906,0.0004707,
 -0.0282574,-0.0000489,-0.2884721,0.0003751,-0.0358944,0.0007449,-0.577
 8965,0.1770239,-0.0003297,-0.0056068,-0.000103,0.3231025,-0.0000767,-0
 .0073069,0.00106,0.1434506,-0.0046489,0.0007463,-0.2533827,-0.0001089,
 -0.1600631,-0.0006217,-0.0816209,-0.0004919,0.1969169,0.0109965,0.0003
 541,-0.0466682,-0.0000355,0.2028115,0.0003402,-0.0738249,0.0004256,0.0
 222465,0.1947256,-0.0017599,0.0078966,0.0001086,-0.1410822,-0.0004863,
 -0.0278307,-0.0004883,0.1367118,-0.0101808,-0.0001149,0.0572785,-0.000
 0963,0.1610678,0.0001316,0.0776498,0.0003667,0.0274301,-0.0238086,0.00
 00057,0.0385915,-0.0000487,0.1722611,0.0000345,0.0332465,0.0003115,0.0
 542448,0.0589627,0.0005544,0.06324,-0.0001207,-0.0406103,-0.000229,0.0
 464382,-0.0019873,0.5855288,-0.0675723,0.0000745,0.1669078,0.0004541,-
 0.2290145,0.0005325,0.0691432,0.0000584,-0.5886261\Polar=57.8474623,0.
 0336033,32.7459502,0.8263546,0.1183237,56.2622791\PG=CS [SG(C3H4N2)]\N
 Imag=0\\0.44917117,-0.00000371,0.09489453,-0.05243174,-0.00000467,0.51
 858502,-0.00317532,0.00000234,-0.00748490,0.07625688,-0.00000008,0.006
 55872,0.00000083,-0.00000013,0.01034319,-0.00251293,-0.00000993,-0.004
 20049,-0.09079790,-0.00000022,0.42497117,-0.03210158,-0.00000682,-0.01
 428852,0.00679909,-0.00000036,-0.00378822,0.68618084,0.00000348,0.0153
 4643,0.00000471,-0.00000202,-0.00727468,0.00000767,0.00000595,0.096183
 62,-0.07932239,0.00000771,-0.01977378,0.02617324,0.00000093,-0.0003195
 3,0.15644026,-0.00000423,0.67841370,0.00104581,-0.00000057,0.00118956,
 0.00009825,0.00000109,0.00009577,-0.24271804,0.00000194,-0.13414187,0.
 25727413,-0.00000230,0.00653271,-0.00000180,0.00000150,-0.00100054,-0.
 00000663,-0.00000506,-0.01777028,0.00000457,-0.00000081,0.01632253,-0.
 00384592,-0.00000192,-0.00514028,-0.00080932,0.00000074,0.00011547,-0.
 14426795,0.00000277,-0.15666591,0.14722646,-0.00000138,0.15074895,-0.2
 3046640,0.00000440,-0.03034462,-0.00792683,-0.00000199,-0.00198500,-0.
 09250299,-0.00000944,-0.01630339,0.00468977,0.00000334,-0.02055629,0.6
 0774559,0.00000385,-0.06364861,0.00000369,-0.00000233,0.00232413,0.000
 01035,0.00000814,-0.05768261,-0.00000803,0.00000065,-0.00195605,0.0000
 0177,-0.00000506,0.11950397,-0.04331576,0.00000226,-0.10203492,0.00362
 953,-0.00000156,-0.00000460,-0.03103395,-0.00000494,-0.35214366,0.0014
 5596,0.00000149,0.00213096,-0.15414185,-0.00000136,0.73424294,-0.01945
 212,0.00000389,0.01974941,0.00081333,0.00000060,-0.00000676,0.00813410
 ,-0.00000283,-0.00525760,-0.00023976,0.00000237,0.00059569,-0.18366722
 ,-0.00000354,0.14089710,0.20018659,-0.00000101,-0.00510872,-0.00000083
 ,0.00000036,0.00178720,-0.00000247,-0.00000258,-0.00075798,0.00000257,
 0.00000003,-0.00186452,-0.00000026,0.00000189,-0.02580088,-0.00000039,
 0.00000105,0.02100382,-0.00628196,-0.00000521,0.01118647,0.00117978,-0
 .00000035,0.00022171,0.01925156,0.00000451,-0.00788017,-0.00041916,-0.
 00000334,-0.00018558,0.14342398,0.00000516,-0.20719988,-0.15246734,-0.
 00000169,0.20781060,-0.00838042,-0.00000282,0.00371311,-0.00054450,0.0
 0000028,-0.00042426,0.00087688,0.00000186,-0.00275389,-0.00026133,-0.0
 0000036,0.00037813,0.00093485,0.00000044,0.00227941,-0.00028435,0.0000
 0080,-0.00021984,0.35303882,-0.00000077,-0.00546872,-0.00000061,0.0000
 0010,-0.00100220,-0.00000099,-0.00000159,0.00245012,0.00000103,-0.0000
 0012,0.00177157,-0.00000031,0.00000082,0.00620498,0.00000103,0.0000007
 9,0.00117233,-0.00000119,-0.00000029,0.01815711,0.02785856,-0.00000099
 ,0.00025704,0.00040587,0.00000021,0.00021553,-0.00109458,0.00000181,-0
 .00558682,-0.00099961,-0.00000101,0.00101083,0.00290048,0.00000146,-0.
 00439502,0.00133880,-0.00000063,0.00067673,-0.03741082,-0.00000024,0.0
 5838006,-0.15283243,0.00000366,0.10322637,0.01667115,0.00000106,0.0138
 9604,-0.08557131,0.00000110,0.00309719,-0.00294475,0.00000238,0.003944
 34,-0.08317299,-0.00000278,0.01583894,-0.00587420,-0.00000073,-0.00334
 200,-0.33298916,-0.00000002,0.03500050,0.83211900,0.00000198,-0.068381
 47,0.00000404,-0.00000104,-0.00867188,0.00000404,0.00000242,0.01458590
 ,-0.00000162,0.00000188,0.00239308,0.00000221,-0.00000478,0.00984887,-
 0.00000537,-0.00000180,0.00482297,0.00000275,0.00000387,-0.02041905,0.
 00000050,-0.00000101,0.11641679,0.12900805,0.00000919,-0.30091065,-0.0
 1535862,-0.00000112,-0.00909557,-0.04230450,-0.00001289,-0.00706240,0.
 00329577,0.00000822,-0.00531778,0.06544593,-0.00001120,-0.00372972,-0.
 00170764,0.00000396,0.00039868,0.03085954,0.00000114,-0.05693207,-0.08
 452019,-0.00000473,0.56859918,-0.00380880,-0.00000036,-0.02332869,-0.0
 8899204,-0.00000047,0.08552329,-0.24909694,-0.00000004,0.05206850,-0.0
 1694407,-0.00000107,0.01733487,-0.01563386,0.00000063,0.06439072,0.000
 38370,0.00000018,-0.00112507,-0.01239076,0.00000108,-0.02799921,-0.185
 40532,-0.00000153,-0.08471844,0.57188810,-0.00000146,0.01927512,-0.000
 00533,0.00000119,-0.00306393,-0.00000180,-0.00000006,-0.04508050,-0.00
 000291,-0.00000408,-0.00442852,-0.00000364,0.00001082,0.01120621,0.000
 00884,-0.00000053,0.00474579,-0.00000065,-0.00000373,-0.00286615,-0.00
 000111,-0.00000367,-0.05059520,0.00000746,0.00000154,0.07080718,0.0308
 4414,0.00000355,-0.09796845,0.08306231,0.00000055,-0.41190367,0.061085
 85,0.00000060,-0.12898144,-0.01770286,-0.00000012,0.01330337,0.0115606
 7,-0.00000182,-0.06686615,-0.00314165,-0.00000026,-0.00502853,0.003578
 57,0.00000013,0.00637373,-0.08714108,-0.00000182,-0.18594967,-0.082145
 98,-0.00000087,0.87702086\\-0.00039937,0.,-0.00012362,0.00002313,0.,0.
 00001145,-0.00034409,0.,0.00015650,0.00007966,0.,0.00003391,0.00036046
 ,0.,0.00010210,-0.00000331,0.,-0.00009253,-0.00011838,0.,0.00002251,0.
 00048873,0.,0.00021836,-0.00008683,0.,-0.00032868\\\@


 TO DETECT ERRORS, THE PROGRAMMER MUST HAVE A CONNIVING MIND,
 ONE THAT DELIGHTS IN UNCOVERING FLAWS WHERE BEAUTY AND
 PERFECTION WERE ONCE THOUGHT TO LIE.

             -- THE PSYCHOLOGY OF COMPUTER PROGRAMMING
                GERALD M. WEINBERG
 Job cpu time:  0 days  0 hours 34 minutes 21.6 seconds.
 File lengths (MBytes):  RWF=   19 Int=    0 D2E=    0 Chk=    3 Scr=    1
 Normal termination of Gaussian 98.
