 Entering Gaussian System, Link 0=g94
AIX snake 2 4 000067668900
 Initial command:
 /usr/local/apps/g94/g94/l1.exe /wrk/g94-11088.inp -scrdir=/wrk/
 Entering Link 1 = /usr/local/apps/g94/g94/l1.exe PID=     12116.
  
       Copyright (c) 1988,1990,1992,1993,1995 Gaussian, Inc.
                     All Rights Reserved.
  
 This is part of the Gaussian 94(TM) system of programs. It is
 based on the the Gaussian 92(TM) system (copyright 1992
 Gaussian, Inc.), the Gaussian 90(TM) system (copyright 1990
 Gaussian, Inc.), the Gaussian 88(TM) system (copyright 1988
 Gaussian, Inc.), the Gaussian 86(TM) system (copyright 1986
 Carnegie Mellon University), and the Gaussian 82(TM) system
 (copyright 1983 Carnegie Mellon University). Gaussian is a
 federally registered trademark of Gaussian, Inc.
  
 This software is provided under written license and may be
 used, copied, transmitted, or stored only in accord with that
 written license.
  
 The following legend is applicable only to US Government
 contracts under DFARS:
  
                    RESTRICTED RIGHTS LEGEND
  
 Use, duplication or disclosure by the US Government is subject
 to restrictions as set forth in subparagraph (c)(1)(ii) of the
 Rights in Technical Data and Computer Software clause at DFARS
 252.227-7013.
  
 Gaussian, Inc.
 Carnegie Office Park, Building 6, Pittsburgh, PA 15106 USA
  
 The following legend is applicable only to US Government
 contracts under FAR:
  
                    RESTRICTED RIGHTS LEGEND
  
 Use, reproduction and disclosure by the US Government is subject
 to restrictions as set forth in subparagraph (c) of the
 Commercial Computer Software - Restricted Rights clause at FAR
 52.227-19.
  
 Gaussian, Inc.
 Carnegie Office Park, Building 6, Pittsburgh, PA 15106 USA
  
  
 ---------------------------------------------------------------
 Warning -- This program may not be used in any manner that
 competes with the business of Gaussian, Inc. or will provide
 assistance to any competitor of Gaussian, Inc.  The licensee
 of this program is prohibited from giving any competitor of
 Gaussian, Inc. access to this program.  By using this program,
 the user acknowledges that Gaussian, Inc. is engaged in the
 business of creating and licensing software in the field of
 computational chemistry and represents and warrants to the
 licensee that it is not a competitor of Gaussian, Inc. and that
 it will not use this program in any manner prohibited above.
 ---------------------------------------------------------------
  
 Cite this work as:
 Gaussian 94, Revision E.2,
 M. J. Frisch, G. W. Trucks, H. B. Schlegel, P. M. W. Gill,
 B. G. Johnson, M. A. Robb, J. R. Cheeseman, T. Keith,
 G. A. Petersson, J. A. Montgomery, K. Raghavachari,
 M. A. Al-Laham, V. G. Zakrzewski, J. V. Ortiz, J. B. Foresman,
 J. Cioslowski, B. B. Stefanov, A. Nanayakkara, M. Challacombe,
 C. Y. Peng, P. Y. Ayala, W. Chen, M. W. Wong, J. L. Andres,
 E. S. Replogle, R. Gomperts, R. L. Martin, D. J. Fox,
 J. S. Binkley, D. J. Defrees, J. Baker, J. P. Stewart,
 M. Head-Gordon, C. Gonzalez, and J. A. Pople,
 Gaussian, Inc., Pittsburgh PA, 1995.
  
 *********************************************
 Gaussian 94:  IBM-RS6000-G94RevE.2 3-Mar-1997
                  20-Jan-1999
 *********************************************
 %mem=24000000
 ---------------------
 #BLYP/6-31G* OPT FREQ
 ---------------------
 1/14=-1,18=20,26=3,38=1/1,3;
 2/9=110,12=2,17=6,18=5/2;
 3/5=1,6=6,7=1,11=2,25=1,30=1/1,2,3;
 4//1;
 5/5=2,38=4,42=42/2;
 6/7=2,8=2,9=2,10=2,28=1/1;
 7//1,2,3,16;
 1/14=-1/3(1);
 99//99;
 2/9=110/2;
 3/5=1,6=6,7=1,11=2,25=1,30=1/1,2,3;
 4/5=5,16=2/1;
 5/5=2,38=4,42=42/2;
 7//1,2,3,16;
 1/14=-1/3(-5);
 2/9=110/2;
 3/5=1,6=6,7=1,11=2,25=1,30=1,39=1/1,3;
 6/7=2,8=2,9=2,10=2,28=1/1;
 99/9=1/99;
 --------------------------------
 1H imidazole C3H4N2 casno=288324
 --------------------------------
 Symbolic Z-matrix:
    Charge = 0 Multiplicity = 1
 N     0.4985    0.        1.11074 
 H     0.49364   0.        -2.0291 
 C     -1.01355  0.        -0.53629 
 H     -1.88968  0.        -1.14782 
 C     -0.83766  0.        0.80248 
 H     -1.58608  0.        1.5671 
 H     2.17242   0.        -0.15962 
 C     1.11015   0.        -0.0239 
 N     0.25238   0.        -1.06564 

 GradGradGradGradGradGradGradGradGradGradGradGradGradGradGradGradGradGrad
 Berny optimization.
 Initialization pass.
                         ----------------------------
                         !    Initial Parameters    !
                         ! (Angstroms and Degrees)  !
 ------------------------                            -------------------------
 ! Name  Definition              Value          Derivative Info.             !
 -----------------------------------------------------------------------------
 ! R1    R(4,3)                  1.0684         estimate D2E/DX2             !
 ! R2    R(5,1)                  1.3713         estimate D2E/DX2             !
 ! R3    R(5,3)                  1.3503         estimate D2E/DX2             !
 ! R4    R(6,5)                  1.0699         estimate D2E/DX2             !
 ! R5    R(8,1)                  1.289          estimate D2E/DX2             !
 ! R6    R(8,7)                  1.0709         estimate D2E/DX2             !
 ! R7    R(9,2)                  0.9932         estimate D2E/DX2             !
 ! R8    R(9,3)                  1.3721         estimate D2E/DX2             !
 ! R9    R(9,8)                  1.3494         estimate D2E/DX2             !
 ! A1    A(4,3,5)              132.3996         estimate D2E/DX2             !
 ! A2    A(1,5,3)              110.476          estimate D2E/DX2             !
 ! A3    A(1,5,6)              121.3948         estimate D2E/DX2             !
 ! A4    A(3,5,6)              128.1292         estimate D2E/DX2             !
 ! A5    A(5,1,8)              105.3363         estimate D2E/DX2             !
 ! A6    A(1,8,7)              125.6084         estimate D2E/DX2             !
 ! A7    A(4,3,9)              122.3928         estimate D2E/DX2             !
 ! A8    A(5,3,9)              105.2076         estimate D2E/DX2             !
 ! A9    A(2,9,3)              126.7509         estimate D2E/DX2             !
 ! A10   A(1,8,9)              112.2043         estimate D2E/DX2             !
 ! A11   A(7,8,9)              122.1873         estimate D2E/DX2             !
 ! A12   A(2,9,8)              126.4734         estimate D2E/DX2             !
 ! A13   A(3,9,8)              106.7757         estimate D2E/DX2             !
 ! D1    D(3,5,1,8)              0.             estimate D2E/DX2             !
 ! D2    D(6,5,1,8)            180.             estimate D2E/DX2             !
 ! D3    D(1,5,3,4)            180.             estimate D2E/DX2             !
 ! D4    D(1,5,3,9)              0.             estimate D2E/DX2             !
 ! D5    D(6,5,3,4)              0.             estimate D2E/DX2             !
 ! D6    D(6,5,3,9)            180.             estimate D2E/DX2             !
 ! D7    D(7,8,1,5)            180.             estimate D2E/DX2             !
 ! D8    D(9,8,1,5)              0.             estimate D2E/DX2             !
 ! D9    D(2,9,3,4)              0.             estimate D2E/DX2             !
 ! D10   D(2,9,3,5)            180.             estimate D2E/DX2             !
 ! D11   D(8,9,3,4)            180.             estimate D2E/DX2             !
 ! D12   D(8,9,3,5)              0.             estimate D2E/DX2             !
 ! D13   D(2,9,8,1)            180.             estimate D2E/DX2             !
 ! D14   D(2,9,8,7)              0.             estimate D2E/DX2             !
 ! D15   D(3,9,8,1)              0.             estimate D2E/DX2             !
 ! D16   D(3,9,8,7)            180.             estimate D2E/DX2             !
 -----------------------------------------------------------------------------
 Trust Radius=3.00D-01 FncErr=1.00D-07 GrdErr=1.00D-06
 Number of steps in this run=  48 maximum allowed number of steps= 100.
 GradGradGradGradGradGradGradGradGradGradGradGradGradGradGradGradGradGrad

                   Input orientation:
 ----------------------------------------------------------
 Center     Atomic              Coordinates (Angstroms)
 Number     Number             X           Y           Z
 ----------------------------------------------------------
    1          7            .498501     .000000    1.110739
    2          1            .493640     .000000   -2.029103
    3          6          -1.013554     .000000    -.536287
    4          1          -1.889682     .000000   -1.147820
    5          6           -.837664     .000000     .802476
    6          1          -1.586080     .000000    1.567105
    7          1           2.172423     .000000    -.159619
    8          6           1.110146     .000000    -.023900
    9          7            .252376     .000000   -1.065639
 ----------------------------------------------------------
                    Distance matrix (angstroms):
              1          2          3          4          5
  1  N     .000000
  2  H    3.139846    .000000
  3  C    2.235845   2.121352    .000000
  4  H    3.287021   2.541040   1.068444    .000000
  5  C    1.371264   3.128931   1.350267   2.215941    .000000
  6  H    2.133951   4.154268   2.179918   2.731847   1.069945
  7  H    2.101386   2.512625   3.208166   4.180579   3.160103
  8  C    1.288998   2.097837   2.184638   3.203461   2.115860
  9  N    2.190251    .993213   1.372149   2.143634   2.162878
              6          7          8          9
  6  H     .000000
  7  H    4.136172    .000000
  8  C    3.130643   1.070912    .000000
  9  N    3.211115   2.123076   1.349441    .000000
 Stoichiometry    C3H4N2
 Framework group  CS[SG(C3H4N2)]
 Deg. of freedom   15
 Full point group                 CS      NOp   2
 Largest Abelian subgroup         CS      NOp   2
 Largest concise Abelian subgroup C1      NOp   1
                   Standard orientation:
 ----------------------------------------------------------
 Center     Atomic              Coordinates (Angstroms)
 Number     Number             X           Y           Z
 ----------------------------------------------------------
    1          7           -.741059    -.965959     .000000
    2          1           -.012734    2.088247     .000000
    3          6           1.109862     .288272     .000000
    4          1           2.103339     .681436     .000000
    5          6            .630182    -.973920     .000000
    6          1           1.182239   -1.890444     .000000
    7          1          -2.077162     .655969     .000000
    8          6          -1.074756     .279096     .000000
    9          7            .000000    1.095117     .000000
 ----------------------------------------------------------
 Rotational constants (GHZ):      9.9280220      9.6396700      4.8908607
 Isotopes: N-14,H-1,C-12,H-1,C-12,H-1,H-1,C-12,N-14
 Standard basis: 6-31G(d) (6D, 7F)
 There are    63 symmetry adapted basis functions of A'  symmetry.
 There are    20 symmetry adapted basis functions of A"  symmetry.
 Crude estimate of integral set expansion from redundant integrals=1.000.
 Integral buffers will be    262144 words long.
 Raffenetti 2 integral format.
 Two-electron integral symmetry is turned on.
    83 basis functions      156 primitive gaussians
    18 alpha electrons       18 beta electrons
       nuclear repulsion energy       164.9792003308 Hartrees.
 One-electron integrals computed using PRISM.
 The smallest eigenvalue of the overlap matrix is  1.702D-03
 Projected INDO Guess.
 Initial guess orbital symmetries:
       Occupied  (A') (A') (A') (A') (A') (A') (A') (A') (A') (A')
                 (A') (A") (A') (A') (A') (A') (A") (A")
       Virtual   (A") (A') (A') (A") (A') (A') (A') (A') (A') (A')
                 (A') (A') (A') (A') (A") (A') (A') (A') (A") (A')
                 (A') (A') (A') (A") (A") (A') (A') (A') (A') (A')
                 (A") (A') (A') (A') (A") (A') (A') (A') (A') (A")
                 (A") (A') (A') (A') (A') (A") (A') (A') (A') (A')
                 (A') (A') (A') (A") (A") (A') (A') (A') (A') (A')
                 (A") (A') (A") (A") (A")
 Requested convergence on RMS density matrix=1.00D-08 within  64 cycles.
 Requested convergence on MAX density matrix=1.00D-06.
 Keep R1 and R2 integrals in memory in canonical form, NReq=    12613112.
 Integral accuracy reduced to 1.0D-05 until final iterations.
 Initial convergence to 1.0D-05 achieved.  Increase integral accuracy.
 SCF Done:  E(RB-LYP) =  -226.127511284     A.U. after   16 cycles
             Convg  =     .4034D-08             -V/T =  2.0077
             S**2   =    .0000

 **********************************************************************

            Population analysis using the SCF density.

 **********************************************************************

 Orbital Symmetries:
       Occupied  (A') (A') (A') (A') (A') (A') (A') (A') (A') (A')
                 (A') (A') (A') (A") (A') (A") (A') (A")
       Virtual   (A") (A') (A") (A') (A') (A') (A') (A') (A') (A')
                 (A') (A') (A") (A') (A") (A') (A") (A') (A') (A')
                 (A") (A') (A') (A') (A") (A') (A') (A') (A') (A')
                 (A') (A') (A') (A") (A") (A") (A') (A') (A") (A")
                 (A') (A') (A') (A') (A') (A') (A") (A") (A') (A')
                 (A") (A") (A') (A') (A") (A') (A') (A') (A') (A')
                 (A') (A') (A') (A') (A')
  The electronic state is 1-A'.
 Alpha  occ. eigenvalues --  -14.07609 -13.98942  -9.96117  -9.94059  -9.92104
 Alpha  occ. eigenvalues --    -.92102   -.78089   -.66197   -.54782   -.52104
 Alpha  occ. eigenvalues --    -.49852   -.38184   -.38003   -.37204   -.34845
 Alpha  occ. eigenvalues --    -.23258   -.20422   -.18844
 Alpha virt. eigenvalues --     .01633    .05255    .05428    .11436    .13050
 Alpha virt. eigenvalues --     .14940    .19683    .22326    .28463    .32716
 Alpha virt. eigenvalues --     .42825    .48295    .49845    .52327    .54599
 Alpha virt. eigenvalues --     .57588    .59306    .60238    .62607    .63625
 Alpha virt. eigenvalues --     .71150    .75942    .77970    .78877    .79346
 Alpha virt. eigenvalues --     .82172    .86398    .87534    .95907    .98805
 Alpha virt. eigenvalues --    1.13244   1.20397   1.26374   1.26943   1.31949
 Alpha virt. eigenvalues --    1.34367   1.41145   1.48250   1.50865   1.52297
 Alpha virt. eigenvalues --    1.69952   1.83376   1.94149   1.99241   2.03638
 Alpha virt. eigenvalues --    2.07225   2.14779   2.20173   2.24305   2.25075
 Alpha virt. eigenvalues --    2.28186   2.36496   2.50012   2.54498   2.55554
 Alpha virt. eigenvalues --    2.64388   2.67703   2.90389   2.96057   3.01753
 Alpha virt. eigenvalues --    3.80001   3.93124   4.05459   4.14419   4.28935
          Condensed to atoms (all electrons):
              1          2          3          4          5          6
  1  N    6.608777    .007399   -.056098    .006277    .454825   -.048613
  2  H     .007399    .445791   -.034173   -.000754    .009112   -.000111
  3  C    -.056098   -.034173   4.956632    .351479    .554246   -.072681
  4  H     .006277   -.000754    .351479    .609674   -.038526   -.000443
  5  C     .454825    .009112    .554246   -.038526   4.815492    .379993
  6  H    -.048613   -.000111   -.072681   -.000443    .379993    .624971
  7  H    -.044172    .000581    .005701   -.000138    .007734   -.000254
  8  C     .544371   -.026151   -.106085    .006551   -.109743    .009115
  9  N    -.081683    .295061    .361704   -.052637   -.059185    .005120
              7          8          9
  1  N    -.044172    .544371   -.081683
  2  H     .000581   -.026151    .295061
  3  C     .005701   -.106085    .361704
  4  H    -.000138    .006551   -.052637
  5  C     .007734   -.109743   -.059185
  6  H    -.000254    .009115    .005120
  7  H     .603099    .373302   -.068046
  8  C     .373302   4.738606    .364009
  9  N    -.068046    .364009   6.722787
 Total atomic charges:
              1
  1  N    -.391082
  2  H     .303245
  3  C     .039277
  4  H     .118517
  5  C    -.013949
  6  H     .102903
  7  H     .122192
  8  C     .206025
  9  N    -.487129
 Sum of Mulliken charges=    .00000
 Atomic charges with hydrogens summed into heavy atoms:
              1
  1  N    -.391082
  2  H     .000000
  3  C     .157794
  4  H     .000000
  5  C     .088954
  6  H     .000000
  7  H     .000000
  8  C     .328218
  9  N    -.183884
 Sum of Mulliken charges=    .00000
 Electronic spatial extent (au):  <R**2>=   279.5859
 Charge=      .0000 electrons
 Dipole moment (Debye):
    X=     1.0866    Y=     3.4147    Z=      .0000  Tot=     3.5834
 Quadrupole moment (Debye-Ang):
   XX=   -26.6042   YY=   -25.2989   ZZ=   -30.6860
   XY=    -2.9158   XZ=      .0000   YZ=      .0000
 Octapole moment (Debye-Ang**2):
  XXX=      .2546  YYY=    15.0483  ZZZ=      .0000  XYY=     4.6586
  XXY=     5.4451  XXZ=      .0000  XZZ=     -.9125  YZZ=      .9473
  YYZ=      .0000  XYZ=      .0000
 Hexadecapole moment (Debye-Ang**3):
 XXXX=  -156.6604 YYYY=  -136.6669 ZZZZ=   -29.2097 XXXY=    -1.6501
 XXXZ=      .0000 YYYX=    -6.8963 YYYZ=      .0000 ZZZX=      .0000
 ZZZY=      .0000 XXYY=   -56.1927 XXZZ=   -36.4502 YYZZ=   -33.7891
 XXYZ=      .0000 YYXZ=      .0000 ZZXY=      .7446
 N-N= 1.649792003308D+02 E-N=-8.560564627318D+02  KE= 2.244008786221D+02
 Symmetry A'   KE= 2.161445855326D+02
 Symmetry A"   KE= 8.256293089487D+00
 ***** Axes restored to original set *****
 -------------------------------------------------------------------
 Center     Atomic                   Forces (Hartrees/Bohr)
 Number     Number              X              Y              Z
 -------------------------------------------------------------------
    1          7           -.002760942     .000000000     .045320898
    2          1            .004524581     .000000000    -.022406895
    3          6           -.014350527     .000000000    -.018821585
    4          1           -.010544947     .000000000    -.008516455
    5          6           -.005293209     .000000000     .020341927
    6          1           -.009597622     .000000000     .010013625
    7          1            .013951479     .000000000    -.002427559
    8          6            .029625946     .000000000    -.013238636
    9          7           -.005554759     .000000000    -.010265321
 -------------------------------------------------------------------
 Cartesian Forces:  Max      .045320898 RMS      .014079127
 Internal  Forces:  Max      .044975475 RMS      .013002752

 GradGradGradGradGradGradGradGradGradGradGradGradGradGradGradGradGradGrad
 Berny optimization.
 Search for a local minimum.
 Step number   1 out of a maximum of  48
 All quantities printed in internal units (Hartrees-Bohrs-Radians)
 Second derivative matrix not updated -- first step.
     Eigenvalues ---     .02198    .02341    .02379    .02551    .02603
     Eigenvalues ---     .02705    .16000    .16000    .16000    .16000
     Eigenvalues ---     .22000    .22911    .37115    .37237    .37427
     Eigenvalues ---     .45111    .47811    .48902    .51454    .54834
     Eigenvalues ---     .671221000.000001000.000001000.000001000.00000
     Eigenvalues --- 1000.000001000.000001000.000001000.000001000.00000
     Eigenvalues --- 1000.000001000.000001000.000001000.000001000.00000
     Eigenvalues --- 1000.000001000.000001000.00000
 RFO step:  Lambda=-1.14022869D-02.
 Linear search not attempted -- first point.
 Iteration  1 RMS(Cart)=   .03149032 RMS(Int)=   .00005006
 Iteration  2 RMS(Cart)=   .00006001 RMS(Int)=   .00001369
 Iteration  3 RMS(Cart)=   .00000125 RMS(Int)=   .00001365
 TrRot=   .000000   .000000   .000000   .000000   .000000   .000000
 Variable       Old X    -DE/DX   Delta X   Delta X   Delta X     New X
                                 (Linear)    (Quad)   (Total)
    R1        2.01907    .01352    .00000    .03506    .03506   2.05413
    R2        2.59131    .02053    .00000    .03977    .03977   2.63108
    R3        2.55164    .03695    .00000    .06362    .06359   2.61523
    R4        2.02190    .01387    .00000    .03614    .03614   2.05804
    R5        2.43585    .04498    .00000    .06482    .06484   2.50069
    R6        2.02373    .01415    .00000    .03698    .03698   2.06071
    R7        1.87690    .02283    .00000    .04563    .04563   1.92253
    R8        2.59299    .02220    .00000    .04122    .04120   2.63419
    R9        2.55007    .03152    .00000    .05734    .05736   2.60743
    A1        2.31081   -.00018    .00000    .00526    .00528   2.31609
    A2        1.92817    .00158    .00000    .00190    .00187   1.93004
    A3        2.11874   -.00093    .00000   -.00179   -.00178   2.11696
    A4        2.23628   -.00064    .00000   -.00011   -.00009   2.23618
    A5        1.83847   -.00195    .00000   -.00031   -.00028   1.83818
    A6        2.19228    .00204    .00000    .00615    .00614   2.19842
    A7        2.13616   -.00210    .00000   -.00593   -.00591   2.13024
    A8        1.83622    .00228    .00000    .00067    .00063   1.83685
    A9        2.21222   -.00142    .00000   -.00702   -.00702   2.20520
   A10        1.95833   -.00278    .00000   -.00478   -.00475   1.95359
   A11        2.13257    .00075    .00000   -.00137   -.00139   2.13118
   A12        2.20738    .00055    .00000    .00449    .00449   2.21187
   A13        1.86359    .00088    .00000    .00253    .00253   1.86612
    D1         .00000    .00000    .00000    .00000    .00000    .00000
    D2        3.14159    .00000    .00000    .00000    .00000   3.14159
    D3        3.14159    .00000    .00000    .00000    .00000   3.14159
    D4         .00000    .00000    .00000    .00000    .00000    .00000
    D5         .00000    .00000    .00000    .00000    .00000    .00000
    D6        3.14159    .00000    .00000    .00000    .00000   3.14159
    D7        3.14159    .00000    .00000    .00000    .00000   3.14159
    D8         .00000    .00000    .00000    .00000    .00000    .00000
    D9         .00000    .00000    .00000    .00000    .00000    .00000
   D10        3.14159    .00000    .00000    .00000    .00000   3.14159
   D11        3.14159    .00000    .00000    .00000    .00000   3.14159
   D12         .00000    .00000    .00000    .00000    .00000    .00000
   D13        3.14159    .00000    .00000    .00000    .00000   3.14159
   D14         .00000    .00000    .00000    .00000    .00000    .00000
   D15         .00000    .00000    .00000    .00000    .00000    .00000
   D16        3.14159    .00000    .00000    .00000    .00000   3.14159
         Item               Value     Threshold  Converged?
 Maximum Force             .044975      .000450     NO 
 RMS     Force             .013003      .000300     NO 
 Maximum Displacement      .084326      .001800     NO 
 RMS     Displacement      .031489      .001200     NO 
 Predicted change in Energy=-5.581745D-03
 GradGradGradGradGradGradGradGradGradGradGradGradGradGradGradGradGradGrad

                   Input orientation:
 ----------------------------------------------------------
 Center     Atomic              Coordinates (Angstroms)
 Number     Number             X           Y           Z
 ----------------------------------------------------------
    1          7            .504687     .000000    1.143476
    2          1            .497386     .000000   -2.071522
    3          6          -1.029684     .000000    -.545990
    4          1          -1.916989     .000000   -1.173885
    5          6           -.851023     .000000     .826347
    6          1          -1.613804     .000000    1.603675
    7          1           2.217046     .000000    -.161469
    8          6           1.135831     .000000    -.019625
    9          7            .256655     .000000   -1.083055
 ----------------------------------------------------------
                    Distance matrix (angstroms):
              1          2          3          4          5
  1  N     .000000
  2  H    3.215007    .000000
  3  C    2.282234   2.158516    .000000
  4  H    3.351817   2.575842   1.086997    .000000
  5  C    1.392308   3.196225   1.383918   2.266542    .000000
  6  H    2.167899   4.238420   2.227613   2.794059   1.089070
  7  H    2.152919   2.570123   3.269421   4.256200   3.223171
  8  C    1.323309   2.148929   2.228568   3.263745   2.159458
  9  N    2.240303   1.017360   1.393953   2.175541   2.207434
              6          7          8          9
  6  H     .000000
  7  H    4.217956    .000000
  8  C    3.193054   1.090480    .000000
  9  N    3.273703   2.166207   1.379795    .000000
 Stoichiometry    C3H4N2
 Framework group  CS[SG(C3H4N2)]
 Deg. of freedom   15
 Full point group                 CS      NOp   2
 Largest Abelian subgroup         CS      NOp   2
 Largest concise Abelian subgroup C1      NOp   1
                   Standard orientation:
 ----------------------------------------------------------
 Center     Atomic              Coordinates (Angstroms)
 Number     Number             X           Y           Z
 ----------------------------------------------------------
    1          7           -.750297    -.993179     .000000
    2          1           -.008467    2.135073     .000000
    3          6           1.129563     .300930     .000000
    4          1           2.136880     .709434     .000000
    5          6            .642011    -.994262     .000000
    6          1           1.206963   -1.925337     .000000
    7          1          -2.119123     .668559     .000000
    8          6          -1.098936     .283378     .000000
    9          7            .000000    1.117749     .000000
 ----------------------------------------------------------
 Rotational constants (GHZ):      9.5721893      9.2084790      4.6934061
 Isotopes: N-14,H-1,C-12,H-1,C-12,H-1,H-1,C-12,N-14
 Standard basis: 6-31G(d) (6D, 7F)
 There are    63 symmetry adapted basis functions of A'  symmetry.
 There are    20 symmetry adapted basis functions of A"  symmetry.
 Crude estimate of integral set expansion from redundant integrals=1.000.
 Integral buffers will be    262144 words long.
 Raffenetti 2 integral format.
 Two-electron integral symmetry is turned on.
    83 basis functions      156 primitive gaussians
    18 alpha electrons       18 beta electrons
       nuclear repulsion energy       161.6136169721 Hartrees.
 One-electron integrals computed using PRISM.
 The smallest eigenvalue of the overlap matrix is  1.965D-03
 Initial guess read from the read-write file:
 Initial guess orbital symmetries:
       Occupied  (A') (A') (A') (A') (A') (A') (A') (A') (A') (A')
                 (A') (A') (A') (A") (A') (A") (A') (A")
       Virtual   (A") (A') (A") (A') (A') (A') (A') (A') (A') (A')
                 (A') (A') (A") (A') (A") (A') (A") (A') (A') (A')
                 (A") (A') (A') (A') (A") (A') (A') (A') (A') (A')
                 (A') (A') (A') (A") (A") (A") (A') (A') (A") (A")
                 (A') (A') (A') (A') (A') (A') (A") (A") (A') (A')
                 (A") (A") (A') (A') (A") (A') (A') (A') (A') (A')
                 (A') (A') (A') (A') (A')
 Requested convergence on RMS density matrix=1.00D-08 within  64 cycles.
 Requested convergence on MAX density matrix=1.00D-06.
 Keep R1 and R2 integrals in memory in canonical form, NReq=    12613112.
 Integral accuracy reduced to 1.0D-05 until final iterations.
 Initial convergence to 1.0D-05 achieved.  Increase integral accuracy.
 SCF Done:  E(RB-LYP) =  -226.133173124     A.U. after   13 cycles
             Convg  =     .6089D-08             -V/T =  2.0099
             S**2   =    .0000
 ***** Axes restored to original set *****
 -------------------------------------------------------------------
 Center     Atomic                   Forces (Hartrees/Bohr)
 Number     Number              X              Y              Z
 -------------------------------------------------------------------
    1          7           -.002246931     .000000000     .005246684
    2          1           -.000224716     .000000000    -.000758209
    3          6           -.001329816     .000000000    -.000333391
    4          1            .000432176     .000000000    -.000432416
    5          6            .002247014     .000000000    -.002154570
    6          1            .000351943     .000000000    -.000144567
    7          1           -.000910619     .000000000     .000128941
    8          6            .003741893     .000000000    -.002930347
    9          7           -.002060945     .000000000     .001377876
 -------------------------------------------------------------------
 Cartesian Forces:  Max      .005246684 RMS      .001665240
 Internal  Forces:  Max      .003639627 RMS      .000923514

 GradGradGradGradGradGradGradGradGradGradGradGradGradGradGradGradGradGrad
 Berny optimization.
 Search for a local minimum.
 Step number   2 out of a maximum of  48
 All quantities printed in internal units (Hartrees-Bohrs-Radians)
 Update second derivatives using information from points  1  2
 Trust test= 1.01D+00 RLast= 1.45D-01 DXMaxT set to 4.24D-01
     Eigenvalues ---     .02200    .02341    .02381    .02553    .02604
     Eigenvalues ---     .02707    .15966    .16000    .16000    .16003
     Eigenvalues ---     .21921    .22907    .37167    .37348    .37833
     Eigenvalues ---     .45333    .48022    .49322    .51739    .55218
     Eigenvalues ---     .651311000.000001000.000001000.000001000.00000
     Eigenvalues --- 1000.000001000.000001000.000001000.000001000.00000
     Eigenvalues --- 1000.000001000.000001000.000001000.000001000.00000
     Eigenvalues --- 1000.000001000.000001000.00000
 RFO step:  Lambda=-8.73762195D-05.
 Quartic linear search produced a step of   .02352.
 Iteration  1 RMS(Cart)=   .00311999 RMS(Int)=   .00000688
 Iteration  2 RMS(Cart)=   .00000719 RMS(Int)=   .00000197
 TrRot=   .000000   .000000   .000000   .000000   .000000   .000000
 Variable       Old X    -DE/DX   Delta X   Delta X   Delta X     New X
                                 (Linear)    (Quad)   (Total)
    R1        2.05413   -.00010    .00082   -.00076    .00007   2.05419
    R2        2.63108   -.00038    .00094   -.00139   -.00045   2.63063
    R3        2.61523   -.00019    .00150   -.00187   -.00037   2.61485
    R4        2.05804   -.00035    .00085   -.00145   -.00060   2.05744
    R5        2.50069    .00364    .00152    .00481    .00633   2.50702
    R6        2.06071   -.00092    .00087   -.00304   -.00217   2.05854
    R7        1.92253    .00068    .00107    .00079    .00186   1.92439
    R8        2.63419   -.00126    .00097   -.00348   -.00252   2.63167
    R9        2.60743    .00134    .00135    .00209    .00344   2.61087
    A1        2.31609    .00093    .00012    .00659    .00671   2.32280
    A2        1.93004    .00221    .00004    .00854    .00859   1.93864
    A3        2.11696   -.00126   -.00004   -.00524   -.00528   2.11168
    A4        2.23618   -.00095    .00000   -.00331   -.00331   2.23287
    A5        1.83818   -.00184   -.00001   -.00619   -.00619   1.83199
    A6        2.19842    .00030    .00014    .00037    .00051   2.19893
    A7        2.13024   -.00031   -.00014   -.00123   -.00137   2.12888
    A8        1.83685   -.00063    .00001   -.00536   -.00535   1.83150
    A9        2.20520   -.00082   -.00017   -.00435   -.00452   2.20068
   A10        1.95359   -.00063   -.00011   -.00096   -.00107   1.95251
   A11        2.13118    .00032   -.00003    .00059    .00056   2.13175
   A12        2.21187   -.00006    .00011    .00039    .00050   2.21237
   A13        1.86612    .00088    .00006    .00396    .00402   1.87013
    D1         .00000    .00000    .00000    .00000    .00000    .00000
    D2        3.14159    .00000    .00000    .00000    .00000   3.14159
    D3        3.14159    .00000    .00000    .00000    .00000   3.14159
    D4         .00000    .00000    .00000    .00000    .00000    .00000
    D5         .00000    .00000    .00000    .00000    .00000    .00000
    D6        3.14159    .00000    .00000    .00000    .00000   3.14159
    D7        3.14159    .00000    .00000    .00000    .00000   3.14159
    D8         .00000    .00000    .00000    .00000    .00000    .00000
    D9         .00000    .00000    .00000    .00000    .00000    .00000
   D10        3.14159    .00000    .00000    .00000    .00000   3.14159
   D11        3.14159    .00000    .00000    .00000    .00000   3.14159
   D12         .00000    .00000    .00000    .00000    .00000    .00000
   D13        3.14159    .00000    .00000    .00000    .00000   3.14159
   D14         .00000    .00000    .00000    .00000    .00000    .00000
   D15         .00000    .00000    .00000    .00000    .00000    .00000
   D16        3.14159    .00000    .00000    .00000    .00000   3.14159
         Item               Value     Threshold  Converged?
 Maximum Force             .003640      .000450     NO 
 RMS     Force             .000924      .000300     NO 
 Maximum Displacement      .009702      .001800     NO 
 RMS     Displacement      .003119      .001200     NO 
 Predicted change in Energy=-4.675763D-05
 GradGradGradGradGradGradGradGradGradGradGradGradGradGradGradGradGradGrad

                   Input orientation:
 ----------------------------------------------------------
 Center     Atomic              Coordinates (Angstroms)
 Number     Number             X           Y           Z
 ----------------------------------------------------------
    1          7            .504287     .000000    1.143495
    2          1            .491924     .000000   -2.076229
    3          6          -1.032732     .000000    -.552223
    4          1          -1.917946     .000000   -1.183124
    5          6           -.849508     .000000     .819314
    6          1          -1.612039     .000000    1.596442
    7          1           2.215799     .000000    -.166412
    8          6           1.135928     .000000    -.023146
    9          7            .253449     .000000   -1.086201
 ----------------------------------------------------------
                    Distance matrix (angstroms):
              1          2          3          4          5
  1  N     .000000
  2  H    3.219748    .000000
  3  C    2.288643   2.155729    .000000
  4  H    3.358626   2.570041   1.087033    .000000
  5  C    1.392068   3.191177   1.383722   2.269651    .000000
  6  H    2.164254   4.232632   2.225389   2.796348   1.088752
  7  H    2.155257   2.572770   3.271361   4.256942   3.219901
  8  C    1.326659   2.151718   2.232265   3.266756   2.156780
  9  N    2.243762   1.018344   1.392621   2.173557   2.201705
              6          7          8          9
  6  H     .000000
  7  H    4.214262    .000000
  8  C    3.189732   1.089333    .000000
  9  N    3.267510   2.167217   1.381614    .000000
 Stoichiometry    C3H4N2
 Framework group  CS[SG(C3H4N2)]
 Deg. of freedom   15
 Full point group                 CS      NOp   2
 Largest Abelian subgroup         CS      NOp   2
 Largest concise Abelian subgroup C1      NOp   1
                   Standard orientation:
 ----------------------------------------------------------
 Center     Atomic              Coordinates (Angstroms)
 Number     Number             X           Y           Z
 ----------------------------------------------------------
    1          7           -.750304    -.998284     .000000
    2          1           -.007574    2.134627     .000000
    3          6           1.131440     .304377     .000000
    4          1           2.136735     .717925     .000000
    5          6            .641739    -.989793     .000000
    6          1           1.208012   -1.919694     .000000
    7          1          -2.119888     .665859     .000000
    8          6          -1.100705     .281264     .000000
    9          7            .000000    1.116311     .000000
 ----------------------------------------------------------
 Rotational constants (GHZ):      9.5887907      9.1790170      4.6897152
 Isotopes: N-14,H-1,C-12,H-1,C-12,H-1,H-1,C-12,N-14
 Standard basis: 6-31G(d) (6D, 7F)
 There are    63 symmetry adapted basis functions of A'  symmetry.
 There are    20 symmetry adapted basis functions of A"  symmetry.
 Crude estimate of integral set expansion from redundant integrals=1.000.
 Integral buffers will be    262144 words long.
 Raffenetti 2 integral format.
 Two-electron integral symmetry is turned on.
    83 basis functions      156 primitive gaussians
    18 alpha electrons       18 beta electrons
       nuclear repulsion energy       161.5501042436 Hartrees.
 One-electron integrals computed using PRISM.
 The smallest eigenvalue of the overlap matrix is  1.970D-03
 Initial guess read from the read-write file:
 Initial guess orbital symmetries:
       Occupied  (A') (A') (A') (A') (A') (A') (A') (A') (A') (A')
                 (A') (A') (A') (A") (A') (A") (A') (A")
       Virtual   (A") (A") (A') (A') (A') (A') (A') (A') (A') (A')
                 (A') (A') (A") (A') (A") (A') (A") (A') (A') (A')
                 (A") (A') (A') (A') (A") (A') (A') (A') (A') (A')
                 (A') (A') (A') (A") (A") (A") (A') (A') (A") (A")
                 (A') (A') (A') (A') (A') (A') (A") (A") (A') (A')
                 (A") (A") (A') (A") (A') (A') (A') (A') (A') (A')
                 (A') (A') (A') (A') (A')
 Requested convergence on RMS density matrix=1.00D-08 within  64 cycles.
 Requested convergence on MAX density matrix=1.00D-06.
 Keep R1 and R2 integrals in memory in canonical form, NReq=    12613112.
 SCF Done:  E(RB-LYP) =  -226.133218327     A.U. after   10 cycles
             Convg  =     .4782D-08             -V/T =  2.0099
             S**2   =    .0000
 ***** Axes restored to original set *****
 -------------------------------------------------------------------
 Center     Atomic                   Forces (Hartrees/Bohr)
 Number     Number              X              Y              Z
 -------------------------------------------------------------------
    1          7           -.001762648     .000000000     .000681864
    2          1            .000026890     .000000000     .000066968
    3          6            .000180907     .000000000     .000487479
    4          1            .000300468     .000000000     .000033473
    5          6            .000133152     .000000000     .000408951
    6          1           -.000026750     .000000000     .000030962
    7          1           -.000249634     .000000000    -.000014561
    8          6            .001103799     .000000000    -.001953115
    9          7            .000293816     .000000000     .000257979
 -------------------------------------------------------------------
 Cartesian Forces:  Max      .001953115 RMS      .000589222
 Internal  Forces:  Max      .001610882 RMS      .000366313

 GradGradGradGradGradGradGradGradGradGradGradGradGradGradGradGradGradGrad
 Berny optimization.
 Search for a local minimum.
 Step number   3 out of a maximum of  48
 All quantities printed in internal units (Hartrees-Bohrs-Radians)
 Update second derivatives using information from points  1  2  3
 Trust test= 9.67D-01 RLast= 1.82D-02 DXMaxT set to 4.24D-01
     Eigenvalues ---     .02200    .02341    .02382    .02553    .02604
     Eigenvalues ---     .02706    .15244    .16000    .16001    .16042
     Eigenvalues ---     .21620    .28198    .36722    .37532    .37650
     Eigenvalues ---     .43414    .46264    .49268    .51866    .56289
     Eigenvalues ---     .610901000.000001000.000001000.000001000.00000
     Eigenvalues --- 1000.000001000.000001000.000001000.000001000.00000
     Eigenvalues --- 1000.000001000.000001000.000001000.000001000.00000
     Eigenvalues --- 1000.000001000.000001000.00000
 RFO step:  Lambda=-1.07827505D-05.
 Quartic linear search produced a step of  -.02476.
 Iteration  1 RMS(Cart)=   .00093536 RMS(Int)=   .00000058
 Iteration  2 RMS(Cart)=   .00000056 RMS(Int)=   .00000024
 TrRot=   .000000   .000000   .000000   .000000   .000000   .000000
 Variable       Old X    -DE/DX   Delta X   Delta X   Delta X     New X
                                 (Linear)    (Quad)   (Total)
    R1        2.05419   -.00026    .00000   -.00066   -.00066   2.05354
    R2        2.63063   -.00072    .00001   -.00139   -.00138   2.62925
    R3        2.61485   -.00015    .00001   -.00042   -.00041   2.61445
    R4        2.05744    .00004    .00001    .00005    .00006   2.05750
    R5        2.50702    .00161   -.00016    .00329    .00313   2.51016
    R6        2.05854   -.00025    .00005   -.00092   -.00087   2.05767
    R7        1.92439   -.00006   -.00005    .00017    .00013   1.92452
    R8        2.63167    .00019    .00006   -.00009   -.00002   2.63165
    R9        2.61087   -.00078   -.00009   -.00078   -.00086   2.61001
    A1        2.32280   -.00012   -.00017    .00096    .00080   2.32360
    A2        1.93864   -.00041   -.00021   -.00087   -.00108   1.93755
    A3        2.11168    .00020    .00013    .00029    .00042   2.11210
    A4        2.23287    .00021    .00008    .00058    .00067   2.23354
    A5        1.83199    .00036    .00015    .00112    .00128   1.83327
    A6        2.19893    .00028   -.00001    .00114    .00113   2.20005
    A7        2.12888   -.00042    .00003   -.00202   -.00199   2.12689
    A8        1.83150    .00054    .00013    .00106    .00119   1.83270
    A9        2.20068    .00005    .00011   -.00029   -.00018   2.20050
   A10        1.95251   -.00047    .00003   -.00170   -.00167   1.95084
   A11        2.13175    .00019   -.00001    .00056    .00054   2.13229
   A12        2.21237   -.00003   -.00001   -.00009   -.00010   2.21227
   A13        1.87013   -.00002   -.00010    .00038    .00028   1.87042
    D1         .00000    .00000    .00000    .00000    .00000    .00000
    D2        3.14159    .00000    .00000    .00000    .00000   3.14159
    D3        3.14159    .00000    .00000    .00000    .00000   3.14159
    D4         .00000    .00000    .00000    .00000    .00000    .00000
    D5         .00000    .00000    .00000    .00000    .00000    .00000
    D6        3.14159    .00000    .00000    .00000    .00000   3.14159
    D7        3.14159    .00000    .00000    .00000    .00000   3.14159
    D8         .00000    .00000    .00000    .00000    .00000    .00000
    D9         .00000    .00000    .00000    .00000    .00000    .00000
   D10        3.14159    .00000    .00000    .00000    .00000   3.14159
   D11        3.14159    .00000    .00000    .00000    .00000   3.14159
   D12         .00000    .00000    .00000    .00000    .00000    .00000
   D13        3.14159    .00000    .00000    .00000    .00000   3.14159
   D14         .00000    .00000    .00000    .00000    .00000    .00000
   D15         .00000    .00000    .00000    .00000    .00000    .00000
   D16        3.14159    .00000    .00000    .00000    .00000   3.14159
         Item               Value     Threshold  Converged?
 Maximum Force             .001611      .000450     NO 
 RMS     Force             .000366      .000300     NO 
 Maximum Displacement      .003153      .001800     NO 
 RMS     Displacement      .000935      .001200     YES
 Predicted change in Energy=-5.420359D-06
 GradGradGradGradGradGradGradGradGradGradGradGradGradGradGradGradGradGrad

                   Input orientation:
 ----------------------------------------------------------
 Center     Atomic              Coordinates (Angstroms)
 Number     Number             X           Y           Z
 ----------------------------------------------------------
    1          7            .502937     .000000    1.142550
    2          1            .491365     .000000   -2.077255
    3          6          -1.032432     .000000    -.552462
    4          1          -1.916389     .000000   -1.184524
    5          6           -.850260     .000000     .818997
    6          1          -1.612876     .000000    1.596087
    7          1           2.215851     .000000    -.168363
    8          6           1.136464     .000000    -.024955
    9          7            .253498     .000000   -1.087012
 ----------------------------------------------------------
                    Distance matrix (angstroms):
              1          2          3          4          5
  1  N     .000000
  2  H    3.219826    .000000
  3  C    2.287012   2.155678    .000000
  4  H    3.356845   2.567927   1.086684    .000000
  5  C    1.391340   3.191901   1.383505   2.269521    .000000
  6  H    2.163876   4.233352   2.225574   2.797127   1.088785
  7  H    2.156981   2.572493   3.270913   4.255348   3.221167
  8  C    1.328317   2.151298   2.232122   3.265656   2.158548
  9  N    2.243472   1.018411   1.392609   2.172077   2.202534
              6          7          8          9
  6  H     .000000
  7  H    4.215736    .000000
  8  C    3.191653   1.088872    .000000
  9  N    3.268390   2.166736   1.381156    .000000
 Stoichiometry    C3H4N2
 Framework group  CS[SG(C3H4N2)]
 Deg. of freedom   15
 Full point group                 CS      NOp   2
 Largest Abelian subgroup         CS      NOp   2
 Largest concise Abelian subgroup C1      NOp   1
                   Standard orientation:
 ----------------------------------------------------------
 Center     Atomic              Coordinates (Angstroms)
 Number     Number             X           Y           Z
 ----------------------------------------------------------
    1          7           -.749456    -.998268     .000000
    2          1           -.006670    2.134710     .000000
    3          6           1.130857     .303595     .000000
    4          1           2.135298     .718300     .000000
    5          6            .641864    -.990612     .000000
    6          1           1.207988   -1.920642     .000000
    7          1          -2.119747     .667526     .000000
    8          6          -1.101167     .282640     .000000
    9          7            .000000    1.116321     .000000
 ----------------------------------------------------------
 Rotational constants (GHZ):      9.5824517      9.1842826      4.6895716
 Isotopes: N-14,H-1,C-12,H-1,C-12,H-1,H-1,C-12,N-14
 Standard basis: 6-31G(d) (6D, 7F)
 There are    63 symmetry adapted basis functions of A'  symmetry.
 There are    20 symmetry adapted basis functions of A"  symmetry.
 Crude estimate of integral set expansion from redundant integrals=1.000.
 Integral buffers will be    262144 words long.
 Raffenetti 2 integral format.
 Two-electron integral symmetry is turned on.
    83 basis functions      156 primitive gaussians
    18 alpha electrons       18 beta electrons
       nuclear repulsion energy       161.5453092050 Hartrees.
 One-electron integrals computed using PRISM.
 The smallest eigenvalue of the overlap matrix is  1.966D-03
 Initial guess read from the read-write file:
 Initial guess orbital symmetries:
       Occupied  (A') (A') (A') (A') (A') (A') (A') (A') (A') (A')
                 (A') (A') (A') (A") (A') (A") (A') (A")
       Virtual   (A") (A") (A') (A') (A') (A') (A') (A') (A') (A')
                 (A') (A') (A") (A') (A") (A') (A") (A') (A') (A')
                 (A") (A') (A') (A') (A") (A') (A') (A') (A') (A')
                 (A') (A') (A') (A") (A") (A") (A') (A') (A") (A")
                 (A') (A') (A') (A') (A') (A') (A") (A") (A') (A')
                 (A") (A") (A') (A") (A') (A') (A') (A') (A') (A')
                 (A') (A') (A') (A') (A')
 Requested convergence on RMS density matrix=1.00D-08 within  64 cycles.
 Requested convergence on MAX density matrix=1.00D-06.
 Keep R1 and R2 integrals in memory in canonical form, NReq=    12613112.
 SCF Done:  E(RB-LYP) =  -226.133224400     A.U. after    8 cycles
             Convg  =     .6634D-08             -V/T =  2.0099
             S**2   =    .0000
 ***** Axes restored to original set *****
 -------------------------------------------------------------------
 Center     Atomic                   Forces (Hartrees/Bohr)
 Number     Number              X              Y              Z
 -------------------------------------------------------------------
    1          7           -.000379537     .000000000     .000067132
    2          1           -.000024611     .000000000     .000094455
    3          6            .000013619     .000000000    -.000033087
    4          1            .000008411     .000000000    -.000035792
    5          6            .000379268     .000000000     .000131552
    6          1           -.000008022     .000000000     .000000607
    7          1            .000009010     .000000000     .000066420
    8          6           -.000196554     .000000000    -.000530120
    9          7            .000198416     .000000000     .000238833
 -------------------------------------------------------------------
 Cartesian Forces:  Max      .000530120 RMS      .000165830
 Internal  Forces:  Max      .000379823 RMS      .000092098

 GradGradGradGradGradGradGradGradGradGradGradGradGradGradGradGradGradGrad
 Berny optimization.
 Search for a local minimum.
 Step number   4 out of a maximum of  48
 All quantities printed in internal units (Hartrees-Bohrs-Radians)
 Update second derivatives using information from points  1  2  3  4
 Trust test= 1.12D+00 RLast= 5.27D-03 DXMaxT set to 4.24D-01
     Eigenvalues ---     .02200    .02341    .02382    .02554    .02604
     Eigenvalues ---     .02706    .14651    .16000    .16026    .16196
     Eigenvalues ---     .21577    .28824    .36556    .37541    .37827
     Eigenvalues ---     .41189    .46075    .48951    .51621    .54929
     Eigenvalues ---     .589651000.000001000.000001000.000001000.00000
     Eigenvalues --- 1000.000001000.000001000.000001000.000001000.00000
     Eigenvalues --- 1000.000001000.000001000.000001000.000001000.00000
     Eigenvalues --- 1000.000001000.000001000.00000
 RFO step:  Lambda=-6.46783658D-07.
 Quartic linear search produced a step of   .12789.
 Iteration  1 RMS(Cart)=   .00022251 RMS(Int)=   .00000004
 Iteration  2 RMS(Cart)=   .00000004 RMS(Int)=   .00000002
 TrRot=   .000000   .000000   .000000   .000000   .000000   .000000
 Variable       Old X    -DE/DX   Delta X   Delta X   Delta X     New X
                                 (Linear)    (Quad)   (Total)
    R1        2.05354    .00001   -.00008    .00010    .00002   2.05355
    R2        2.62925   -.00035   -.00018   -.00068   -.00085   2.62840
    R3        2.61445    .00005   -.00005    .00015    .00010   2.61454
    R4        2.05750    .00001    .00001    .00002    .00002   2.05753
    R5        2.51016    .00015    .00040    .00014    .00054   2.51070
    R6        2.05767    .00000   -.00011    .00004   -.00007   2.05760
    R7        1.92452   -.00010    .00002   -.00019   -.00018   1.92434
    R8        2.63165   -.00006    .00000   -.00016   -.00016   2.63149
    R9        2.61001   -.00038   -.00011   -.00066   -.00077   2.60923
    A1        2.32360    .00005    .00010    .00034    .00044   2.32404
    A2        1.93755   -.00001   -.00014    .00022    .00008   1.93763
    A3        2.11210    .00001    .00005   -.00007   -.00002   2.11208
    A4        2.23354    .00000    .00009   -.00015   -.00006   2.23348
    A5        1.83327    .00000    .00016   -.00020   -.00004   1.83323
    A6        2.20005   -.00008    .00014   -.00059   -.00045   2.19961
    A7        2.12689   -.00003   -.00025   -.00009   -.00035   2.12654
    A8        1.83270   -.00002    .00015   -.00025   -.00010   1.83260
    A9        2.20050   -.00001   -.00002   -.00009   -.00011   2.20039
   A10        1.95084    .00002   -.00021    .00016   -.00006   1.95078
   A11        2.13229    .00006    .00007    .00044    .00051   2.13280
   A12        2.21227   -.00001   -.00001    .00001    .00000   2.21227
   A13        1.87042    .00001    .00004    .00008    .00011   1.87053
    D1         .00000    .00000    .00000    .00000    .00000    .00000
    D2        3.14159    .00000    .00000    .00000    .00000   3.14159
    D3        3.14159    .00000    .00000    .00000    .00000   3.14159
    D4         .00000    .00000    .00000    .00000    .00000    .00000
    D5         .00000    .00000    .00000    .00000    .00000    .00000
    D6        3.14159    .00000    .00000    .00000    .00000   3.14159
    D7        3.14159    .00000    .00000    .00000    .00000   3.14159
    D8         .00000    .00000    .00000    .00000    .00000    .00000
    D9         .00000    .00000    .00000    .00000    .00000    .00000
   D10        3.14159    .00000    .00000    .00000    .00000   3.14159
   D11        3.14159    .00000    .00000    .00000    .00000   3.14159
   D12         .00000    .00000    .00000    .00000    .00000    .00000
   D13        3.14159    .00000    .00000    .00000    .00000   3.14159
   D14         .00000    .00000    .00000    .00000    .00000    .00000
   D15         .00000    .00000    .00000    .00000    .00000    .00000
   D16        3.14159    .00000    .00000    .00000    .00000   3.14159
         Item               Value     Threshold  Converged?
 Maximum Force             .000380      .000450     YES
 RMS     Force             .000092      .000300     YES
 Maximum Displacement      .000600      .001800     YES
 RMS     Displacement      .000223      .001200     YES
 Predicted change in Energy=-4.018295D-07
 Optimization completed.
    -- Stationary point found.
                         ----------------------------
                         !   Optimized Parameters   !
                         ! (Angstroms and Degrees)  !
 ------------------------                            -------------------------
 ! Name  Definition              Value          Derivative Info.             !
 -----------------------------------------------------------------------------
 ! R1    R(4,3)                  1.0867         -DE/DX =    0.               !
 ! R2    R(5,1)                  1.3913         -DE/DX =   -0.0004           !
 ! R3    R(5,3)                  1.3835         -DE/DX =    0.               !
 ! R4    R(6,5)                  1.0888         -DE/DX =    0.               !
 ! R5    R(8,1)                  1.3283         -DE/DX =    0.0002           !
 ! R6    R(8,7)                  1.0889         -DE/DX =    0.               !
 ! R7    R(9,2)                  1.0184         -DE/DX =   -0.0001           !
 ! R8    R(9,3)                  1.3926         -DE/DX =   -0.0001           !
 ! R9    R(9,8)                  1.3812         -DE/DX =   -0.0004           !
 ! A1    A(4,3,5)              133.1325         -DE/DX =    0.               !
 ! A2    A(1,5,3)              111.0135         -DE/DX =    0.               !
 ! A3    A(1,5,6)              121.0143         -DE/DX =    0.               !
 ! A4    A(3,5,6)              127.9723         -DE/DX =    0.               !
 ! A5    A(5,1,8)              105.0386         -DE/DX =    0.               !
 ! A6    A(1,8,7)              126.0537         -DE/DX =   -0.0001           !
 ! A7    A(4,3,9)              121.8616         -DE/DX =    0.               !
 ! A8    A(5,3,9)              105.0059         -DE/DX =    0.               !
 ! A9    A(2,9,3)              126.0794         -DE/DX =    0.               !
 ! A10   A(1,8,9)              111.7751         -DE/DX =    0.               !
 ! A11   A(7,8,9)              122.1712         -DE/DX =    0.0001           !
 ! A12   A(2,9,8)              126.7536         -DE/DX =    0.               !
 ! A13   A(3,9,8)              107.167          -DE/DX =    0.               !
 ! D1    D(3,5,1,8)              0.             -DE/DX =    0.               !
 ! D2    D(6,5,1,8)            180.             -DE/DX =    0.               !
 ! D3    D(1,5,3,4)            180.             -DE/DX =    0.               !
 ! D4    D(1,5,3,9)              0.             -DE/DX =    0.               !
 ! D5    D(6,5,3,4)              0.             -DE/DX =    0.               !
 ! D6    D(6,5,3,9)            180.             -DE/DX =    0.               !
 ! D7    D(7,8,1,5)            180.             -DE/DX =    0.               !
 ! D8    D(9,8,1,5)              0.             -DE/DX =    0.               !
 ! D9    D(2,9,3,4)              0.             -DE/DX =    0.               !
 ! D10   D(2,9,3,5)            180.             -DE/DX =    0.               !
 ! D11   D(8,9,3,4)            180.             -DE/DX =    0.               !
 ! D12   D(8,9,3,5)              0.             -DE/DX =    0.               !
 ! D13   D(2,9,8,1)            180.             -DE/DX =    0.               !
 ! D14   D(2,9,8,7)              0.             -DE/DX =    0.               !
 ! D15   D(3,9,8,1)              0.             -DE/DX =    0.               !
 ! D16   D(3,9,8,7)            180.             -DE/DX =    0.               !
 -----------------------------------------------------------------------------
 GradGradGradGradGradGradGradGradGradGradGradGradGradGradGradGradGradGrad

                   Input orientation:
 ----------------------------------------------------------
 Center     Atomic              Coordinates (Angstroms)
 Number     Number             X           Y           Z
 ----------------------------------------------------------
    1          7            .503058     .000000    1.142434
    2          1            .491486     .000000   -2.077371
    3          6          -1.032310     .000000    -.552578
    4          1          -1.916268     .000000   -1.184640
    5          6           -.850139     .000000     .818881
    6          1          -1.612755     .000000    1.595971
    7          1           2.215972     .000000    -.168479
    8          6           1.136585     .000000    -.025072
    9          7            .253620     .000000   -1.087129
 ----------------------------------------------------------
                    Distance matrix (angstroms):
              1          2          3          4          5
  1  N     .000000
  2  H    3.219826    .000000
  3  C    2.287012   2.155678    .000000
  4  H    3.356845   2.567927   1.086684    .000000
  5  C    1.391340   3.191901   1.383505   2.269521    .000000
  6  H    2.163876   4.233352   2.225574   2.797127   1.088785
  7  H    2.156981   2.572493   3.270913   4.255348   3.221167
  8  C    1.328317   2.151298   2.232122   3.265656   2.158548
  9  N    2.243472   1.018411   1.392609   2.172077   2.202534
              6          7          8          9
  6  H     .000000
  7  H    4.215736    .000000
  8  C    3.191653   1.088872    .000000
  9  N    3.268390   2.166736   1.381156    .000000
 Stoichiometry    C3H4N2
 Framework group  CS[SG(C3H4N2)]
 Deg. of freedom   15
 Full point group                 CS      NOp   2
 Largest Abelian subgroup         CS      NOp   2
 Largest concise Abelian subgroup C1      NOp   1
                   Standard orientation:
 ----------------------------------------------------------
 Center     Atomic              Coordinates (Angstroms)
 Number     Number             X           Y           Z
 ----------------------------------------------------------
    1          7           -.749456    -.998268     .000000
    2          1           -.006670    2.134710     .000000
    3          6           1.130857     .303595     .000000
    4          1           2.135298     .718300     .000000
    5          6            .641864    -.990612     .000000
    6          1           1.207988   -1.920642     .000000
    7          1          -2.119747     .667526     .000000
    8          6          -1.101167     .282640     .000000
    9          7            .000000    1.116321     .000000
 ----------------------------------------------------------
 Rotational constants (GHZ):      9.5824517      9.1842826      4.6895716
 Isotopes: N-14,H-1,C-12,H-1,C-12,H-1,H-1,C-12,N-14
 Standard basis: 6-31G(d) (6D, 7F)
 There are    63 symmetry adapted basis functions of A'  symmetry.
 There are    20 symmetry adapted basis functions of A"  symmetry.
 Crude estimate of integral set expansion from redundant integrals=1.000.
 Integral buffers will be    262144 words long.
 Raffenetti 2 integral format.
 Two-electron integral symmetry is turned on.
    83 basis functions      156 primitive gaussians
    18 alpha electrons       18 beta electrons
       nuclear repulsion energy       161.5453092050 Hartrees.

 **********************************************************************

            Population analysis using the SCF density.

 **********************************************************************

 Orbital Symmetries:
       Occupied  (A') (A') (A') (A') (A') (A') (A') (A') (A') (A')
                 (A') (A') (A') (A") (A') (A") (A') (A")
       Virtual   (A") (A") (A') (A') (A') (A') (A') (A') (A') (A')
                 (A') (A') (A") (A') (A") (A') (A") (A') (A') (A')
                 (A") (A') (A') (A') (A") (A') (A') (A') (A') (A')
                 (A') (A') (A') (A") (A") (A") (A') (A') (A") (A")
                 (A') (A') (A') (A') (A') (A') (A") (A") (A') (A')
                 (A") (A") (A') (A") (A') (A') (A') (A') (A') (A')
                 (A') (A') (A') (A') (A')
  The electronic state is 1-A'.
 Alpha  occ. eigenvalues --  -14.08183 -13.99829  -9.97025  -9.94916  -9.93023
 Alpha  occ. eigenvalues --    -.90285   -.77120   -.65337   -.54211   -.51445
 Alpha  occ. eigenvalues --    -.49101   -.37877   -.37661   -.36137   -.34593
 Alpha  occ. eigenvalues --    -.23047   -.20794   -.18550
 Alpha virt. eigenvalues --     .00573    .04366    .04470    .10502    .12206
 Alpha virt. eigenvalues --     .14173    .18547    .20694    .27576    .32071
 Alpha virt. eigenvalues --     .40388    .48842    .50175    .51048    .54913
 Alpha virt. eigenvalues --     .55867    .59200    .59435    .60697    .61870
 Alpha virt. eigenvalues --     .70954    .75574    .77190    .77553    .78922
 Alpha virt. eigenvalues --     .80924    .85620    .86812    .94255    .97393
 Alpha virt. eigenvalues --    1.11798   1.18549   1.25261   1.28364   1.31627
 Alpha virt. eigenvalues --    1.33774   1.40382   1.46596   1.49458   1.50928
 Alpha virt. eigenvalues --    1.69181   1.79916   1.90286   1.94577   1.98921
 Alpha virt. eigenvalues --    2.01969   2.13509   2.17296   2.18867   2.21208
 Alpha virt. eigenvalues --    2.25393   2.33271   2.48357   2.50374   2.53495
 Alpha virt. eigenvalues --    2.60932   2.65154   2.84847   2.89237   2.96045
 Alpha virt. eigenvalues --    3.77037   3.88819   4.02588   4.14160   4.28114
          Condensed to atoms (all electrons):
              1          2          3          4          5          6
  1  N    6.650909    .005999   -.049556    .005094    .434156   -.046253
  2  H     .005999    .442615   -.031054   -.000427    .007851   -.000100
  3  C    -.049556   -.031054   4.960639    .349473    .542687   -.065789
  4  H     .005094   -.000427    .349473    .600534   -.034731   -.000153
  5  C     .434156    .007851    .542687   -.034731   4.838114    .375584
  6  H    -.046253   -.000100   -.065789   -.000153    .375584    .615508
  7  H    -.041104    .000592    .004955   -.000119    .006789   -.000210
  8  C     .509461   -.022889   -.105435    .005972   -.097575    .008370
  9  N    -.073199    .289577    .358003   -.049030   -.058682    .004417
              7          8          9
  1  N    -.041104    .509461   -.073199
  2  H     .000592   -.022889    .289577
  3  C     .004955   -.105435    .358003
  4  H    -.000119    .005972   -.049030
  5  C     .006789   -.097575   -.058682
  6  H    -.000210    .008370    .004417
  7  H     .590323    .370592   -.061272
  8  C     .370592   4.780430    .351507
  9  N    -.061272    .351507   6.733927
 Total atomic charges:
              1
  1  N    -.395506
  2  H     .307837
  3  C     .036077
  4  H     .123387
  5  C    -.014192
  6  H     .108626
  7  H     .129454
  8  C     .199567
  9  N    -.495249
 Sum of Mulliken charges=    .00000
 Atomic charges with hydrogens summed into heavy atoms:
              1
  1  N    -.395506
  2  H     .000000
  3  C     .159464
  4  H     .000000
  5  C     .094434
  6  H     .000000
  7  H     .000000
  8  C     .329021
  9  N    -.187412
 Sum of Mulliken charges=    .00000
 Electronic spatial extent (au):  <R**2>=   288.9604
 Charge=      .0000 electrons
 Dipole moment (Debye):
    X=     1.0865    Y=     3.4545    Z=      .0000  Tot=     3.6213
 Quadrupole moment (Debye-Ang):
   XX=   -26.4366   YY=   -25.2411   ZZ=   -31.0646
   XY=    -2.9900   XZ=      .0000   YZ=      .0000
 Octapole moment (Debye-Ang**2):
  XXX=      .0083  YYY=    15.7213  ZZZ=      .0000  XYY=     4.9994
  XXY=     5.7599  XXZ=      .0000  XZZ=     -.9102  YZZ=      .9189
  YYZ=      .0000  XYZ=      .0000
 Hexadecapole moment (Debye-Ang**3):
 XXXX=  -160.7675 YYYY=  -141.5078 ZZZZ=   -29.8390 XXXY=    -2.1750
 XXXZ=      .0000 YYYX=    -7.7749 YYYZ=      .0000 ZZZX=      .0000
 ZZZY=      .0000 XXYY=   -58.0167 XXZZ=   -37.8912 YYZZ=   -35.3053
 XXYZ=      .0000 YYXZ=      .0000 ZZXY=      .6676
 N-N= 1.615453092050D+02 E-N=-8.488580731174D+02  KE= 2.239079813228D+02
 Symmetry A'   KE= 2.157003719021D+02
 Symmetry A"   KE= 8.207609420726D+00
 1\1\GINC-SNAKE\FOpt\RBLYP\6-31G(d)\C3H4N2\RDJ3\20-Jan-1999\0\\#BLYP/6-
 31G* OPT FREQ\\1H imidazole C3H4N2 casno=288324\\0,1\N,0.5030581235,0.
 ,1.1424338371\H,0.4914864183,0.,-2.0773711675\C,-1.032310193,0.,-0.552
 5783081\H,-1.9162675778,0.,-1.1846401106\C,-0.850138641,0.,0.818880700
 1\H,-1.6127547216,0.,1.5959708433\H,2.2159721717,0.,-0.1684793154\C,1.
 136585153,0.,-0.0250719331\N,0.2536198473,0.,-1.0871285518\\Version=IB
 M-RS6000-G94RevE.2\State=1-A'\HF=-226.1332244\RMSD=6.634e-09\RMSF=1.65
 8e-04\Dipole=-0.1075068,0.,-1.4206755\PG=CS [SG(C3H4N2)]\\@


 A MUSTACHE HAIR ACROSS A CHIP IS LIKE A REDWOOD
 TREE FALLING THROUGH A HOUSING PROJECT.
 - AN IBM MANAGER IN EAST FISHKILL, NEW YORK
   AS QUOTED IN "FROM SANDS TO CIRCUITS", IBM INNOVATION JANUARY 1985.
 Job cpu time:  0 days  0 hours 23 minutes  1.8 seconds.
 File lengths (MBytes):  RWF=    9 Int=    0 D2E=    0 Chk=    2 Scr=    1
 Normal termination of Gaussian 94
 Link1:  Proceeding to internal job step number  2.
 -----------------------------------------------
 #N Geom=AllCheck Guess=Read RBLYP/6-31G(d) Freq
 -----------------------------------------------
 1/10=4,29=7,30=1,38=1/1,3;
 2/12=2/2;
 3/5=1,6=6,7=1,11=2,25=1,30=1/1,2,3;
 4/5=1,7=1/1;
 5/5=2,42=42/2;
 8/6=4,11=11,23=2/1;
 11/6=1,8=1,9=11,15=111,16=11/1,2,10;
 10/6=1/2;
 7/8=1,10=1,25=1/1,2,3,16;
 1/10=4,30=1/3;
 6/7=2,8=2,9=2,10=2,18=1,28=1/1;
 99//99;
 --------------------------------
 1H imidazole C3H4N2 casno=288324
 --------------------------------
 Redundant internal coordinates taken from checkpointfile:
 /wrk/g94-12116.chk
    Charge = 0 Multiplicity = 1
 N,0,0.5030581235,0.,1.1424338371
 H,0,0.4914864183,0.,-2.0773711675
 C,0,-1.032310193,0.,-0.5525783081
 H,0,-1.9162675778,0.,-1.1846401106
 C,0,-0.850138641,0.,0.8188807001
 H,0,-1.6127547216,0.,1.5959708433
 H,0,2.2159721717,0.,-0.1684793154
 C,0,1.136585153,0.,-0.0250719331
 N,0,0.2536198473,0.,-1.0871285518

 GradGradGradGradGradGradGradGradGradGradGradGradGradGradGradGradGradGrad
 Berny optimization.
 Initialization pass.
                         ----------------------------
                         !    Initial Parameters    !
                         ! (Angstroms and Degrees)  !
 ------------------------                            -------------------------
 ! Name  Definition              Value          Derivative Info.             !
 -----------------------------------------------------------------------------
 ! R1    R(4,3)                  1.0867         calculate D2E/DX2 analyticall!
 ! R2    R(5,1)                  1.3913         calculate D2E/DX2 analyticall!
 ! R3    R(5,3)                  1.3835         calculate D2E/DX2 analyticall!
 ! R4    R(6,5)                  1.0888         calculate D2E/DX2 analyticall!
 ! R5    R(8,1)                  1.3283         calculate D2E/DX2 analyticall!
 ! R6    R(8,7)                  1.0889         calculate D2E/DX2 analyticall!
 ! R7    R(9,2)                  1.0184         calculate D2E/DX2 analyticall!
 ! R8    R(9,3)                  1.3926         calculate D2E/DX2 analyticall!
 ! R9    R(9,8)                  1.3812         calculate D2E/DX2 analyticall!
 ! A1    A(4,3,5)              133.1325         calculate D2E/DX2 analyticall!
 ! A2    A(1,5,3)              111.0135         calculate D2E/DX2 analyticall!
 ! A3    A(1,5,6)              121.0143         calculate D2E/DX2 analyticall!
 ! A4    A(3,5,6)              127.9723         calculate D2E/DX2 analyticall!
 ! A5    A(5,1,8)              105.0386         calculate D2E/DX2 analyticall!
 ! A6    A(1,8,7)              126.0537         calculate D2E/DX2 analyticall!
 ! A7    A(4,3,9)              121.8616         calculate D2E/DX2 analyticall!
 ! A8    A(5,3,9)              105.0059         calculate D2E/DX2 analyticall!
 ! A9    A(2,9,3)              126.0794         calculate D2E/DX2 analyticall!
 ! A10   A(1,8,9)              111.7751         calculate D2E/DX2 analyticall!
 ! A11   A(7,8,9)              122.1712         calculate D2E/DX2 analyticall!
 ! A12   A(2,9,8)              126.7536         calculate D2E/DX2 analyticall!
 ! A13   A(3,9,8)              107.167          calculate D2E/DX2 analyticall!
 ! D1    D(3,5,1,8)              0.             calculate D2E/DX2 analyticall!
 ! D2    D(6,5,1,8)            180.             calculate D2E/DX2 analyticall!
 ! D3    D(1,5,3,4)            180.             calculate D2E/DX2 analyticall!
 ! D4    D(1,5,3,9)              0.             calculate D2E/DX2 analyticall!
 ! D5    D(6,5,3,4)              0.             calculate D2E/DX2 analyticall!
 ! D6    D(6,5,3,9)            180.             calculate D2E/DX2 analyticall!
 ! D7    D(7,8,1,5)            180.             calculate D2E/DX2 analyticall!
 ! D8    D(9,8,1,5)              0.             calculate D2E/DX2 analyticall!
 ! D9    D(2,9,3,4)              0.             calculate D2E/DX2 analyticall!
 ! D10   D(2,9,3,5)            180.             calculate D2E/DX2 analyticall!
 ! D11   D(8,9,3,4)            180.             calculate D2E/DX2 analyticall!
 ! D12   D(8,9,3,5)              0.             calculate D2E/DX2 analyticall!
 ! D13   D(2,9,8,1)            180.             calculate D2E/DX2 analyticall!
 ! D14   D(2,9,8,7)              0.             calculate D2E/DX2 analyticall!
 ! D15   D(3,9,8,1)              0.             calculate D2E/DX2 analyticall!
 ! D16   D(3,9,8,7)            180.             calculate D2E/DX2 analyticall!
 -----------------------------------------------------------------------------
 Trust Radius=3.00D-01 FncErr=1.00D-07 GrdErr=1.00D-07
 Number of steps in this run=  48 maximum allowed number of steps= 100.
 GradGradGradGradGradGradGradGradGradGradGradGradGradGradGradGradGradGrad

                   Input orientation:
 ----------------------------------------------------------
 Center     Atomic              Coordinates (Angstroms)
 Number     Number             X           Y           Z
 ----------------------------------------------------------
    1          7            .503058     .000000    1.142434
    2          1            .491486     .000000   -2.077371
    3          6          -1.032310     .000000    -.552578
    4          1          -1.916268     .000000   -1.184640
    5          6           -.850139     .000000     .818881
    6          1          -1.612755     .000000    1.595971
    7          1           2.215972     .000000    -.168479
    8          6           1.136585     .000000    -.025072
    9          7            .253620     .000000   -1.087129
 ----------------------------------------------------------
                    Distance matrix (angstroms):
              1          2          3          4          5
  1  N     .000000
  2  H    3.219826    .000000
  3  C    2.287012   2.155678    .000000
  4  H    3.356845   2.567927   1.086684    .000000
  5  C    1.391340   3.191901   1.383505   2.269521    .000000
  6  H    2.163876   4.233352   2.225574   2.797127   1.088785
  7  H    2.156981   2.572493   3.270913   4.255348   3.221167
  8  C    1.328317   2.151298   2.232122   3.265656   2.158548
  9  N    2.243472   1.018411   1.392609   2.172077   2.202534
              6          7          8          9
  6  H     .000000
  7  H    4.215736    .000000
  8  C    3.191653   1.088872    .000000
  9  N    3.268390   2.166736   1.381156    .000000
                           Interatomic angles:
       N1-C3-H2= 92.848        N1-C3-H4=167.7369       H2-C3-H4= 99.4151
       N1-C5-C3=111.0135       H2-C3-C5=127.4524       N1-C5-H4=131.4658
       H2-H4-C5= 82.3248       H4-C3-C5=133.1325       N1-H6-C3= 62.7835
       H2-C3-H6=150.1367       N1-H6-H4= 84.1308       H2-H4-H6=104.1141
       H4-C3-H6=110.4482       N1-C5-H6=121.0143       C3-C5-H6=127.9723
       H4-C5-H6=107.5199       N1-H7-H2= 85.3327       C3-N1-H7= 94.7435
       C3-H2-H7= 87.0758       H4-H2-H7=111.7511       C5-N1-H7=129.1256
       H6-N1-H7=154.6714       N1-C8-H2=134.0648       N1-C8-C3= 75.184 
       C3-H2-C8= 62.4308       H4-H2-C8= 87.106        H4-C3-C8=158.1036
       C5-N1-C8=105.0386       H2-C8-C5= 95.5661       C3-C5-C8= 74.5507
       H4-C5-C8= 95.0031       H6-N1-C8=130.5843       H6-C3-C8= 91.4482
       H6-C5-C8=157.477        N1-C8-H7=126.0537       H2-C8-H7= 99.8815
       C3-C8-H7=158.7623       C5-C8-H7=164.5524       N1-N9-H2=160.1093
       N1-N9-C3= 73.8113       H2-N9-C3=126.0794       N1-N9-H4= 98.9566
       H2-N9-H4=100.9341       H4-C3-N9=121.8616       N1-C5-N9= 73.3722
       H2-N9-C5=163.4323       C5-C3-N9=105.0059       H4-N9-C5= 62.4982
       H6-N1-N9= 95.715        H6-C3-N9=127.6902       H6-H4-N9= 81.1976
       H6-C5-N9=165.6135       N1-H7-N9= 62.5133       H2-N9-H7=101.5789
       C3-N9-H7=132.3417       H4-N9-H7=157.487        C5-N9-H7= 94.9889
       N1-C8-N9=111.7751       H2-N9-C8=126.7536       C3-N9-C8=107.167 
       H4-N9-C8=132.3123       C5-C8-N9= 73.2764       H7-C8-N9=122.1712
 Stoichiometry    C3H4N2
 Framework group  CS[SG(C3H4N2)]
 Deg. of freedom   15
 Full point group                 CS      NOp   2
 Largest Abelian subgroup         CS      NOp   2
 Largest concise Abelian subgroup C1      NOp   1
                   Standard orientation:
 ----------------------------------------------------------
 Center     Atomic              Coordinates (Angstroms)
 Number     Number             X           Y           Z
 ----------------------------------------------------------
    1          7           -.749456    -.998268     .000000
    2          1           -.006670    2.134710     .000000
    3          6           1.130857     .303595     .000000
    4          1           2.135298     .718300     .000000
    5          6            .641864    -.990612     .000000
    6          1           1.207988   -1.920642     .000000
    7          1          -2.119747     .667526     .000000
    8          6          -1.101167     .282640     .000000
    9          7            .000000    1.116321     .000000
 ----------------------------------------------------------
 Rotational constants (GHZ):      9.5824517      9.1842826      4.6895716
 Isotopes: N-14,H-1,C-12,H-1,C-12,H-1,H-1,C-12,N-14
 Standard basis: 6-31G(d) (6D, 7F)
 There are    63 symmetry adapted basis functions of A'  symmetry.
 There are    20 symmetry adapted basis functions of A"  symmetry.
 Crude estimate of integral set expansion from redundant integrals=1.000.
 Integral buffers will be    262144 words long.
 Raffenetti 2 integral format.
 Two-electron integral symmetry is turned on.
    83 basis functions      156 primitive gaussians
    18 alpha electrons       18 beta electrons
       nuclear repulsion energy       161.5453092050 Hartrees.
 One-electron integrals computed using PRISM.
 The smallest eigenvalue of the overlap matrix is  1.966D-03
 Initial guess read from the checkpoint file:
 /wrk/g94-12116.chk
 Initial guess orbital symmetries:
       Occupied  (A') (A') (A') (A') (A') (A') (A') (A') (A') (A')
                 (A') (A') (A') (A") (A') (A") (A') (A")
       Virtual   (A") (A") (A') (A') (A') (A') (A') (A') (A') (A')
                 (A') (A') (A") (A') (A") (A') (A") (A') (A') (A')
                 (A") (A') (A') (A') (A") (A') (A') (A') (A') (A')
                 (A') (A') (A') (A") (A") (A") (A') (A') (A") (A")
                 (A') (A') (A') (A') (A') (A') (A") (A") (A') (A')
                 (A") (A") (A') (A") (A') (A') (A') (A') (A') (A')
                 (A') (A') (A') (A') (A')
 Requested convergence on RMS density matrix=1.00D-08 within  64 cycles.
 Requested convergence on MAX density matrix=1.00D-06.
 Keep R1 and R2 integrals in memory in canonical form, NReq=    12613112.
 SCF Done:  E(RB-LYP) =  -226.133224400     A.U. after    1 cycles
             Convg  =     .6150D-08             -V/T =  2.0099
             S**2   =    .0000
 Range of M.O.s used for correlation:     1    83
 NBasis=    83 NAE=    18 NBE=    18 NFC=     0 NFV=     0
 NROrb=     83 NOA=    18 NOB=    18 NVA=    65 NVB=    65
 G2DrvN: can do   9 atoms at a time, so will make   1 passes doing MaxLOS=2.
 FoFDir used for L=0 through L=2.
          Differentiating once with respect to electric field.
                with respect to dipole field.
          Differentiating once with respect to nuclear coordinates.
          Store integrals in memory, NReq=    12587318.
          There are  30 degrees of freedom in the 1st order CPHF.
  27 vectors were produced by pass  0.
 AX will form  27 AO Fock derivatives at one time.
  27 vectors were produced by pass  1.
  27 vectors were produced by pass  2.
  27 vectors were produced by pass  3.
  25 vectors were produced by pass  4.
   4 vectors were produced by pass  5.
   1 vectors were produced by pass  6.
 Inv2:  IOpt= 1 Iter= 1 AM= 1.32D-15 Conv= 1.00D-12.
 Inverted reduced A of dimension 138 with in-core refinement.
 Full mass-weighted force constant matrix:
 Low frequencies ---  -14.4805   -4.0962    -.0005    -.0003     .0004   12.6463
 Low frequencies ---  471.2294  622.1322  661.0804
 Harmonic frequencies (cm**-1), IR intensities (KM/Mole),
 Raman scattering activities (A**4/AMU), Raman depolarization ratios,
 reduced masses (AMU), force constants (mDyne/A) and normal coordinates:
                     1                      2                      3
                    A"                     A"                     A"
 Frequencies --   471.2291               622.1320               661.0800
 Red. masses --     1.5768                 2.6599                 3.0472
 Frc consts  --      .2063                  .6066                  .7846
 IR Inten    --    84.6778                14.4193                 2.4297
 Raman Activ --      .0000                  .0000                  .0000
 Depolar     --      .0000                  .0000                  .0000
 Atom AN      X      Y      Z        X      Y      Z        X      Y      Z
   1   7      .00    .00   -.01      .00    .00    .09      .00    .00    .27
   2   1      .00    .00    .96      .00    .00   -.72      .00    .00    .54
   3   6      .00    .00    .07      .00    .00    .27      .00    .00    .04
   4   1      .00    .00    .09      .00    .00    .29      .00    .00   -.35
   5   6      .00    .00    .00      .00    .00   -.22      .00    .00   -.13
   6   1      .00    .00   -.10      .00    .00   -.40      .00    .00   -.42
   7   1      .00    .00    .14      .00    .00    .29      .00    .00   -.48
   8   6      .00    .00    .06      .00    .00    .04      .00    .00   -.27
   9   7      .00    .00   -.19      .00    .00   -.13      .00    .00    .10
                     4                      5                      6
                    A"                     A"                     A"
 Frequencies --   677.9726               748.0830               809.1373
[...]
                      KCAL/MOL        CAL/MOL-KELVIN    CAL/MOL-KELVIN
 TOTAL                   45.549             14.184             65.686
 ELECTRONIC                .000               .000               .000
 TRANSLATIONAL             .889              2.981             38.570
 ROTATIONAL                .889              2.981             24.169
 VIBRATIONAL             43.772              8.222              2.946
 VIBRATION  1              .828              1.314               .734
                       Q            LOG10(Q)             LN(Q)
 TOTAL BOT        .341275D-19        -19.466895        -45.167711
 TOTAL V=0        .132868D+13         12.123419         27.571676
 VIB (BOT)        .362142D-31        -31.441122        -72.395858
 VIB (BOT)  1     .357577D+00          -.446631         -1.028405
 VIB (V=0)        .140991D+01           .149193           .343529
 VIB (V=0)  1     .111470D+01           .047160           .108589
 ELECTRONIC       .100000D+01           .000000           .000000
 TRANSLATIONAL    .220588D+08          7.343582         16.909224
 ROTATIONAL       .427213D+05          4.630644         10.662452
 ***** Axes restored to original set *****
 -------------------------------------------------------------------
 Center     Atomic                   Forces (Hartrees/Bohr)
 Number     Number              X              Y              Z
 -------------------------------------------------------------------
    1          7           -.000379443     .000000000     .000067089
    2          1           -.000024592     .000000000     .000094430
    3          6            .000013607     .000000000    -.000033059
    4          1            .000008455     .000000000    -.000035768
    5          6            .000379249     .000000000     .000131387
    6          1           -.000008042     .000000000     .000000641
    7          1            .000009016     .000000000     .000066412
    8          6           -.000196522     .000000000    -.000529998
    9          7            .000198272     .000000000     .000238866
 -------------------------------------------------------------------
 Cartesian Forces:  Max      .000529998 RMS      .000165794
 Internal  Forces:  Max      .000379752 RMS      .000092078

 GradGradGradGradGradGradGradGradGradGradGradGradGradGradGradGradGradGrad
 Berny optimization.
 Search for a local minimum.
 Step number   1 out of a maximum of  48
 All quantities printed in internal units (Hartrees-Bohrs-Radians)
 Second derivative matrix not updated -- analytic derivatives used.
     Eigenvalues ---     .00427    .00929    .01741    .02522    .05576
     Eigenvalues ---     .05838    .09384    .10003    .10652    .11425
     Eigenvalues ---     .21617    .22976    .31714    .35280    .35648
     Eigenvalues ---     .36027    .38097    .41716    .43687    .44878
     Eigenvalues ---     .534341000.000001000.000001000.000001000.00000
     Eigenvalues --- 1000.000001000.000001000.000001000.000001000.00000
     Eigenvalues --- 1000.000001000.000001000.000001000.000001000.00000
     Eigenvalues --- 1000.000001000.000001000.00000
 Angle between quadratic step and forces=  30.29 degrees.
 Linear search not attempted -- first point.
 Iteration  1 RMS(Cart)=   .00028236 RMS(Int)=   .00000009
 Iteration  2 RMS(Cart)=   .00000011 RMS(Int)=   .00000001
 TrRot=   .000000   .000000   .000000   .000000   .000000   .000000
 Variable       Old X    -DE/DX   Delta X   Delta X   Delta X     New X
                                 (Linear)    (Quad)   (Total)
    R1        2.05354    .00001    .00000    .00003    .00003   2.05356
    R2        2.62925   -.00035    .00000   -.00114   -.00114   2.62811
    R3        2.61445    .00005    .00000    .00029    .00029   2.61474
    R4        2.05750    .00001    .00000    .00006    .00006   2.05757
    R5        2.51016    .00015    .00000    .00060    .00060   2.51075
    R6        2.05767    .00000    .00000   -.00002   -.00002   2.05765
    R7        1.92452   -.00010    .00000   -.00020   -.00020   1.92431
    R8        2.63165   -.00006    .00000   -.00003   -.00003   2.63162
    R9        2.61001   -.00038    .00000   -.00119   -.00119   2.60882
    A1        2.32360    .00005    .00000    .00062    .00062   2.32422
    A2        1.93755   -.00001    .00000    .00014    .00014   1.93769
    A3        2.11210    .00001    .00000    .00020    .00020   2.11229
    A4        2.23354    .00000    .00000   -.00033   -.00033   2.23320
    A5        1.83327    .00000    .00000   -.00001   -.00001   1.83326
    A6        2.20005   -.00008    .00000   -.00081   -.00081   2.19925
    A7        2.12689   -.00003    .00000   -.00029   -.00029   2.12660
    A8        1.83270   -.00002    .00000   -.00033   -.00033   1.83237
    A9        2.20050   -.00001    .00000   -.00018   -.00018   2.20032
   A10        1.95084    .00002    .00000   -.00007   -.00007   1.95078
   A11        2.13229    .00006    .00000    .00087    .00087   2.13316
   A12        2.21227   -.00001    .00000   -.00009   -.00009   2.21218
   A13        1.87042    .00001    .00000    .00027    .00027   1.87068
    D1         .00000    .00000    .00000    .00000    .00000    .00000
    D2        3.14159    .00000    .00000    .00000    .00000   3.14159
    D3        3.14159    .00000    .00000    .00000    .00000   3.14159
    D4         .00000    .00000    .00000    .00000    .00000    .00000
    D5         .00000    .00000    .00000    .00000    .00000    .00000
    D6        3.14159    .00000    .00000    .00000    .00000   3.14159
    D7        3.14159    .00000    .00000    .00000    .00000   3.14159
    D8         .00000    .00000    .00000    .00000    .00000    .00000
    D9         .00000    .00000    .00000    .00000    .00000    .00000
   D10        3.14159    .00000    .00000    .00000    .00000   3.14159
   D11        3.14159    .00000    .00000    .00000    .00000   3.14159
   D12         .00000    .00000    .00000    .00000    .00000    .00000
   D13        3.14159    .00000    .00000    .00000    .00000   3.14159
   D14         .00000    .00000    .00000    .00000    .00000    .00000
   D15         .00000    .00000    .00000    .00000    .00000    .00000
   D16        3.14159    .00000    .00000    .00000    .00000   3.14159
         Item               Value     Threshold  Converged?
 Maximum Force             .000380      .000450     YES
 RMS     Force             .000092      .000300     YES
 Maximum Displacement      .000917      .001800     YES
 RMS     Displacement      .000282      .001200     YES
 Predicted change in Energy=-5.727952D-07
 Optimization completed.
    -- Stationary point found.
                         ----------------------------
                         !   Optimized Parameters   !
                         ! (Angstroms and Degrees)  !
 ------------------------                            -------------------------
 ! Name  Definition              Value          Derivative Info.             !
 -----------------------------------------------------------------------------
 ! R1    R(4,3)                  1.0867         -DE/DX =    0.               !
 ! R2    R(5,1)                  1.3913         -DE/DX =   -0.0004           !
 ! R3    R(5,3)                  1.3835         -DE/DX =    0.               !
 ! R4    R(6,5)                  1.0888         -DE/DX =    0.               !
 ! R5    R(8,1)                  1.3283         -DE/DX =    0.0002           !
 ! R6    R(8,7)                  1.0889         -DE/DX =    0.               !
 ! R7    R(9,2)                  1.0184         -DE/DX =   -0.0001           !
 ! R8    R(9,3)                  1.3926         -DE/DX =   -0.0001           !
 ! R9    R(9,8)                  1.3812         -DE/DX =   -0.0004           !
 ! A1    A(4,3,5)              133.1325         -DE/DX =    0.               !
 ! A2    A(1,5,3)              111.0135         -DE/DX =    0.               !
 ! A3    A(1,5,6)              121.0143         -DE/DX =    0.               !
 ! A4    A(3,5,6)              127.9723         -DE/DX =    0.               !
 ! A5    A(5,1,8)              105.0386         -DE/DX =    0.               !
 ! A6    A(1,8,7)              126.0537         -DE/DX =   -0.0001           !
 ! A7    A(4,3,9)              121.8616         -DE/DX =    0.               !
 ! A8    A(5,3,9)              105.0059         -DE/DX =    0.               !
 ! A9    A(2,9,3)              126.0794         -DE/DX =    0.               !
 ! A10   A(1,8,9)              111.7751         -DE/DX =    0.               !
 ! A11   A(7,8,9)              122.1712         -DE/DX =    0.0001           !
 ! A12   A(2,9,8)              126.7536         -DE/DX =    0.               !
 ! A13   A(3,9,8)              107.167          -DE/DX =    0.               !
 ! D1    D(3,5,1,8)              0.             -DE/DX =    0.               !
 ! D2    D(6,5,1,8)            180.             -DE/DX =    0.               !
 ! D3    D(1,5,3,4)            180.             -DE/DX =    0.               !
 ! D4    D(1,5,3,9)              0.             -DE/DX =    0.               !
 ! D5    D(6,5,3,4)              0.             -DE/DX =    0.               !
 ! D6    D(6,5,3,9)            180.             -DE/DX =    0.               !
 ! D7    D(7,8,1,5)            180.             -DE/DX =    0.               !
 ! D8    D(9,8,1,5)              0.             -DE/DX =    0.               !
 ! D9    D(2,9,3,4)              0.             -DE/DX =    0.               !
 ! D10   D(2,9,3,5)            180.             -DE/DX =    0.               !
 ! D11   D(8,9,3,4)            180.             -DE/DX =    0.               !
 ! D12   D(8,9,3,5)              0.             -DE/DX =    0.               !
 ! D13   D(2,9,8,1)            180.             -DE/DX =    0.               !
 ! D14   D(2,9,8,7)              0.             -DE/DX =    0.               !
 ! D15   D(3,9,8,1)              0.             -DE/DX =    0.               !
 ! D16   D(3,9,8,7)            180.             -DE/DX =    0.               !
 -----------------------------------------------------------------------------
 GradGradGradGradGradGradGradGradGradGradGradGradGradGradGradGradGradGrad


 **********************************************************************

            Population analysis using the SCF density.

 **********************************************************************

 Orbital Symmetries:
       Occupied  (A') (A') (A') (A') (A') (A') (A') (A') (A') (A')
                 (A') (A') (A') (A") (A') (A") (A') (A")
       Virtual   (A") (A") (A') (A') (A') (A') (A') (A') (A') (A')
                 (A') (A') (A") (A') (A") (A') (A") (A') (A') (A')
                 (A") (A') (A') (A') (A") (A') (A') (A') (A') (A')
                 (A') (A') (A') (A") (A") (A") (A') (A') (A") (A")
                 (A') (A') (A') (A') (A') (A') (A") (A") (A') (A')
                 (A") (A") (A') (A") (A') (A') (A') (A') (A') (A')
                 (A') (A') (A') (A') (A')
  The electronic state is 1-A'.
 Alpha  occ. eigenvalues --  -14.08183 -13.99829  -9.97025  -9.94916  -9.93023
 Alpha  occ. eigenvalues --    -.90285   -.77120   -.65337   -.54211   -.51445
 Alpha  occ. eigenvalues --    -.49101   -.37877   -.37661   -.36137   -.34593
 Alpha  occ. eigenvalues --    -.23047   -.20794   -.18550
 Alpha virt. eigenvalues --     .00573    .04366    .04470    .10502    .12206
 Alpha virt. eigenvalues --     .14173    .18547    .20694    .27576    .32071
 Alpha virt. eigenvalues --     .40388    .48842    .50175    .51048    .54913
 Alpha virt. eigenvalues --     .55867    .59200    .59435    .60697    .61870
 Alpha virt. eigenvalues --     .70954    .75574    .77190    .77553    .78922
 Alpha virt. eigenvalues --     .80924    .85620    .86812    .94255    .97393
 Alpha virt. eigenvalues --    1.11798   1.18549   1.25261   1.28364   1.31627
 Alpha virt. eigenvalues --    1.33774   1.40382   1.46596   1.49458   1.50928
 Alpha virt. eigenvalues --    1.69181   1.79916   1.90286   1.94577   1.98921
 Alpha virt. eigenvalues --    2.01969   2.13509   2.17296   2.18867   2.21208
 Alpha virt. eigenvalues --    2.25393   2.33271   2.48357   2.50374   2.53495
 Alpha virt. eigenvalues --    2.60932   2.65154   2.84847   2.89237   2.96045
 Alpha virt. eigenvalues --    3.77037   3.88819   4.02588   4.14160   4.28114
          Condensed to atoms (all electrons):
              1          2          3          4          5          6
  1  N    6.650909    .005999   -.049556    .005094    .434156   -.046253
  2  H     .005999    .442615   -.031054   -.000427    .007851   -.000100
  3  C    -.049556   -.031054   4.960637    .349473    .542687   -.065789
  4  H     .005094   -.000427    .349473    .600535   -.034731   -.000153
  5  C     .434156    .007851    .542687   -.034731   4.838115    .375584
  6  H    -.046253   -.000100   -.065789   -.000153    .375584    .615508
  7  H    -.041104    .000592    .004955   -.000119    .006789   -.000210
  8  C     .509461   -.022889   -.105435    .005972   -.097575    .008370
  9  N    -.073199    .289577    .358003   -.049030   -.058682    .004417
              7          8          9
  1  N    -.041104    .509461   -.073199
  2  H     .000592   -.022889    .289577
  3  C     .004955   -.105435    .358003
  4  H    -.000119    .005972   -.049030
  5  C     .006789   -.097575   -.058682
  6  H    -.000210    .008370    .004417
  7  H     .590323    .370592   -.061272
  8  C     .370592   4.780430    .351507
  9  N    -.061272    .351507   6.733928
 Total atomic charges:
              1
  1  N    -.395506
  2  H     .307837
  3  C     .036078
  4  H     .123387
  5  C    -.014193
  6  H     .108626
  7  H     .129454
  8  C     .199567
  9  N    -.495250
 Sum of Mulliken charges=    .00000
 Atomic charges with hydrogens summed into heavy atoms:
              1
  1  N    -.395506
  2  H     .000000
  3  C     .159465
  4  H     .000000
  5  C     .094433
  6  H     .000000
  7  H     .000000
  8  C     .329021
  9  N    -.187413
 Sum of Mulliken charges=    .00000
 Electronic spatial extent (au):  <R**2>=   288.9604
 Charge=      .0000 electrons
 Dipole moment (Debye):
    X=     1.0865    Y=     3.4545    Z=      .0000  Tot=     3.6214
 Quadrupole moment (Debye-Ang):
   XX=   -26.4366   YY=   -25.2411   ZZ=   -31.0646
   XY=    -2.9900   XZ=      .0000   YZ=      .0000
 Octapole moment (Debye-Ang**2):
  XXX=      .0083  YYY=    15.7213  ZZZ=      .0000  XYY=     4.9994
  XXY=     5.7599  XXZ=      .0000  XZZ=     -.9102  YZZ=      .9189
  YYZ=      .0000  XYZ=      .0000
 Hexadecapole moment (Debye-Ang**3):
 XXXX=  -160.7676 YYYY=  -141.5078 ZZZZ=   -29.8390 XXXY=    -2.1750
 XXXZ=      .0000 YYYX=    -7.7749 YYYZ=      .0000 ZZZX=      .0000
 ZZZY=      .0000 XXYY=   -58.0167 XXZZ=   -37.8912 YYZZ=   -35.3053
 XXYZ=      .0000 YYXZ=      .0000 ZZXY=      .6676
 N-N= 1.615453092050D+02 E-N=-8.488580718337D+02  KE= 2.239079810783D+02
 Symmetry A'   KE= 2.157003716352D+02
 Symmetry A"   KE= 8.207609443016D+00
  Exact polarizability:  49.556  -1.385  47.743    .000    .000  17.600
 Approx polarizability:  96.235   2.934 100.615    .000    .000  29.004
 1\1\GINC-SNAKE\Freq\RBLYP\6-31G(d)\C3H4N2\RDJ3\20-Jan-1999\0\\#N GEOM=
 ALLCHECK GUESS=READ RBLYP/6-31G(D) FREQ\\1H imidazole C3H4N2 casno=288
 324\\0,1\N,0.5030581235,0.,1.1424338371\H,0.4914864183,0.,-2.077371167
 5\C,-1.032310193,0.,-0.5525783081\H,-1.9162675778,0.,-1.1846401106\C,-
 0.850138641,0.,0.8188807001\H,-1.6127547216,0.,1.5959708433\H,2.215972
 1717,0.,-0.1684793154\C,1.136585153,0.,-0.0250719331\N,0.2536198473,0.
 ,-1.0871285518\\Version=IBM-RS6000-G94RevE.2\State=1-A'\HF=-226.133224
 4\RMSD=6.150e-09\RMSF=1.658e-04\Dipole=-0.1075076,0.,-1.420676\DipoleD
 eriv=-0.3603574,0.,-0.0191274,0.,-0.2821176,0.,-0.0329172,0.,-0.573296
 4,0.1703196,0.,0.0007213,0.,0.3227212,0.,0.0023036,0.,0.114814,0.02995
 55,0.,-0.2103429,0.,-0.1096377,0.,-0.0207127,0.,0.1920194,0.0002962,0.
 ,-0.0472492,0.,0.1580986,0.,-0.0813805,0.,0.0166013,0.1845547,0.,-0.07
 69881,0.,-0.0938149,0.,-0.0633592,0.,0.1439565,-0.0216675,0.,0.0728305
 ,0.,0.122064,0.,0.0846167,0.,0.0120982,-0.0497473,0.,0.0328048,0.,0.13
 48776,0.,0.039946,0.,0.054882,0.142434,0.,0.10908,0.,-0.0019742,0.,0.0
 101457,0.,0.5196162,-0.0957879,0.,0.1382711,0.,-0.2502169,0.,0.0613576
 ,0.,-0.4806912\Polar=50.0752674,0.,17.6002543,-0.841053,0.,47.2235363\
 PG=CS [SG(C3H4N2)]\NImag=0\\0.44988021,0.,0.09626704,-0.05522086,0.,0.
 52336342,-0.00321222,0.,-0.00759304,0.07624600,0.,0.00693820,0.,0.,0.0
 0989743,-0.00265417,0.,-0.00490624,-0.08903383,0.,0.41998600,-0.032311
 25,0.,-0.01263103,0.00710499,0.,-0.00324368,0.69181332,0.,0.01470612,0
 .,0.,-0.00791646,0.,0.,0.09329239,-0.08008805,0.,-0.01927782,0.0267632
 8,0.,-0.00075399,0.15314617,0.,0.69037737,0.00099478,0.,0.00109203,0.0
 0005482,0.,0.00019444,-0.24127949,0.,-0.13320837,0.25616531,0.,0.00695
 884,0.,0.,-0.00099248,0.,0.,-0.01634465,0.,0.,0.01605938,-0.00398965,0
 .,-0.00530755,-0.00086053,0.,0.00012493,-0.14345109,0.,-0.15786824,0.1
 4716062,0.,0.15202792,-0.22924597,0.,-0.03041994,-0.00837052,0.,-0.002
 19368,-0.09302189,0.,-0.01699461,0.00458659,0.,-0.02111645,0.60736603,
 0.,-0.06374822,0.,0.,0.00208125,0.,0.,-0.05558297,0.,0.,-0.00318384,0.
 ,0.,0.11742300,-0.04443306,0.,-0.10214927,0.00351334,0.,-0.00038178,-0
 .03198153,0.,-0.36110719,0.00092921,0.,0.00220071,-0.15043650,0.,0.745
 41040,-0.01998164,0.,0.01950507,0.00089804,0.,0.00001508,0.00826909,0.
 ,-0.00488257,-0.00019219,0.,0.00062755,-0.18234175,0.,0.13942002,0.199
 26730,0.,-0.00574212,0.,0.,0.00199548,0.,0.,-0.00171853,0.,0.,-0.00161
 579,0.,0.,-0.02455832,0.,0.,0.02079791,-0.00576962,0.,0.01200459,0.001
 28593,0.,0.00025540,0.01962831,0.,-0.00834777,-0.00041365,0.,-0.000212
 63,0.14153059,0.,-0.20765339,-0.15143115,0.,0.20825533,-0.00839226,0.,
 0.00474667,-0.00059098,0.,-0.00053578,0.00073115,0.,-0.00293815,-0.000
 28040,0.,0.00041727,0.00077608,0.,0.00224830,-0.00029852,0.,-0.0002398
 3,0.35153344,0.,-0.00627784,0.,0.,-0.00102220,0.,0.,0.00221179,0.,0.,0
 .00191190,0.,0.,0.00644393,0.,0.,0.00126592,0.,0.,0.01783680,0.0280015
 5,0.,0.00030714,0.00048306,0.,0.00019193,-0.00088158,0.,-0.00562632,-0
 .00103942,0.,0.00106003,0.00267837,0.,-0.00436494,0.00139117,0.,0.0007
 0109,-0.03759909,0.,0.05921134,-0.15279628,0.,0.10364236,0.01742219,0.
 ,0.01411843,-0.08582345,0.,0.00441979,-0.00302741,0.,0.00386589,-0.084
 98377,0.,0.01490299,-0.00578596,0.,-0.00322971,-0.33053726,0.,0.035145
 94,0.83402399,0.,-0.06823563,0.,0.,-0.00946717,0.,0.,0.01556667,0.,0.,
 0.00230652,0.,0.,0.00912219,0.,0.,0.00507515,0.,0.,-0.01894016,0.,0.,0
 .11438815,0.13230844,0.,-0.30656650,-0.01517878,0.,-0.00999035,-0.0441
 9310,0.,-0.00738036,0.00335597,0.,-0.00573862,0.06699723,0.,-0.0051482
 5,-0.00184281,0.,0.00017137,0.03036181,0.,-0.05838492,-0.08265315,0.,0
 .58336015,-0.00493536,0.,-0.02312126,-0.08955231,0.,0.08333318,-0.2554
 8246,0.,0.05378252,-0.01702202,0.,0.01734637,-0.01476480,0.,0.06583724
 ,0.00016562,0.,-0.00136086,-0.01294125,0.,-0.02818000,-0.18849204,0.,-
 0.08915561,0.58302462,0.,0.01913362,0.,0.,-0.00151404,0.,0.,-0.0442143
 7,0.,0.,-0.00509986,0.,0.,0.01200297,0.,0.,0.00450029,0.,0.,-0.0034301
 5,0.,0.,-0.04981572,0.,0.,0.06843727,0.03184542,0.,-0.09746776,0.08062
 058,0.,-0.40452591,0.06360753,0.,-0.13001568,-0.01807084,0.,0.01371345
 ,0.00995499,0.,-0.06680630,-0.00280236,0.,-0.00517399,0.00353881,0.,0.
 00690465,-0.09021254,0.,-0.19032253,-0.07848159,0.,0.87369406\\0.00037
 944,0.,-0.00006709,0.00002459,0.,-0.00009443,-0.00001361,0.,0.00003306
 ,-0.00000846,0.,0.00003577,-0.00037925,0.,-0.00013139,0.00000804,0.,-0
 .00000064,-0.00000902,0.,-0.00006641,0.00019652,0.,0.00053000,-0.00019
 827,0.,-0.00023887\\\@


 HE THAT FOLLOWS NATURE IS NEVER LOST.

                             -- BACON
 Job cpu time:  0 days  1 hours  5 minutes 55.6 seconds.
 File lengths (MBytes):  RWF=   14 Int=    0 D2E=    0 Chk=    2 Scr=    1
 Normal termination of Gaussian 94
