Running on 64-bit system
 Entering Gaussian System, Link 0=/usr/local/gaussian03-rev-C02-64/g03/g03
 Initial command:
 /usr/local/gaussian03-rev-C02-64/g03/l1.exe /scratch/Gau-12272.inp -scrdir=/scratch/
 Entering Link 1 = /usr/local/gaussian03-rev-C02-64/g03/l1.exe PID=     12274.
  
 Copyright (c) 1988,1990,1992,1993,1995,1998,2003,2004, Gaussian, Inc.
                  All Rights Reserved.
  
 This is the Gaussian(R) 03 program.  It is based on the
 the Gaussian(R) 98 system (copyright 1998, Gaussian, Inc.),
 the Gaussian(R) 94 system (copyright 1995, Gaussian, Inc.),
 the Gaussian 92(TM) system (copyright 1992, Gaussian, Inc.),
 the Gaussian 90(TM) system (copyright 1990, Gaussian, Inc.),
 the Gaussian 88(TM) system (copyright 1988, Gaussian, Inc.),
 the Gaussian 86(TM) system (copyright 1986, Carnegie Mellon
 University), and the Gaussian 82(TM) system (copyright 1983,
 Carnegie Mellon University). Gaussian is a federally registered
 trademark of Gaussian, Inc.
  
 This software contains proprietary and confidential information,
 including trade secrets, belonging to Gaussian, Inc.
  
 This software is provided under written license and may be
 used, copied, transmitted, or stored only in accord with that
 written license.
  
 The following legend is applicable only to US Government
 contracts under FAR:
  
                    RESTRICTED RIGHTS LEGEND
  
 Use, reproduction and disclosure by the US Government is
 subject to restrictions as set forth in subparagraphs (a)
 and (c) of the Commercial Computer Software - Restricted
 Rights clause in FAR 52.227-19.
  
 Gaussian, Inc.
 340 Quinnipiac St., Bldg. 40, Wallingford CT 06492
  
  
 ---------------------------------------------------------------
 Warning -- This program may not be used in any manner that
 competes with the business of Gaussian, Inc. or will provide
 assistance to any competitor of Gaussian, Inc.  The licensee
 of this program is prohibited from giving any competitor of
 Gaussian, Inc. access to this program.  By using this program,
 the user acknowledges that Gaussian, Inc. is engaged in the
 business of creating and licensing software in the field of
 computational chemistry and represents and warrants to the
 licensee that it is not a competitor of Gaussian, Inc. and that
 it will not use this program in any manner prohibited above.
 ---------------------------------------------------------------
  

 Cite this work as:
 Gaussian 03, Revision C.02,
 M. J. Frisch, G. W. Trucks, H. B. Schlegel, G. E. Scuseria, 
 M. A. Robb, J. R. Cheeseman, J. A. Montgomery, Jr., T. Vreven, 
 K. N. Kudin, J. C. Burant, J. M. Millam, S. S. Iyengar, J. Tomasi, 
 V. Barone, B. Mennucci, M. Cossi, G. Scalmani, N. Rega, 
 G. A. Petersson, H. Nakatsuji, M. Hada, M. Ehara, K. Toyota, 
 R. Fukuda, J. Hasegawa, M. Ishida, T. Nakajima, Y. Honda, O. Kitao, 
 H. Nakai, M. Klene, X. Li, J. E. Knox, H. P. Hratchian, J. B. Cross, 
 C. Adamo, J. Jaramillo, R. Gomperts, R. E. Stratmann, O. Yazyev, 
 A. J. Austin, R. Cammi, C. Pomelli, J. W. Ochterski, P. Y. Ayala, 
 K. Morokuma, G. A. Voth, P. Salvador, J. J. Dannenberg, 
 V. G. Zakrzewski, S. Dapprich, A. D. Daniels, M. C. Strain, 
 O. Farkas, D. K. Malick, A. D. Rabuck, K. Raghavachari, 
 J. B. Foresman, J. V. Ortiz, Q. Cui, A. G. Baboul, S. Clifford, 
 J. Cioslowski, B. B. Stefanov, G. Liu, A. Liashenko, P. Piskorz, 
 I. Komaromi, R. L. Martin, D. J. Fox, T. Keith, M. A. Al-Laham, 
 C. Y. Peng, A. Nanayakkara, M. Challacombe, P. M. W. Gill, 
 B. Johnson, W. Chen, M. W. Wong, C. Gonzalez, and J. A. Pople, 
 Gaussian, Inc., Wallingford CT, 2004.
 
 ******************************************
 Gaussian 03:  IA32L-G03RevC.02 12-Jun-2004
                 7-Jan-2005 
 ******************************************
 %mem=24000000
 --------------------------
 #BLYP/6-311G(d,p) opt freq
 --------------------------
 1/14=-1,18=20,26=3,38=1/1,3;
 2/9=110,17=6,18=5,40=1/2;
 3/5=4,6=6,7=101,11=2,16=1,25=1,30=1,74=402/1,2,3;
 4//1;
 5/5=2,38=5/2;
 6/7=2,8=2,9=2,10=2,28=1/1;
 7//1,2,3,16;
 1/14=-1,18=20/3(1);
 99//99;
 2/9=110/2;
 3/5=4,6=6,7=101,11=2,16=1,25=1,30=1,74=402/1,2,3;
 4/5=5,16=3/1;
 5/5=2,38=5/2;
 7//1,2,3,16;
 1/14=-1,18=20/3(-5);
 2/9=110/2;
 6/7=2,8=2,9=2,10=2,19=2,28=1/1;
 99/9=1/99;
 ---------------------------------------------------
 1H imidazole C3H4N2 casno=288324 method=13 basis=21
 ---------------------------------------------------
 Symbolic Z-matrix:
 Charge =  0 Multiplicity = 1
 N                     0.30938   0.        1.30938 
 H                     0.3125    0.       -1.6875 
 C                    -1.06875   0.       -0.28438 
 H                    -1.91875   0.       -0.79063 
 C                    -0.93438   0.        1.02812 
 H                    -1.675     0.        1.6875 
 H                     1.91875   0.        0.09063 
 C                     0.93438   0.        0.19063 
 N                     0.09688   0.       -0.775 
 

 GradGradGradGradGradGradGradGradGradGradGradGradGradGradGradGradGradGrad
 Berny optimization.
 Initialization pass.
                           ----------------------------
                           !    Initial Parameters    !
                           ! (Angstroms and Degrees)  !
 --------------------------                            --------------------------
 ! Name  Definition              Value          Derivative Info.                !
 --------------------------------------------------------------------------------
 ! R1    R(1,5)                  1.2752         estimate D2E/DX2                !
 ! R2    R(1,8)                  1.2815         estimate D2E/DX2                !
 ! R3    R(2,9)                  0.9376         estimate D2E/DX2                !
 ! R4    R(3,4)                  0.9893         estimate D2E/DX2                !
 ! R5    R(3,5)                  1.3194         estimate D2E/DX2                !
 ! R6    R(3,9)                  1.2647         estimate D2E/DX2                !
 ! R7    R(5,6)                  0.9916         estimate D2E/DX2                !
 ! R8    R(7,8)                  0.9894         estimate D2E/DX2                !
 ! R9    R(8,9)                  1.2782         estimate D2E/DX2                !
 ! A1    A(5,1,8)              106.4483         estimate D2E/DX2                !
 ! A2    A(4,3,5)              126.6232         estimate D2E/DX2                !
 ! A3    A(4,3,9)              126.3957         estimate D2E/DX2                !
 ! A4    A(5,3,9)              106.9812         estimate D2E/DX2                !
 ! A5    A(1,5,3)              108.5877         estimate D2E/DX2                !
 ! A6    A(1,5,6)              125.5794         estimate D2E/DX2                !
 ! A7    A(3,5,6)              125.8329         estimate D2E/DX2                !
 ! A8    A(1,8,7)              124.9909         estimate D2E/DX2                !
 ! A9    A(1,8,9)              109.8741         estimate D2E/DX2                !
 ! A10   A(7,8,9)              125.1349         estimate D2E/DX2                !
 ! A11   A(2,9,3)              126.122          estimate D2E/DX2                !
 ! A12   A(2,9,8)              125.7693         estimate D2E/DX2                !
 ! A13   A(3,9,8)              108.1088         estimate D2E/DX2                !
 ! D1    D(8,1,5,3)              0.0            estimate D2E/DX2                !
 ! D2    D(8,1,5,6)            180.0            estimate D2E/DX2                !
 ! D3    D(5,1,8,7)            180.0            estimate D2E/DX2                !
 ! D4    D(5,1,8,9)              0.0            estimate D2E/DX2                !
 ! D5    D(4,3,5,1)            180.0            estimate D2E/DX2                !
 ! D6    D(4,3,5,6)              0.0            estimate D2E/DX2                !
 ! D7    D(9,3,5,1)              0.0            estimate D2E/DX2                !
 ! D8    D(9,3,5,6)            180.0            estimate D2E/DX2                !
 ! D9    D(4,3,9,2)              0.0            estimate D2E/DX2                !
 ! D10   D(4,3,9,8)            180.0            estimate D2E/DX2                !
 ! D11   D(5,3,9,2)            180.0            estimate D2E/DX2                !
 ! D12   D(5,3,9,8)              0.0            estimate D2E/DX2                !
 ! D13   D(1,8,9,2)            180.0            estimate D2E/DX2                !
 ! D14   D(1,8,9,3)              0.0            estimate D2E/DX2                !
 ! D15   D(7,8,9,2)              0.0            estimate D2E/DX2                !
 ! D16   D(7,8,9,3)            180.0            estimate D2E/DX2                !
 --------------------------------------------------------------------------------
 Trust Radius=3.00D-01 FncErr=1.00D-07 GrdErr=1.00D-06
 Number of steps in this run=  48 maximum allowed number of steps= 100.
 GradGradGradGradGradGradGradGradGradGradGradGradGradGradGradGradGradGrad

                          Input orientation:                          
 ---------------------------------------------------------------------
 Center     Atomic     Atomic              Coordinates (Angstroms)
 Number     Number      Type              X           Y           Z
 ---------------------------------------------------------------------
    1          7             0        0.309375    0.000000    1.309375
    2          1             0        0.312500    0.000000   -1.687500
    3          6             0       -1.068750    0.000000   -0.284375
    4          1             0       -1.918750    0.000000   -0.790625
    5          6             0       -0.934375    0.000000    1.028125
    6          1             0       -1.675000    0.000000    1.687500
    7          1             0        1.918750    0.000000    0.090625
    8          6             0        0.934375    0.000000    0.190625
    9          7             0        0.096875    0.000000   -0.775000
 ---------------------------------------------------------------------
                    Distance matrix (angstroms):
                    1          2          3          4          5
     1  N    0.000000
     2  H    2.996877   0.000000
     3  C    2.106957   1.968911   0.000000
     4  H    3.061787   2.404758   0.989338   0.000000
     5  C    1.275153   2.988196   1.319361   2.068054   0.000000
     6  H    2.020080   3.916731   2.062966   2.490084   0.991615
     7  H    2.018772   2.396199   3.010944   3.937386   3.003203
     8  C    1.281494   1.978404   2.058673   3.017147   2.047836
     9  N    2.095179   0.937630   1.264672   2.015686   2.077194
                    6          7          8          9
     6  H    0.000000
     7  H    3.932563   0.000000
     8  C    3.008234   0.989441   0.000000
     9  N    3.033718   2.017061   1.278217   0.000000
 Stoichiometry    C3H4N2
 Framework group  CS[SG(C3H4N2)]
 Deg. of freedom    15
 Full point group                 CS      NOp   2
 Largest Abelian subgroup         CS      NOp   2
 Largest concise Abelian subgroup C1      NOp   1
                         Standard orientation:                         
 ---------------------------------------------------------------------
 Center     Atomic     Atomic              Coordinates (Angstroms)
 Number     Number      Type              X           Y           Z
 ---------------------------------------------------------------------
    1          7             0       -0.674969   -0.941702    0.000000
    2          1             0       -0.005288    1.979393    0.000000
    3          6             0        1.025744    0.302019    0.000000
    4          1             0        1.967693    0.604544    0.000000
    5          6             0        0.600174   -0.946822    0.000000
    6          1             0        1.173884   -1.755622    0.000000
    7          1             0       -1.969692    0.607211    0.000000
    8          6             0       -1.032886    0.288794    0.000000
    9          7             0        0.000000    1.041778    0.000000
 ---------------------------------------------------------------------
 Rotational constants (GHZ):     11.1543378     10.4769589      5.4025212
 Standard basis: 6-311G(d,p) (5D, 7F)
 There are    85 symmetry adapted basis functions of A'  symmetry.
 There are    29 symmetry adapted basis functions of A"  symmetry.
 Integral buffers will be    262144 words long.
 Raffenetti 2 integral format.
 Two-electron integral symmetry is turned on.
   114 basis functions,   192 primitive gaussians,   119 cartesian basis functions
    18 alpha electrons       18 beta electrons
       nuclear repulsion energy       173.5664703841 Hartrees.
 NAtoms=    9 NActive=    9 NUniq=    9 SFac= 1.00D+00 NAtFMM=   60 Big=F
 One-electron integrals computed using PRISM.
 NBasis=   114 RedAO= T  NBF=    85    29
 NBsUse=   114 1.00D-06 NBFU=    85    29
 Harris functional with IExCor=  402 diagonalized for initial guess.
 ExpMin= 1.03D-01 ExpMax= 6.29D+03 ExpMxC= 9.49D+02 IAcc=1 IRadAn=         1 AccDes= 1.00D-06
 HarFok:  IExCor= 402 AccDes= 1.00D-06 IRadAn=         1 IDoV=1
 ScaDFX=  1.000000  1.000000  1.000000  1.000000
 Initial guess orbital symmetries:
       Occupied  (A') (A') (A') (A') (A') (A') (A') (A') (A') (A')
                 (A') (A') (A') (A") (A') (A") (A') (A")
       Virtual   (A") (A") (A') (A') (A') (A') (A') (A') (A') (A')
                 (A') (A") (A') (A') (A") (A') (A") (A') (A') (A')
                 (A') (A') (A') (A") (A') (A') (A") (A') (A') (A')
                 (A") (A') (A') (A') (A") (A') (A") (A") (A') (A')
                 (A") (A') (A') (A') (A') (A") (A') (A") (A') (A')
                 (A") (A') (A") (A') (A') (A") (A') (A') (A") (A')
                 (A") (A') (A') (A') (A") (A') (A") (A") (A') (A')
                 (A") (A') (A') (A') (A") (A') (A') (A') (A') (A')
                 (A') (A') (A') (A") (A") (A') (A') (A') (A') (A')
                 (A') (A') (A') (A') (A') (A')
 The electronic state of the initial guess is 1-A'.
 Requested convergence on RMS density matrix=1.00D-08 within 128 cycles.
 Requested convergence on MAX density matrix=1.00D-06.
 Requested convergence on             energy=1.00D-06.
 No special actions if energy rises.
 Integral accuracy reduced to 1.0D-05 until final iterations.
 Initial convergence to 1.0D-05 achieved.  Increase integral accuracy.
 SCF Done:  E(RB-LYP) =  -226.126879267     A.U. after   16 cycles
             Convg  =    0.3833D-08             -V/T =  1.9942
             S**2   =   0.0000

 **********************************************************************

            Population analysis using the SCF density.

 **********************************************************************

 Orbital symmetries:
       Occupied  (A') (A') (A') (A') (A') (A') (A') (A') (A') (A')
                 (A') (A") (A') (A') (A') (A") (A') (A")
       Virtual   (A') (A") (A") (A') (A') (A') (A') (A') (A') (A')
                 (A') (A") (A') (A') (A") (A') (A") (A') (A') (A')
                 (A') (A') (A") (A') (A') (A') (A") (A') (A') (A')
                 (A') (A') (A") (A') (A') (A") (A") (A") (A') (A')
                 (A") (A') (A') (A') (A') (A") (A') (A") (A') (A')
                 (A") (A') (A") (A') (A') (A") (A') (A') (A") (A')
                 (A') (A') (A") (A') (A") (A') (A") (A") (A') (A')
                 (A") (A') (A') (A') (A") (A') (A') (A') (A') (A')
                 (A') (A') (A") (A') (A") (A') (A') (A') (A') (A')
                 (A') (A') (A') (A') (A') (A')
 The electronic state is 1-A'.
 Alpha  occ. eigenvalues --  -14.04562 -13.94667  -9.91893  -9.89318  -9.87544
 Alpha  occ. eigenvalues --   -0.97855  -0.81365  -0.68517  -0.58205  -0.54706
 Alpha  occ. eigenvalues --   -0.52675  -0.41196  -0.41011  -0.38756  -0.36825
 Alpha  occ. eigenvalues --   -0.25487  -0.19925  -0.19304
 Alpha virt. eigenvalues --    0.01787   0.02252   0.06239   0.07083   0.08312
 Alpha virt. eigenvalues --    0.10509   0.18588   0.20870   0.24635   0.26556
 Alpha virt. eigenvalues --    0.33499   0.35615   0.36179   0.38578   0.40848
 Alpha virt. eigenvalues --    0.41600   0.45380   0.48161   0.52356   0.57022
 Alpha virt. eigenvalues --    0.58350   0.61032   0.61637   0.63863   0.66425
 Alpha virt. eigenvalues --    0.68288   0.70110   0.74823   0.75505   0.78357
 Alpha virt. eigenvalues --    0.90255   0.92200   0.93127   0.98540   1.11055
 Alpha virt. eigenvalues --    1.11775   1.14614   1.17147   1.20708   1.22579
 Alpha virt. eigenvalues --    1.29725   1.47296   1.51550   1.53849   1.58219
 Alpha virt. eigenvalues --    1.59340   1.63941   1.69364   1.70277   1.75155
 Alpha virt. eigenvalues --    1.80592   1.89115   1.90393   1.91042   1.99445
 Alpha virt. eigenvalues --    2.01591   2.09194   2.18578   2.21874   2.26360
 Alpha virt. eigenvalues --    2.40466   2.43078   2.43883   2.50723   2.51938
 Alpha virt. eigenvalues --    2.53886   2.61002   2.65730   2.66655   2.71999
 Alpha virt. eigenvalues --    2.76582   2.77278   2.80979   2.87522   2.87987
 Alpha virt. eigenvalues --    2.90876   3.08688   3.24460   3.29257   3.45413
 Alpha virt. eigenvalues --    3.57968   3.62500   3.70261   3.70756   3.78569
 Alpha virt. eigenvalues --    3.94247   4.17748   4.35553   4.81824   5.00237
 Alpha virt. eigenvalues --    5.27580  23.71737  23.86894  24.16487  35.29291
 Alpha virt. eigenvalues --   35.53537
          Condensed to atoms (all electrons):
              1          2          3          4          5          6
     1  N    6.325567   0.012018  -0.149233   0.011496   0.579187  -0.026372
     2  H    0.012018   0.502983  -0.042003  -0.002820   0.011707  -0.000402
     3  C   -0.149233  -0.042003   5.015916   0.388766   0.577591  -0.060406
     4  H    0.011496  -0.002820   0.388766   0.583949  -0.029224   0.000527
     5  C    0.579187   0.011707   0.577591  -0.029224   4.759111   0.434577
     6  H   -0.026372  -0.000402  -0.060406   0.000527   0.434577   0.564145
     7  H   -0.023965  -0.004418   0.009190  -0.000696   0.007352  -0.000695
     8  C    0.611824  -0.036036  -0.158913   0.009988  -0.203642   0.011388
     9  N   -0.102279   0.353733   0.441538  -0.037457  -0.079455   0.004477
              7          8          9
     1  N   -0.023965   0.611824  -0.102279
     2  H   -0.004418  -0.036036   0.353733
     3  C    0.009190  -0.158913   0.441538
     4  H   -0.000696   0.009988  -0.037457
     5  C    0.007352  -0.203642  -0.079455
     6  H   -0.000695   0.011388   0.004477
     7  H    0.551984   0.423937  -0.042118
     8  C    0.423937   4.798109   0.454927
     9  N   -0.042118   0.454927   6.210057
 Mulliken atomic charges:
              1
     1  N   -0.238245
     2  H    0.205238
     3  C   -0.022446
     4  H    0.075470
     5  C   -0.057204
     6  H    0.072761
     7  H    0.079429
     8  C    0.088418
     9  N   -0.203421
 Sum of Mulliken charges=   0.00000
 Atomic charges with hydrogens summed into heavy atoms:
              1
     1  N   -0.238245
     2  H    0.000000
     3  C    0.053024
     4  H    0.000000
     5  C    0.015557
     6  H    0.000000
     7  H    0.000000
     8  C    0.167847
     9  N    0.001817
 Sum of Mulliken charges=   0.00000
 Electronic spatial extent (au):  <R**2>=   259.0418
 Charge=     0.0000 electrons
 Dipole moment (field-independent basis, Debye):
    X=     1.0680    Y=     3.5747    Z=     0.0000  Tot=     3.7309
 Quadrupole moment (field-independent basis, Debye-Ang):
   XX=   -27.2468   YY=   -25.8173   ZZ=   -30.4133
   XY=    -3.0122   XZ=     0.0000   YZ=     0.0000
 Traceless Quadrupole moment (field-independent basis, Debye-Ang):
   XX=     0.5790   YY=     2.0085   ZZ=    -2.5875
   XY=    -3.0122   XZ=     0.0000   YZ=     0.0000
 Octapole moment (field-independent basis, Debye-Ang**2):
  XXX=     0.1247  YYY=    14.9822  ZZZ=     0.0000  XYY=     4.3735
  XXY=     4.6555  XXZ=     0.0000  XZZ=    -0.7757  YZZ=     1.2454
  YYZ=     0.0000  XYZ=     0.0000
 Hexadecapole moment (field-independent basis, Debye-Ang**3):
 XXXX=  -143.9124 YYYY=  -131.8711 ZZZZ=   -30.5852 XXXY=    -2.4511
 XXXZ=     0.0000 YYYX=    -6.2831 YYYZ=     0.0000 ZZZX=     0.0000
 ZZZY=     0.0000 XXYY=   -52.5073 XXZZ=   -34.3280 YYZZ=   -31.9285
 XXYZ=     0.0000 YYXZ=     0.0000 ZZXY=     0.8162
 N-N= 1.735664703841D+02 E-N=-8.757905652773D+02  KE= 2.274569292087D+02
 Symmetry A'   KE= 2.190046843197D+02
 Symmetry A"   KE= 8.452244888943D+00
 Calling FoFCou, ICntrl=  2527 FMM=F ISym2X=1 I1Cent= 0 ISCF1= 0.
 ***** Axes restored to original set *****
 -------------------------------------------------------------------
 Center     Atomic                   Forces (Hartrees/Bohr)
 Number     Number              X              Y              Z
 -------------------------------------------------------------------
    1          7           0.082926868    0.000000000    0.096751987
    2          1           0.019250180    0.000000000   -0.084032878
    3          6          -0.087198687    0.000000000    0.011883577
    4          1          -0.068720165    0.000000000   -0.050546986
    5          6          -0.036050137    0.000000000   -0.005265067
    6          1          -0.059696278    0.000000000    0.059197653
    7          1           0.084501334    0.000000000   -0.011106895
    8          6           0.032390932    0.000000000    0.042143550
    9          7           0.032595952    0.000000000   -0.059024941
 -------------------------------------------------------------------
 Cartesian Forces:  Max     0.096751987 RMS     0.047812545

 GradGradGradGradGradGradGradGradGradGradGradGradGradGradGradGradGradGrad
 Berny optimization.
 Internal  Forces:  Max     0.139354375 RMS     0.049555080
 Search for a local minimum.
 Step number   1 out of a maximum of  48
 All quantities printed in internal units (Hartrees-Bohrs-Radians)
 Second derivative matrix not updated -- first step.
     Eigenvalues ---    0.03211   0.03261   0.03288   0.03318   0.03352
     Eigenvalues ---    0.03407   0.16000   0.16000   0.16000   0.16000
     Eigenvalues ---    0.22000   0.22917   0.49193   0.49594   0.49613
     Eigenvalues ---    0.54578   0.60577   0.63413   0.68379   0.73836
     Eigenvalues ---    0.765081000.000001000.000001000.000001000.00000
     Eigenvalues --- 1000.000001000.000001000.000001000.000001000.00000
     Eigenvalues --- 1000.000001000.000001000.000001000.000001000.00000
     Eigenvalues --- 1000.000001000.000001000.00000
 RFO step:  Lambda=-1.21448704D-01.
 Linear search not attempted -- first point.
 Maximum step size (   0.300) exceeded in Quadratic search.
    -- Step size scaled by   0.742
 Iteration  1 RMS(Cart)=  0.06613902 RMS(Int)=  0.00037881
 Iteration  2 RMS(Cart)=  0.00043276 RMS(Int)=  0.00009061
 Iteration  3 RMS(Cart)=  0.00000021 RMS(Int)=  0.00009061
 Variable       Old X    -DE/DX   Delta X   Delta X   Delta X     New X
                                 (Linear)    (Quad)   (Total)
    R1        2.40969   0.12559   0.00000   0.10511   0.10504   2.51473
    R2        2.42167   0.07359   0.00000   0.06294   0.06277   2.48444
    R3        1.77186   0.08621   0.00000   0.08800   0.08800   1.85986
    R4        1.86958   0.08491   0.00000   0.10206   0.10206   1.97164
    R5        2.49323   0.08986   0.00000   0.08991   0.09003   2.58326
    R6        2.38988   0.13935   0.00000   0.11704   0.11718   2.50706
    R7        1.87388   0.08395   0.00000   0.10160   0.10160   1.97548
    R8        1.86977   0.08519   0.00000   0.10243   0.10243   1.97221
    R9        2.41548   0.12257   0.00000   0.10751   0.10748   2.52296
    A1        1.85787   0.00471   0.00000  -0.00136  -0.00165   1.85622
    A2        2.20999   0.01495   0.00000   0.03292   0.03279   2.24279
    A3        2.20602  -0.00049   0.00000  -0.00779  -0.00792   2.19810
    A4        1.86717  -0.01446   0.00000  -0.02513  -0.02487   1.84230
    A5        1.89521   0.01034   0.00000   0.01814   0.01820   1.91341
    A6        2.19177  -0.00941   0.00000  -0.02026  -0.02029   2.17149
    A7        2.19620  -0.00093   0.00000   0.00211   0.00208   2.19828
    A8        2.18150   0.00212   0.00000   0.00544   0.00552   2.18702
    A9        1.91767   0.00046   0.00000   0.00153   0.00138   1.91904
   A10        2.18402  -0.00258   0.00000  -0.00697  -0.00690   2.17712
   A11        2.20124  -0.00001   0.00000  -0.00481  -0.00487   2.19638
   A12        2.19509   0.00105   0.00000  -0.00202  -0.00208   2.19301
   A13        1.88685  -0.00105   0.00000   0.00682   0.00694   1.89380
    D1        0.00000   0.00000   0.00000   0.00000   0.00000   0.00000
    D2        3.14159   0.00000   0.00000   0.00000   0.00000   3.14159
    D3       -3.14159   0.00000   0.00000   0.00000   0.00000   3.14159
    D4        0.00000   0.00000   0.00000   0.00000   0.00000   0.00000
    D5        3.14159   0.00000   0.00000   0.00000   0.00000  -3.14159
    D6        0.00000   0.00000   0.00000   0.00000   0.00000   0.00000
    D7        0.00000   0.00000   0.00000   0.00000   0.00000   0.00000
    D8        3.14159   0.00000   0.00000   0.00000   0.00000   3.14159
    D9        0.00000   0.00000   0.00000   0.00000   0.00000   0.00000
   D10        3.14159   0.00000   0.00000   0.00000   0.00000   3.14159
   D11        3.14159   0.00000   0.00000   0.00000   0.00000   3.14159
   D12        0.00000   0.00000   0.00000   0.00000   0.00000   0.00000
   D13        3.14159   0.00000   0.00000   0.00000   0.00000   3.14159
   D14        0.00000   0.00000   0.00000   0.00000   0.00000   0.00000
   D15        0.00000   0.00000   0.00000   0.00000   0.00000   0.00000
   D16       -3.14159   0.00000   0.00000   0.00000   0.00000   3.14159
         Item               Value     Threshold  Converged?
 Maximum Force            0.139354     0.000450     NO 
 RMS     Force            0.049555     0.000300     NO 
 Maximum Displacement     0.188890     0.001800     NO 
 RMS     Displacement     0.066090     0.001200     NO 
 Predicted change in Energy=-6.215480D-02
 GradGradGradGradGradGradGradGradGradGradGradGradGradGradGradGradGradGrad

                          Input orientation:                          
 ---------------------------------------------------------------------
 Center     Atomic     Atomic              Coordinates (Angstroms)
 Number     Number      Type              X           Y           Z
 ---------------------------------------------------------------------
    1          7             0        0.339305    0.000000    1.353980
    2          1             0        0.338002    0.000000   -1.760596
    3          6             0       -1.119235    0.000000   -0.299653
    4          1             0       -2.006629    0.000000   -0.848379
    5          6             0       -0.958058    0.000000    1.057816
    6          1             0       -1.726030    0.000000    1.767066
    7          1             0        2.018706    0.000000    0.095688
    8          6             0        0.980957    0.000000    0.206484
    9          7             0        0.107982    0.000000   -0.803655
 ---------------------------------------------------------------------
                    Distance matrix (angstroms):
                    1          2          3          4          5
     1  N    0.000000
     2  H    3.114576   0.000000
     3  C    2.204958   2.063467   0.000000
     4  H    3.217731   2.515837   1.043345   0.000000
     5  C    1.330738   3.102131   1.367004   2.175564   0.000000
     6  H    2.106240   4.087130   2.153956   2.630454   1.045379
     7  H    2.098497   2.504108   3.162748   4.134560   3.128389
     8  C    1.314711   2.069491   2.160320   3.168345   2.117675
     9  N    2.170000   0.984198   1.326681   2.115084   2.145115
                    6          7          8          9
     6  H    0.000000
     7  H    4.100800   0.000000
     8  C    3.124612   1.043647   0.000000
     9  N    3.157880   2.111797   1.335090   0.000000
 Stoichiometry    C3H4N2
 Framework group  CS[SG(C3H4N2)]
 Deg. of freedom    15
 Full point group                 CS      NOp   2
 Largest Abelian subgroup         CS      NOp   2
 Largest concise Abelian subgroup C1      NOp   1
                         Standard orientation:                         
 ---------------------------------------------------------------------
 Center     Atomic     Atomic              Coordinates (Angstroms)
 Number     Number      Type              X           Y           Z
 ---------------------------------------------------------------------
    1          7             0       -0.709603   -0.972491    0.000000
    2          1             0       -0.009413    2.062360    0.000000
    3          6             0        1.082819    0.311667    0.000000
    4          1             0        2.070717    0.647265    0.000000
    5          6             0        0.621132   -0.975013    0.000000
    6          1             0        1.210360   -1.838510    0.000000
    7          1             0       -2.063809    0.630574    0.000000
    8          6             0       -1.077390    0.289729    0.000000
    9          7             0        0.000000    1.078207    0.000000
 ---------------------------------------------------------------------
 Rotational constants (GHZ):     10.1799055      9.7769114      4.9871698
 Standard basis: 6-311G(d,p) (5D, 7F)
 There are    85 symmetry adapted basis functions of A'  symmetry.
 There are    29 symmetry adapted basis functions of A"  symmetry.
 Integral buffers will be    262144 words long.
 Raffenetti 2 integral format.
 Two-electron integral symmetry is turned on.
   114 basis functions,   192 primitive gaussians,   119 cartesian basis functions
    18 alpha electrons       18 beta electrons
       nuclear repulsion energy       166.6521183315 Hartrees.
 NAtoms=    9 NActive=    9 NUniq=    9 SFac= 1.00D+00 NAtFMM=   60 Big=F
 One-electron integrals computed using PRISM.
 NBasis=   114 RedAO= T  NBF=    85    29
 NBsUse=   114 1.00D-06 NBFU=    85    29
 Initial guess read from the read-write file:
 Initial guess orbital symmetries:
       Occupied  (A') (A') (A') (A') (A') (A') (A') (A') (A') (A')
                 (A') (A") (A') (A') (A') (A") (A') (A")
       Virtual   (A') (A") (A") (A') (A') (A') (A') (A') (A') (A')
                 (A') (A") (A') (A') (A") (A') (A") (A') (A') (A')
                 (A') (A') (A") (A') (A') (A') (A") (A') (A') (A')
                 (A') (A') (A") (A') (A') (A") (A") (A") (A') (A')
                 (A") (A') (A') (A') (A') (A") (A') (A") (A') (A')
                 (A") (A') (A") (A') (A') (A") (A') (A') (A") (A')
                 (A') (A') (A") (A') (A") (A') (A") (A") (A') (A')
                 (A") (A') (A') (A') (A") (A') (A') (A') (A') (A')
                 (A') (A') (A") (A') (A") (A') (A') (A') (A') (A')
                 (A') (A') (A') (A') (A') (A')
 Harris functional with IExCor=  402 diagonalized for initial guess.
 ExpMin= 1.03D-01 ExpMax= 6.29D+03 ExpMxC= 9.49D+02 IAcc=1 IRadAn=         1 AccDes= 1.00D-06
 HarFok:  IExCor= 402 AccDes= 1.00D-06 IRadAn=         1 IDoV=1
 ScaDFX=  1.000000  1.000000  1.000000  1.000000
 Requested convergence on RMS density matrix=1.00D-08 within 128 cycles.
 Requested convergence on MAX density matrix=1.00D-06.
 Requested convergence on             energy=1.00D-06.
 No special actions if energy rises.
 Integral accuracy reduced to 1.0D-05 until final iterations.
 Initial convergence to 1.0D-05 achieved.  Increase integral accuracy.
 SCF Done:  E(RB-LYP) =  -226.186888267     A.U. after   13 cycles
             Convg  =    0.9356D-08             -V/T =  1.9993
             S**2   =   0.0000
 Calling FoFCou, ICntrl=  2527 FMM=F ISym2X=1 I1Cent= 0 ISCF1= 0.
 ***** Axes restored to original set *****
 -------------------------------------------------------------------
 Center     Atomic                   Forces (Hartrees/Bohr)
 Number     Number              X              Y              Z
 -------------------------------------------------------------------
    1          7           0.036103179    0.000000000    0.036597073
    2          1           0.006398962    0.000000000   -0.029445714
    3          6          -0.036276694    0.000000000    0.017722518
    4          1          -0.022752610    0.000000000   -0.021638641
    5          6          -0.015657298    0.000000000   -0.013228174
    6          1          -0.019981364    0.000000000    0.023555017
    7          1           0.030582101    0.000000000   -0.005645805
    8          6           0.003683415    0.000000000    0.022280466
    9          7           0.017900308    0.000000000   -0.030196742
 -------------------------------------------------------------------
 Cartesian Forces:  Max     0.036597073 RMS     0.019484467

 GradGradGradGradGradGradGradGradGradGradGradGradGradGradGradGradGradGrad
 Berny optimization.
 Internal  Forces:  Max     0.053847127 RMS     0.018085632
 Search for a local minimum.
 Step number   2 out of a maximum of  48
 All quantities printed in internal units (Hartrees-Bohrs-Radians)
 Update second derivatives using D2CorX and points  1  2
 Trust test= 9.65D-01 RLast= 3.00D-01 DXMaxT set to 4.24D-01
     Eigenvalues ---    0.03210   0.03262   0.03288   0.03314   0.03351
     Eigenvalues ---    0.03406   0.15925   0.16000   0.16000   0.16000
     Eigenvalues ---    0.22110   0.22832   0.49299   0.49603   0.50755
     Eigenvalues ---    0.55574   0.61000   0.63951   0.70281   0.72473
     Eigenvalues ---    0.752781000.000001000.000001000.000001000.00000
     Eigenvalues --- 1000.000001000.000001000.000001000.000001000.00000
     Eigenvalues --- 1000.000001000.000001000.000001000.000001000.00000
     Eigenvalues --- 1000.000001000.000001000.00000
 RFO step:  Lambda=-2.13731921D-03.
 Quartic linear search produced a step of  0.75798.
 Iteration  1 RMS(Cart)=  0.05191594 RMS(Int)=  0.00093906
 Iteration  2 RMS(Cart)=  0.00111260 RMS(Int)=  0.00010251
 Iteration  3 RMS(Cart)=  0.00000149 RMS(Int)=  0.00010251
 Iteration  4 RMS(Cart)=  0.00000000 RMS(Int)=  0.00010251
 Variable       Old X    -DE/DX   Delta X   Delta X   Delta X     New X
                                 (Linear)    (Quad)   (Total)
    R1        2.51473   0.04798   0.07962   0.00335   0.08284   2.59757
    R2        2.48444   0.02275   0.04758  -0.01067   0.03676   2.52120
    R3        1.85986   0.03013   0.06670  -0.00180   0.06490   1.92477
    R4        1.97164   0.03073   0.07736   0.00523   0.08258   2.05422
    R5        2.58326   0.02716   0.06824  -0.01421   0.05410   2.63737
    R6        2.50706   0.05385   0.08882   0.00594   0.09494   2.60200
    R7        1.97548   0.03066   0.07701   0.00635   0.08336   2.05884
    R8        1.97221   0.03101   0.07764   0.00587   0.08351   2.05572
    R9        2.52296   0.04448   0.08146  -0.00065   0.08084   2.60379
    A1        1.85622  -0.00122  -0.00125  -0.02659  -0.02820   1.82802
    A2        2.24279   0.00853   0.02486   0.04726   0.07199   2.31477
    A3        2.19810  -0.00416  -0.00601  -0.04876  -0.05490   2.14320
    A4        1.84230  -0.00437  -0.01885   0.00150  -0.01709   1.82521
    A5        1.91341   0.00560   0.01380   0.01705   0.03082   1.94423
    A6        2.17149  -0.00650  -0.01538  -0.03730  -0.05266   2.11883
    A7        2.19828   0.00091   0.00158   0.02025   0.02184   2.22012
    A8        2.18702   0.00044   0.00418   0.00443   0.00866   2.19568
    A9        1.91904   0.00380   0.00104   0.02918   0.03013   1.94918
   A10        2.17712  -0.00424  -0.00523  -0.03361  -0.03879   2.13833
   A11        2.19638   0.00129  -0.00369   0.00530   0.00150   2.19788
   A12        2.19301   0.00252  -0.00158   0.01584   0.01415   2.20716
   A13        1.89380  -0.00381   0.00526  -0.02114  -0.01565   1.87814
    D1        0.00000   0.00000   0.00000   0.00000   0.00000   0.00000
    D2       -3.14159   0.00000   0.00000   0.00000   0.00000  -3.14159
    D3        3.14159   0.00000   0.00000   0.00000   0.00000   3.14159
    D4        0.00000   0.00000   0.00000   0.00000   0.00000   0.00000
    D5        3.14159   0.00000   0.00000   0.00000   0.00000   3.14159
    D6        0.00000   0.00000   0.00000   0.00000   0.00000   0.00000
    D7        0.00000   0.00000   0.00000   0.00000   0.00000   0.00000
    D8        3.14159   0.00000   0.00000   0.00000   0.00000   3.14159
    D9        0.00000   0.00000   0.00000   0.00000   0.00000   0.00000
   D10        3.14159   0.00000   0.00000   0.00000   0.00000   3.14159
   D11        3.14159   0.00000   0.00000   0.00000   0.00000   3.14159
   D12        0.00000   0.00000   0.00000   0.00000   0.00000   0.00000
   D13        3.14159   0.00000   0.00000   0.00000   0.00000   3.14159
   D14        0.00000   0.00000   0.00000   0.00000   0.00000   0.00000
   D15        0.00000   0.00000   0.00000   0.00000   0.00000   0.00000
   D16        3.14159   0.00000   0.00000   0.00000   0.00000   3.14159
         Item               Value     Threshold  Converged?
 Maximum Force            0.053847     0.000450     NO 
 RMS     Force            0.018086     0.000300     NO 
 Maximum Displacement     0.151340     0.001800     NO 
 RMS     Displacement     0.051777     0.001200     NO 
 Predicted change in Energy=-8.948644D-03
 GradGradGradGradGradGradGradGradGradGradGradGradGradGradGradGradGradGrad

                          Input orientation:                          
 ---------------------------------------------------------------------
 Center     Atomic     Atomic              Coordinates (Angstroms)
 Number     Number      Type              X           Y           Z
 ---------------------------------------------------------------------
    1          7             0        0.362795    0.000000    1.402746
    2          1             0        0.353680    0.000000   -1.817494
    3          6             0       -1.160318    0.000000   -0.305205
    4          1             0       -2.051802    0.000000   -0.927240
    5          6             0       -0.972813    0.000000    1.077776
    6          1             0       -1.744210    0.000000    1.847151
    7          1             0        2.076416    0.000000    0.089362
    8          6             0        0.997615    0.000000    0.229293
    9          7             0        0.113638    0.000000   -0.827640
 ---------------------------------------------------------------------
                    Distance matrix (angstroms):
                    1          2          3          4          5
     1  N    0.000000
     2  H    3.220253   0.000000
     3  C    2.288442   2.139908   0.000000
     4  H    3.355459   2.564935   1.087046   0.000000
     5  C    1.374574   3.184677   1.395634   2.276907   0.000000
     6  H    2.153362   4.222649   2.230150   2.791390   1.089492
     7  H    2.159045   2.569809   3.260695   4.251548   3.205426
     8  C    1.334162   2.145691   2.223143   3.261366   2.145346
     9  N    2.244260   1.018543   1.376919   2.167729   2.193396
                    6          7          8          9
     6  H    0.000000
     7  H    4.205592   0.000000
     8  C    3.183563   1.087838   0.000000
     9  N    3.256703   2.166423   1.377869   0.000000
 Stoichiometry    C3H4N2
 Framework group  CS[SG(C3H4N2)]
 Deg. of freedom    15
 Full point group                 CS      NOp   2
 Largest Abelian subgroup         CS      NOp   2
 Largest concise Abelian subgroup C1      NOp   1
                         Standard orientation:                         
 ---------------------------------------------------------------------
 Center     Atomic     Atomic              Coordinates (Angstroms)
 Number     Number      Type              X           Y           Z
 ---------------------------------------------------------------------
    1          7             0       -0.740664   -1.006474    0.000000
    2          1             0       -0.013064    2.130503    0.000000
    3          6             0        1.125221    0.318456    0.000000
    4          1             0        2.133048    0.725833    0.000000
    5          6             0        0.633783   -0.987791    0.000000
    6          1             0        1.214007   -1.909926    0.000000
    7          1             0       -2.117930    0.656238    0.000000
    8          6             0       -1.097572    0.279063    0.000000
    9          7             0        0.000000    1.112044    0.000000
 ---------------------------------------------------------------------
 Rotational constants (GHZ):      9.7131172      9.1501227      4.7116092
 Standard basis: 6-311G(d,p) (5D, 7F)
 There are    85 symmetry adapted basis functions of A'  symmetry.
 There are    29 symmetry adapted basis functions of A"  symmetry.
 Integral buffers will be    262144 words long.
 Raffenetti 2 integral format.
 Two-electron integral symmetry is turned on.
   114 basis functions,   192 primitive gaussians,   119 cartesian basis functions
    18 alpha electrons       18 beta electrons
       nuclear repulsion energy       161.9250762995 Hartrees.
 NAtoms=    9 NActive=    9 NUniq=    9 SFac= 1.00D+00 NAtFMM=   60 Big=F
 One-electron integrals computed using PRISM.
 NBasis=   114 RedAO= T  NBF=    85    29
 NBsUse=   114 1.00D-06 NBFU=    85    29
 Initial guess read from the read-write file:
 Initial guess orbital symmetries:
       Occupied  (A') (A') (A') (A') (A') (A') (A') (A') (A') (A')
                 (A') (A') (A") (A') (A') (A") (A') (A")
       Virtual   (A") (A') (A") (A') (A') (A') (A') (A') (A') (A')
                 (A') (A') (A') (A") (A') (A") (A') (A") (A') (A')
                 (A') (A') (A') (A") (A') (A') (A") (A') (A') (A')
                 (A') (A') (A") (A') (A') (A") (A") (A") (A') (A')
                 (A") (A') (A') (A') (A") (A') (A') (A') (A") (A')
                 (A") (A') (A") (A') (A') (A") (A') (A') (A") (A')
                 (A') (A") (A') (A") (A') (A') (A") (A') (A") (A')
                 (A') (A') (A") (A') (A') (A") (A') (A') (A') (A')
                 (A') (A') (A') (A") (A") (A') (A') (A') (A') (A')
                 (A') (A') (A') (A') (A') (A')
 Harris functional with IExCor=  402 diagonalized for initial guess.
 ExpMin= 1.03D-01 ExpMax= 6.29D+03 ExpMxC= 9.49D+02 IAcc=1 IRadAn=         1 AccDes= 1.00D-06
 HarFok:  IExCor= 402 AccDes= 1.00D-06 IRadAn=         1 IDoV=1
 ScaDFX=  1.000000  1.000000  1.000000  1.000000
 Requested convergence on RMS density matrix=1.00D-08 within 128 cycles.
 Requested convergence on MAX density matrix=1.00D-06.
 Requested convergence on             energy=1.00D-06.
 No special actions if energy rises.
 Integral accuracy reduced to 1.0D-05 until final iterations.
 Initial convergence to 1.0D-05 achieved.  Increase integral accuracy.
 SCF Done:  E(RB-LYP) =  -226.199499777     A.U. after   13 cycles
             Convg  =    0.7866D-08             -V/T =  2.0025
             S**2   =   0.0000
 Calling FoFCou, ICntrl=  2527 FMM=F ISym2X=1 I1Cent= 0 ISCF1= 0.
 ***** Axes restored to original set *****
 -------------------------------------------------------------------
 Center     Atomic                   Forces (Hartrees/Bohr)
 Number     Number              X              Y              Z
 -------------------------------------------------------------------
    1          7           0.007406919    0.000000000   -0.007349380
    2          1          -0.000374438    0.000000000    0.002516355
    3          6          -0.007858872    0.000000000    0.012029332
    4          1           0.002373643    0.000000000    0.001223010
    5          6          -0.013199757    0.000000000   -0.005778244
    6          1           0.001730561    0.000000000   -0.001660221
    7          1          -0.001796857    0.000000000   -0.000123690
    8          6           0.003712403    0.000000000    0.005000463
    9          7           0.008006399    0.000000000   -0.005857624
 -------------------------------------------------------------------
 Cartesian Forces:  Max     0.013199757 RMS     0.005028667

 GradGradGradGradGradGradGradGradGradGradGradGradGradGradGradGradGradGrad
 Berny optimization.
 Internal  Forces:  Max     0.009708329 RMS     0.002942098
 Search for a local minimum.
 Step number   3 out of a maximum of  48
 All quantities printed in internal units (Hartrees-Bohrs-Radians)
 Update second derivatives using D2CorX and points  1  2  3
 Trust test= 1.41D+00 RLast= 2.61D-01 DXMaxT set to 6.00D-01
     Eigenvalues ---    0.03205   0.03260   0.03287   0.03304   0.03349
     Eigenvalues ---    0.03404   0.15469   0.16000   0.16000   0.16002
     Eigenvalues ---    0.22117   0.23313   0.44318   0.49332   0.49613
     Eigenvalues ---    0.55914   0.58629   0.63563   0.65666   0.72394
     Eigenvalues ---    0.746941000.000001000.000001000.000001000.00000
     Eigenvalues --- 1000.000001000.000001000.000001000.000001000.00000
     Eigenvalues --- 1000.000001000.000001000.000001000.000001000.00000
     Eigenvalues --- 1000.000001000.000001000.00000
 RFO step:  Lambda=-5.93223197D-04.
 Quartic linear search produced a step of -0.00827.
 Iteration  1 RMS(Cart)=  0.00608816 RMS(Int)=  0.00002281
 Iteration  2 RMS(Cart)=  0.00002188 RMS(Int)=  0.00000477
 Iteration  3 RMS(Cart)=  0.00000000 RMS(Int)=  0.00000477
 Variable       Old X    -DE/DX   Delta X   Delta X   Delta X     New X
                                 (Linear)    (Quad)   (Total)
    R1        2.59757   0.00771  -0.00069   0.01230   0.01162   2.60919
    R2        2.52120  -0.00483  -0.00030  -0.00566  -0.00596   2.51524
    R3        1.92477  -0.00253  -0.00054  -0.00228  -0.00281   1.92196
    R4        2.05422  -0.00265  -0.00068  -0.00299  -0.00367   2.05055
    R5        2.63737  -0.00917  -0.00045  -0.01294  -0.01338   2.62399
    R6        2.60200   0.00971  -0.00079   0.01531   0.01452   2.61651
    R7        2.05884  -0.00240  -0.00069  -0.00252  -0.00321   2.05563
    R8        2.05572  -0.00177  -0.00069  -0.00121  -0.00190   2.05381
    R9        2.60379  -0.00016  -0.00067   0.00226   0.00158   2.60538
    A1        1.82802   0.00457   0.00023   0.01612   0.01636   1.84438
    A2        2.31477  -0.00012  -0.00060   0.00070   0.00011   2.31488
    A3        2.14320  -0.00084   0.00045  -0.00627  -0.00581   2.13739
    A4        1.82521   0.00096   0.00014   0.00556   0.00570   1.83091
    A5        1.94423  -0.00271  -0.00025  -0.01177  -0.01201   1.93222
    A6        2.11883   0.00131   0.00044   0.00484   0.00527   2.12410
    A7        2.22012   0.00141  -0.00018   0.00693   0.00674   2.22687
    A8        2.19568   0.00175  -0.00007   0.00848   0.00841   2.20409
    A9        1.94918  -0.00276  -0.00025  -0.01151  -0.01176   1.93741
   A10        2.13833   0.00101   0.00032   0.00303   0.00335   2.14168
   A11        2.19788   0.00024  -0.00001   0.00043   0.00042   2.19830
   A12        2.20716  -0.00019  -0.00012  -0.00202  -0.00213   2.20503
   A13        1.87814  -0.00005   0.00013   0.00159   0.00171   1.87985
    D1        0.00000   0.00000   0.00000   0.00000   0.00000   0.00000
    D2        3.14159   0.00000   0.00000   0.00000   0.00000   3.14159
    D3        3.14159   0.00000   0.00000   0.00000   0.00000   3.14159
    D4        0.00000   0.00000   0.00000   0.00000   0.00000   0.00000
    D5        3.14159   0.00000   0.00000   0.00000   0.00000   3.14159
    D6        0.00000   0.00000   0.00000   0.00000   0.00000   0.00000
    D7        0.00000   0.00000   0.00000   0.00000   0.00000   0.00000
    D8        3.14159   0.00000   0.00000   0.00000   0.00000   3.14159
    D9        0.00000   0.00000   0.00000   0.00000   0.00000   0.00000
   D10        3.14159   0.00000   0.00000   0.00000   0.00000   3.14159
   D11        3.14159   0.00000   0.00000   0.00000   0.00000   3.14159
   D12        0.00000   0.00000   0.00000   0.00000   0.00000   0.00000
   D13        3.14159   0.00000   0.00000   0.00000   0.00000   3.14159
   D14        0.00000   0.00000   0.00000   0.00000   0.00000   0.00000
   D15        0.00000   0.00000   0.00000   0.00000   0.00000   0.00000
   D16        3.14159   0.00000   0.00000   0.00000   0.00000   3.14159
         Item               Value     Threshold  Converged?
 Maximum Force            0.009708     0.000450     NO 
 RMS     Force            0.002942     0.000300     NO 
 Maximum Displacement     0.018357     0.001800     NO 
 RMS     Displacement     0.006085     0.001200     NO 
 Predicted change in Energy=-2.977276D-04
 GradGradGradGradGradGradGradGradGradGradGradGradGradGradGradGradGradGrad

                          Input orientation:                          
 ---------------------------------------------------------------------
 Center     Atomic     Atomic              Coordinates (Angstroms)
 Number     Number      Type              X           Y           Z
 ---------------------------------------------------------------------
    1          7             0        0.362090    0.000000    1.393032
    2          1             0        0.354938    0.000000   -1.815580
    3          6             0       -1.163399    0.000000   -0.299079
    4          1             0       -2.050835    0.000000   -0.923503
    5          6             0       -0.982117    0.000000    1.077591
    6          1             0       -1.750071    0.000000    1.848006
    7          1             0        2.082742    0.000000    0.087534
    8          6             0        1.004971    0.000000    0.227577
    9          7             0        0.116679    0.000000   -0.826827
 ---------------------------------------------------------------------
                    Distance matrix (angstroms):
                    1          2          3          4          5
     1  N    0.000000
     2  H    3.208620   0.000000
     3  C    2.278235   2.145955   0.000000
     4  H    3.344928   2.565842   1.085103   0.000000
     5  C    1.380723   3.187187   1.388555   2.268598   0.000000
     6  H    2.160608   4.225273   2.225794   2.787781   1.087792
     7  H    2.159854   2.570438   3.269083   4.255427   3.220804
     8  C    1.331008   2.144070   2.231411   3.265415   2.161260
     9  N    2.233383   1.017055   1.384600   2.169669   2.198673
                    6          7          8          9
     6  H    0.000000
     7  H    4.217786   0.000000
     8  C    3.196256   1.086831   0.000000
     9  N    3.261823   2.168285   1.378706   0.000000
 Stoichiometry    C3H4N2
 Framework group  CS[SG(C3H4N2)]
 Deg. of freedom    15
 Full point group                 CS      NOp   2
 Largest Abelian subgroup         CS      NOp   2
 Largest concise Abelian subgroup C1      NOp   1
                         Standard orientation:                         
 ---------------------------------------------------------------------
 Center     Atomic     Atomic              Coordinates (Angstroms)
 Number     Number      Type              X           Y           Z
 ---------------------------------------------------------------------
    1          7             0       -0.741582   -0.995539    0.000000
    2          1             0       -0.008234    2.128152    0.000000
    3          6             0        1.127370    0.307294    0.000000
    4          1             0        2.133127    0.714605    0.000000
    5          6             0        0.639138   -0.992596    0.000000
    6          1             0        1.212744   -1.916862    0.000000
    7          1             0       -2.122018    0.665595    0.000000
    8          6             0       -1.103931    0.285197    0.000000
    9          7             0        0.000000    1.111131    0.000000
 ---------------------------------------------------------------------
 Rotational constants (GHZ):      9.5995861      9.2376831      4.7075791
 Standard basis: 6-311G(d,p) (5D, 7F)
 There are    85 symmetry adapted basis functions of A'  symmetry.
 There are    29 symmetry adapted basis functions of A"  symmetry.
 Integral buffers will be    262144 words long.
 Raffenetti 2 integral format.
 Two-electron integral symmetry is turned on.
   114 basis functions,   192 primitive gaussians,   119 cartesian basis functions
    18 alpha electrons       18 beta electrons
       nuclear repulsion energy       161.8465869839 Hartrees.
 NAtoms=    9 NActive=    9 NUniq=    9 SFac= 1.00D+00 NAtFMM=   60 Big=F
 One-electron integrals computed using PRISM.
 NBasis=   114 RedAO= T  NBF=    85    29
 NBsUse=   114 1.00D-06 NBFU=    85    29
 Initial guess read from the read-write file:
 Initial guess orbital symmetries:
       Occupied  (A') (A') (A') (A') (A') (A') (A') (A') (A') (A')
                 (A') (A') (A') (A") (A') (A") (A') (A")
       Virtual   (A") (A') (A") (A') (A') (A') (A') (A') (A') (A')
                 (A') (A') (A') (A') (A") (A") (A') (A') (A") (A')
                 (A') (A') (A') (A") (A') (A') (A') (A") (A') (A')
                 (A') (A') (A") (A') (A") (A') (A") (A") (A') (A")
                 (A') (A') (A') (A') (A") (A') (A') (A') (A") (A')
                 (A") (A') (A") (A') (A') (A") (A') (A') (A") (A')
                 (A') (A") (A') (A") (A') (A") (A') (A') (A') (A')
                 (A") (A') (A') (A") (A') (A") (A') (A') (A') (A')
                 (A') (A') (A') (A") (A') (A") (A') (A') (A') (A')
                 (A') (A') (A') (A') (A') (A')
 Requested convergence on RMS density matrix=1.00D-08 within 128 cycles.
 Requested convergence on MAX density matrix=1.00D-06.
 Requested convergence on             energy=1.00D-06.
 No special actions if energy rises.
 SCF Done:  E(RB-LYP) =  -226.199838267     A.U. after   10 cycles
             Convg  =    0.7462D-08             -V/T =  2.0025
             S**2   =   0.0000
 Calling FoFCou, ICntrl=  2527 FMM=F ISym2X=1 I1Cent= 0 ISCF1= 0.
 ***** Axes restored to original set *****
 -------------------------------------------------------------------
 Center     Atomic                   Forces (Hartrees/Bohr)
 Number     Number              X              Y              Z
 -------------------------------------------------------------------
    1          7           0.006276525    0.000000000   -0.000349683
    2          1          -0.000672154    0.000000000    0.001030713
    3          6          -0.003383316    0.000000000    0.005588463
    4          1           0.001279201    0.000000000    0.000245580
    5          6          -0.004221162    0.000000000   -0.005342723
    6          1           0.001546416    0.000000000   -0.000811115
    7          1          -0.001262003    0.000000000    0.000149840
    8          6          -0.003603830    0.000000000    0.004151662
    9          7           0.004040322    0.000000000   -0.004662738
 -------------------------------------------------------------------
 Cartesian Forces:  Max     0.006276525 RMS     0.002753598

 GradGradGradGradGradGradGradGradGradGradGradGradGradGradGradGradGradGrad
 Berny optimization.
 Internal  Forces:  Max     0.003980616 RMS     0.001360599
 Search for a local minimum.
 Step number   4 out of a maximum of  48
 All quantities printed in internal units (Hartrees-Bohrs-Radians)
 Update second derivatives using D2CorX and points  1  2  3  4
 Trust test= 1.14D+00 RLast= 3.71D-02 DXMaxT set to 6.00D-01
     Eigenvalues ---    0.03205   0.03261   0.03287   0.03303   0.03350
     Eigenvalues ---    0.03404   0.14773   0.15999   0.16000   0.16057
     Eigenvalues ---    0.21335   0.33260   0.40350   0.46357   0.49432
     Eigenvalues ---    0.49676   0.56710   0.59840   0.64575   0.67841
     Eigenvalues ---    0.769381000.000001000.000001000.000001000.00000
     Eigenvalues --- 1000.000001000.000001000.000001000.000001000.00000
     Eigenvalues --- 1000.000001000.000001000.000001000.000001000.00000
     Eigenvalues --- 1000.000001000.000001000.00000
 RFO step:  Lambda=-1.87693707D-04.
 Quartic linear search produced a step of  0.16413.
 Iteration  1 RMS(Cart)=  0.00270683 RMS(Int)=  0.00000664
 Iteration  2 RMS(Cart)=  0.00000762 RMS(Int)=  0.00000298
 Iteration  3 RMS(Cart)=  0.00000000 RMS(Int)=  0.00000298
 Variable       Old X    -DE/DX   Delta X   Delta X   Delta X     New X
                                 (Linear)    (Quad)   (Total)
    R1        2.60919   0.00325   0.00191   0.00779   0.00969   2.61888
    R2        2.51524  -0.00382  -0.00098  -0.00663  -0.00761   2.50763
    R3        1.92196  -0.00116  -0.00046  -0.00167  -0.00214   1.91982
    R4        2.05055  -0.00119  -0.00060  -0.00214  -0.00274   2.04781
    R5        2.62399  -0.00398  -0.00220  -0.00842  -0.01062   2.61337
    R6        2.61651   0.00248   0.00238   0.00747   0.00985   2.62636
    R7        2.05563  -0.00167  -0.00053  -0.00323  -0.00375   2.05188
    R8        2.05381  -0.00127  -0.00031  -0.00205  -0.00237   2.05145
    R9        2.60538   0.00048   0.00026   0.00222   0.00249   2.60786
    A1        1.84438  -0.00148   0.00269  -0.00645  -0.00376   1.84062
    A2        2.31488   0.00060   0.00002   0.00428   0.00430   2.31918
    A3        2.13739  -0.00050  -0.00095  -0.00544  -0.00639   2.13100
    A4        1.83091  -0.00009   0.00094   0.00116   0.00210   1.83301
    A5        1.93222   0.00111  -0.00197   0.00389   0.00191   1.93413
    A6        2.12410  -0.00109   0.00086  -0.00620  -0.00533   2.11877
    A7        2.22687  -0.00002   0.00111   0.00231   0.00342   2.23029
    A8        2.20409  -0.00102   0.00138  -0.00362  -0.00225   2.20184
    A9        1.93741   0.00207  -0.00193   0.00851   0.00658   1.94399
   A10        2.14168  -0.00105   0.00055  -0.00488  -0.00434   2.13735
   A11        2.19830   0.00041   0.00007   0.00084   0.00091   2.19921
   A12        2.20503   0.00120  -0.00035   0.00627   0.00592   2.21095
   A13        1.87985  -0.00160   0.00028  -0.00711  -0.00683   1.87302
    D1        0.00000   0.00000   0.00000   0.00000   0.00000   0.00000
    D2        3.14159   0.00000   0.00000   0.00000   0.00000   3.14159
    D3        3.14159   0.00000   0.00000   0.00000   0.00000  -3.14159
    D4        0.00000   0.00000   0.00000   0.00000   0.00000   0.00000
    D5        3.14159   0.00000   0.00000   0.00000   0.00000   3.14159
    D6        0.00000   0.00000   0.00000   0.00000   0.00000   0.00000
    D7        0.00000   0.00000   0.00000   0.00000   0.00000   0.00000
    D8        3.14159   0.00000   0.00000   0.00000   0.00000   3.14159
    D9        0.00000   0.00000   0.00000   0.00000   0.00000   0.00000
   D10        3.14159   0.00000   0.00000   0.00000   0.00000   3.14159
   D11        3.14159   0.00000   0.00000   0.00000   0.00000   3.14159
   D12        0.00000   0.00000   0.00000   0.00000   0.00000   0.00000
   D13        3.14159   0.00000   0.00000   0.00000   0.00000   3.14159
   D14        0.00000   0.00000   0.00000   0.00000   0.00000   0.00000
   D15        0.00000   0.00000   0.00000   0.00000   0.00000   0.00000
   D16        3.14159   0.00000   0.00000   0.00000   0.00000   3.14159
         Item               Value     Threshold  Converged?
 Maximum Force            0.003981     0.000450     NO 
 RMS     Force            0.001361     0.000300     NO 
 Maximum Displacement     0.006020     0.001800     NO 
 RMS     Displacement     0.002708     0.001200     NO 
 Predicted change in Energy=-1.006487D-04
 GradGradGradGradGradGradGradGradGradGradGradGradGradGradGradGradGradGrad

                          Input orientation:                          
 ---------------------------------------------------------------------
 Center     Atomic     Atomic              Coordinates (Angstroms)
 Number     Number      Type              X           Y           Z
 ---------------------------------------------------------------------
    1          7             0        0.365005    0.000000    1.393247
    2          1             0        0.354461    0.000000   -1.817403
    3          6             0       -1.165191    0.000000   -0.296087
    4          1             0       -2.049146    0.000000   -0.922927
    5          6             0       -0.983786    0.000000    1.074899
    6          1             0       -1.747220    0.000000    1.847002
    7          1             0        2.079557    0.000000    0.089603
    8          6             0        1.003060    0.000000    0.229733
    9          7             0        0.118259    0.000000   -0.829318
 ---------------------------------------------------------------------
                    Distance matrix (angstroms):
                    1          2          3          4          5
     1  N    0.000000
     2  H    3.210667   0.000000
     3  C    2.279331   2.150289   0.000000
     4  H    3.345562   2.564647   1.083653   0.000000
     5  C    1.385851   3.186897   1.382936   2.264134   0.000000
     6  H    2.160414   4.224325   2.220719   2.786335   1.085806
     7  H    2.153874   2.571503   3.267590   4.251048   3.217899
     8  C    1.326980   2.147428   2.231098   3.262604   2.159134
     9  N    2.236219   1.015925   1.389812   2.169426   2.200124
                    6          7          8          9
     6  H    0.000000
     7  H    4.211018   0.000000
     8  C    3.190548   1.085579   0.000000
     9  N    3.262315   2.165896   1.380022   0.000000
 Stoichiometry    C3H4N2
 Framework group  CS[SG(C3H4N2)]
 Deg. of freedom    15
 Full point group                 CS      NOp   2
 Largest Abelian subgroup         CS      NOp   2
 Largest concise Abelian subgroup C1      NOp   1
                         Standard orientation:                         
 ---------------------------------------------------------------------
 Center     Atomic     Atomic              Coordinates (Angstroms)
 Number     Number      Type              X           Y           Z
 ---------------------------------------------------------------------
    1          7             0       -0.745352   -0.994470    0.000000
    2          1             0       -0.005487    2.129787    0.000000
    3          6             0        1.128700    0.302942    0.000000
    4          1             0        2.131974    0.712510    0.000000
    5          6             0        0.640494   -0.990954    0.000000
    6          1             0        1.208501   -1.916342    0.000000
    7          1             0       -2.118805    0.664687    0.000000
    8          6             0       -1.102314    0.283597    0.000000
    9          7             0        0.000000    1.113877    0.000000
 ---------------------------------------------------------------------
 Rotational constants (GHZ):      9.5950385      9.2354585      4.7059076
 Standard basis: 6-311G(d,p) (5D, 7F)
 There are    85 symmetry adapted basis functions of A'  symmetry.
 There are    29 symmetry adapted basis functions of A"  symmetry.
 Integral buffers will be    262144 words long.
 Raffenetti 2 integral format.
 Two-electron integral symmetry is turned on.
   114 basis functions,   192 primitive gaussians,   119 cartesian basis functions
    18 alpha electrons       18 beta electrons
       nuclear repulsion energy       161.8294441674 Hartrees.
 NAtoms=    9 NActive=    9 NUniq=    9 SFac= 1.00D+00 NAtFMM=   60 Big=F
 One-electron integrals computed using PRISM.
 NBasis=   114 RedAO= T  NBF=    85    29
 NBsUse=   114 1.00D-06 NBFU=    85    29
 Initial guess read from the read-write file:
 Initial guess orbital symmetries:
       Occupied  (A') (A') (A') (A') (A') (A') (A') (A') (A') (A')
                 (A') (A') (A') (A") (A') (A") (A') (A")
       Virtual   (A") (A') (A") (A') (A') (A') (A') (A') (A') (A')
                 (A') (A') (A') (A') (A") (A") (A') (A") (A') (A')
                 (A') (A') (A') (A") (A') (A') (A') (A") (A') (A')
                 (A') (A') (A") (A') (A") (A') (A") (A") (A') (A")
                 (A') (A') (A') (A') (A") (A') (A') (A') (A") (A')
                 (A") (A') (A") (A') (A') (A") (A') (A') (A") (A')
                 (A') (A") (A') (A") (A') (A") (A') (A') (A') (A')
                 (A") (A') (A') (A") (A') (A") (A') (A') (A') (A')
                 (A') (A') (A') (A") (A') (A") (A') (A') (A') (A')
                 (A') (A') (A') (A') (A') (A')
 Requested convergence on RMS density matrix=1.00D-08 within 128 cycles.
 Requested convergence on MAX density matrix=1.00D-06.
 Requested convergence on             energy=1.00D-06.
 No special actions if energy rises.
 SCF Done:  E(RB-LYP) =  -226.199965016     A.U. after    9 cycles
             Convg  =    0.8958D-08             -V/T =  2.0025
             S**2   =   0.0000
 Calling FoFCou, ICntrl=  2527 FMM=F ISym2X=1 I1Cent= 0 ISCF1= 0.
 ***** Axes restored to original set *****
 -------------------------------------------------------------------
 Center     Atomic                   Forces (Hartrees/Bohr)
 Number     Number              X              Y              Z
 -------------------------------------------------------------------
    1          7           0.002288654    0.000000000    0.000157207
    2          1          -0.000259221    0.000000000    0.000329956
    3          6          -0.000319886    0.000000000    0.000954243
    4          1           0.000201640    0.000000000    0.000034472
    5          6          -0.001320802    0.000000000   -0.001631836
    6          1           0.000458607    0.000000000   -0.000112995
    7          1          -0.000195549    0.000000000    0.000033987
    8          6          -0.001894633    0.000000000    0.000891846
    9          7           0.001041190    0.000000000   -0.000656882
 -------------------------------------------------------------------
 Cartesian Forces:  Max     0.002288654 RMS     0.000794983

 GradGradGradGradGradGradGradGradGradGradGradGradGradGradGradGradGradGrad
 Berny optimization.
 Internal  Forces:  Max     0.001239058 RMS     0.000409265
 Search for a local minimum.
 Step number   5 out of a maximum of  48
 All quantities printed in internal units (Hartrees-Bohrs-Radians)
 Update second derivatives using D2CorX and points  1  2  3  4  5

 Trust test= 1.26D+00 RLast= 2.59D-02 DXMaxT set to 6.00D-01
     Eigenvalues ---    0.03204   0.03261   0.03286   0.03303   0.03349
     Eigenvalues ---    0.03404   0.14018   0.15983   0.16003   0.16025
     Eigenvalues ---    0.20908   0.28324   0.41217   0.46089   0.49548
     Eigenvalues ---    0.49685   0.56532   0.59541   0.64831   0.67146
     Eigenvalues ---    0.770111000.000001000.000001000.000001000.00000
     Eigenvalues --- 1000.000001000.000001000.000001000.000001000.00000
     Eigenvalues --- 1000.000001000.000001000.000001000.000001000.00000
     Eigenvalues --- 1000.000001000.000001000.00000
 RFO step:  Lambda=-3.87826338D-06.
 Quartic linear search produced a step of  0.34817.
 Iteration  1 RMS(Cart)=  0.00110872 RMS(Int)=  0.00000211
 Iteration  2 RMS(Cart)=  0.00000116 RMS(Int)=  0.00000187
 Iteration  3 RMS(Cart)=  0.00000000 RMS(Int)=  0.00000187
 Variable       Old X    -DE/DX   Delta X   Delta X   Delta X     New X
                                 (Linear)    (Quad)   (Total)
    R1        2.61888   0.00112   0.00337   0.00058   0.00395   2.62283
    R2        2.50763  -0.00124  -0.00265  -0.00041  -0.00306   2.50457
    R3        1.91982  -0.00038  -0.00074  -0.00022  -0.00096   1.91886
    R4        2.04781  -0.00018  -0.00095   0.00027  -0.00068   2.04713
    R5        2.61337  -0.00089  -0.00370   0.00037  -0.00333   2.61004
    R6        2.62636   0.00006   0.00343  -0.00102   0.00241   2.62877
    R7        2.05188  -0.00040  -0.00131   0.00007  -0.00124   2.05064
    R8        2.05145  -0.00020  -0.00082   0.00033  -0.00049   2.05095
    R9        2.60786  -0.00029   0.00087  -0.00097  -0.00010   2.60777
    A1        1.84062  -0.00080  -0.00131  -0.00123  -0.00254   1.83808
    A2        2.31918   0.00016   0.00150  -0.00029   0.00121   2.32039
    A3        2.13100  -0.00003  -0.00223   0.00081  -0.00141   2.12959
    A4        1.83301  -0.00013   0.00073  -0.00053   0.00020   1.83321
    A5        1.93413   0.00034   0.00067   0.00051   0.00117   1.93530
    A6        2.11877  -0.00042  -0.00186  -0.00105  -0.00290   2.11587
    A7        2.23029   0.00008   0.00119   0.00053   0.00173   2.23201
    A8        2.20184  -0.00045  -0.00078  -0.00055  -0.00133   2.20051
    A9        1.94399   0.00088   0.00229   0.00094   0.00323   1.94723
   A10        2.13735  -0.00043  -0.00151  -0.00039  -0.00190   2.13545
   A11        2.19921  -0.00002   0.00032  -0.00057  -0.00026   2.19895
   A12        2.21095   0.00031   0.00206   0.00027   0.00232   2.21328
   A13        1.87302  -0.00029  -0.00238   0.00031  -0.00207   1.87096
    D1        0.00000   0.00000   0.00000   0.00000   0.00000   0.00000
    D2        3.14159   0.00000   0.00000   0.00000   0.00000   3.14159
    D3        3.14159   0.00000   0.00000   0.00000   0.00000   3.14159
    D4        0.00000   0.00000   0.00000   0.00000   0.00000   0.00000
    D5        3.14159   0.00000   0.00000   0.00000   0.00000   3.14159
    D6        0.00000   0.00000   0.00000   0.00000   0.00000   0.00000
    D7        0.00000   0.00000   0.00000   0.00000   0.00000   0.00000
    D8        3.14159   0.00000   0.00000   0.00000   0.00000   3.14159
    D9        0.00000   0.00000   0.00000   0.00000   0.00000   0.00000
   D10        3.14159   0.00000   0.00000   0.00000   0.00000   3.14159
   D11        3.14159   0.00000   0.00000   0.00000   0.00000   3.14159
   D12        0.00000   0.00000   0.00000   0.00000   0.00000   0.00000
   D13        3.14159   0.00000   0.00000   0.00000   0.00000   3.14159
   D14        0.00000   0.00000   0.00000   0.00000   0.00000   0.00000
   D15        0.00000   0.00000   0.00000   0.00000   0.00000   0.00000
   D16        3.14159   0.00000   0.00000   0.00000   0.00000   3.14159
         Item               Value     Threshold  Converged?
 Maximum Force            0.001239     0.000450     NO 
 RMS     Force            0.000409     0.000300     NO 
 Maximum Displacement     0.003011     0.001800     NO 
 RMS     Displacement     0.001109     0.001200     YES
 Predicted change in Energy=-1.103192D-05
 GradGradGradGradGradGradGradGradGradGradGradGradGradGradGradGradGradGrad

                          Input orientation:                          
 ---------------------------------------------------------------------
 Center     Atomic     Atomic              Coordinates (Angstroms)
 Number     Number      Type              X           Y           Z
 ---------------------------------------------------------------------
    1          7             0        0.366362    0.000000    1.393716
    2          1             0        0.354181    0.000000   -1.817604
    3          6             0       -1.165635    0.000000   -0.295595
    4          1             0       -2.048676    0.000000   -0.923100
    5          6             0       -0.984158    0.000000    1.073604
    6          1             0       -1.745627    0.000000    1.846726
    7          1             0        2.077993    0.000000    0.090243
    8          6             0        1.001791    0.000000    0.230612
    9          7             0        0.118768    0.000000   -0.829854
 ---------------------------------------------------------------------
                    Distance matrix (angstroms):
                    1          2          3          4          5
     1  N    0.000000
     2  H    3.211343   0.000000
     3  C    2.280523   2.150896   0.000000
     4  H    3.346647   2.563954   1.083293   0.000000
     5  C    1.387940   3.185943   1.381173   2.262747   0.000000
     6  H    2.160027   4.223329   2.219444   2.786355   1.085151
     7  H    2.151447   2.571265   3.266496   4.249266   3.216173
     8  C    1.325360   2.148159   2.230388   3.261350   2.157459
     9  N    2.237312   1.015416   1.391088   2.169449   2.199909
                    6          7          8          9
     6  H    0.000000
     7  H    4.207767   0.000000
     8  C    3.187496   1.085318   0.000000
     9  N    3.261909   2.164519   1.379970   0.000000
 Stoichiometry    C3H4N2
 Framework group  CS[SG(C3H4N2)]
 Deg. of freedom    15
 Full point group                 CS      NOp   2
 Largest Abelian subgroup         CS      NOp   2
 Largest concise Abelian subgroup C1      NOp   1
                         Standard orientation:                         
 ---------------------------------------------------------------------
 Center     Atomic     Atomic              Coordinates (Angstroms)
 Number     Number      Type              X           Y           Z
 ---------------------------------------------------------------------
    1          7             0       -0.747074   -0.994388    0.000000
    2          1             0       -0.004474    2.129915    0.000000
    3          6             0        1.129137    0.301998    0.000000
    4          1             0        2.131802    0.712105    0.000000
    5          6             0        0.640858   -0.989986    0.000000
    6          1             0        1.206426   -1.916099    0.000000
    7          1             0       -2.117196    0.664374    0.000000
    8          6             0       -1.101168    0.282796    0.000000
    9          7             0        0.000000    1.114509    0.000000
 ---------------------------------------------------------------------
 Rotational constants (GHZ):      9.6000002      9.2323501      4.7062932
 Standard basis: 6-311G(d,p) (5D, 7F)
 There are    85 symmetry adapted basis functions of A'  symmetry.
 There are    29 symmetry adapted basis functions of A"  symmetry.
 Integral buffers will be    262144 words long.
 Raffenetti 2 integral format.
 Two-electron integral symmetry is turned on.
   114 basis functions,   192 primitive gaussians,   119 cartesian basis functions
    18 alpha electrons       18 beta electrons
       nuclear repulsion energy       161.8407301895 Hartrees.
 NAtoms=    9 NActive=    9 NUniq=    9 SFac= 1.00D+00 NAtFMM=   60 Big=F
 One-electron integrals computed using PRISM.
 NBasis=   114 RedAO= T  NBF=    85    29
 NBsUse=   114 1.00D-06 NBFU=    85    29
 Initial guess read from the read-write file:
 Initial guess orbital symmetries:
       Occupied  (A') (A') (A') (A') (A') (A') (A') (A') (A') (A')
                 (A') (A') (A') (A") (A') (A") (A') (A")
       Virtual   (A") (A') (A") (A') (A') (A') (A') (A') (A') (A')
                 (A') (A') (A') (A') (A") (A") (A') (A') (A") (A')
                 (A') (A') (A') (A") (A') (A') (A') (A") (A') (A')
                 (A') (A') (A") (A') (A") (A') (A") (A") (A') (A")
                 (A') (A') (A') (A') (A") (A') (A') (A') (A") (A')
                 (A") (A') (A") (A') (A') (A") (A') (A') (A") (A')
                 (A') (A") (A') (A") (A') (A") (A') (A') (A') (A')
                 (A") (A') (A') (A") (A') (A") (A') (A') (A') (A')
                 (A') (A') (A') (A") (A') (A") (A') (A') (A') (A')
                 (A') (A') (A') (A') (A') (A')
 Requested convergence on RMS density matrix=1.00D-08 within 128 cycles.
 Requested convergence on MAX density matrix=1.00D-06.
 Requested convergence on             energy=1.00D-06.
 No special actions if energy rises.
 SCF Done:  E(RB-LYP) =  -226.199976672     A.U. after    9 cycles
             Convg  =    0.2682D-08             -V/T =  2.0024
             S**2   =   0.0000
 Calling FoFCou, ICntrl=  2527 FMM=F ISym2X=1 I1Cent= 0 ISCF1= 0.
 ***** Axes restored to original set *****
 -------------------------------------------------------------------
 Center     Atomic                   Forces (Hartrees/Bohr)
 Number     Number              X              Y              Z
 -------------------------------------------------------------------
    1          7           0.000443971    0.000000000    0.000157120
    2          1          -0.000024323    0.000000000    0.000003935
    3          6           0.000387316    0.000000000   -0.000242013
    4          1          -0.000065428    0.000000000   -0.000000739
    5          6          -0.000436768    0.000000000   -0.000062402
    6          1           0.000028831    0.000000000    0.000060806
    7          1           0.000088320    0.000000000   -0.000011339
    8          6          -0.000458618    0.000000000   -0.000248934
    9          7           0.000036699    0.000000000    0.000343567
 -------------------------------------------------------------------
 Cartesian Forces:  Max     0.000458618 RMS     0.000195701

 GradGradGradGradGradGradGradGradGradGradGradGradGradGradGradGradGradGrad
 Berny optimization.
 Internal  Forces:  Max     0.000314653 RMS     0.000099119
 Search for a local minimum.
 Step number   6 out of a maximum of  48
 All quantities printed in internal units (Hartrees-Bohrs-Radians)
 Update second derivatives using D2CorX and points  1  2  3  4  5
                                                        6
 Trust test= 1.06D+00 RLast= 9.66D-03 DXMaxT set to 6.00D-01
     Eigenvalues ---    0.03204   0.03261   0.03286   0.03302   0.03349
     Eigenvalues ---    0.03403   0.13728   0.15798   0.16001   0.16045
     Eigenvalues ---    0.20539   0.28294   0.40699   0.45218   0.49522
     Eigenvalues ---    0.49677   0.56475   0.58896   0.63824   0.67563
     Eigenvalues ---    0.761251000.000001000.000001000.000001000.00000
     Eigenvalues --- 1000.000001000.000001000.000001000.000001000.00000
     Eigenvalues --- 1000.000001000.000001000.000001000.000001000.00000
     Eigenvalues --- 1000.000001000.000001000.00000
 RFO step:  Lambda=-6.51694044D-07.
 Quartic linear search produced a step of  0.06245.
 Iteration  1 RMS(Cart)=  0.00016893 RMS(Int)=  0.00000006
 Iteration  2 RMS(Cart)=  0.00000003 RMS(Int)=  0.00000005
 Variable       Old X    -DE/DX   Delta X   Delta X   Delta X     New X
                                 (Linear)    (Quad)   (Total)
    R1        2.62283   0.00031   0.00025   0.00041   0.00066   2.62348
    R2        2.50457  -0.00002  -0.00019   0.00006  -0.00013   2.50444
    R3        1.91886  -0.00001  -0.00006   0.00000  -0.00006   1.91880
    R4        2.04713   0.00005  -0.00004   0.00011   0.00007   2.04720
    R5        2.61004   0.00008  -0.00021   0.00026   0.00005   2.61009
    R6        2.62877  -0.00025   0.00015  -0.00042  -0.00027   2.62850
    R7        2.05064   0.00002  -0.00008   0.00007  -0.00001   2.05063
    R8        2.05095   0.00009  -0.00003   0.00019   0.00016   2.05111
    R9        2.60777  -0.00030  -0.00001  -0.00050  -0.00051   2.60726
    A1        1.83808  -0.00016  -0.00016  -0.00021  -0.00037   1.83770
    A2        2.32039  -0.00006   0.00008  -0.00037  -0.00029   2.32010
    A3        2.12959   0.00002  -0.00009   0.00022   0.00013   2.12972
    A4        1.83321   0.00004   0.00001   0.00014   0.00016   1.83337
    A5        1.93530  -0.00010   0.00007  -0.00026  -0.00019   1.93512
    A6        2.11587  -0.00001  -0.00018  -0.00020  -0.00038   2.11549
    A7        2.23201   0.00012   0.00011   0.00046   0.00057   2.23258
    A8        2.20051  -0.00007  -0.00008  -0.00013  -0.00021   2.20030
    A9        1.94723   0.00015   0.00020   0.00026   0.00046   1.94769
   A10        2.13545  -0.00007  -0.00012  -0.00013  -0.00024   2.13520
   A11        2.19895  -0.00006  -0.00002  -0.00012  -0.00014   2.19882
   A12        2.21328  -0.00002   0.00015   0.00005   0.00019   2.21347
   A13        1.87096   0.00009  -0.00013   0.00007  -0.00006   1.87090
    D1        0.00000   0.00000   0.00000   0.00000   0.00000   0.00000
    D2        3.14159   0.00000   0.00000   0.00000   0.00000   3.14159
    D3        3.14159   0.00000   0.00000   0.00000   0.00000   3.14159
    D4        0.00000   0.00000   0.00000   0.00000   0.00000   0.00000
    D5        3.14159   0.00000   0.00000   0.00000   0.00000   3.14159
    D6        0.00000   0.00000   0.00000   0.00000   0.00000   0.00000
    D7        0.00000   0.00000   0.00000   0.00000   0.00000   0.00000
    D8        3.14159   0.00000   0.00000   0.00000   0.00000   3.14159
    D9        0.00000   0.00000   0.00000   0.00000   0.00000   0.00000
   D10        3.14159   0.00000   0.00000   0.00000   0.00000   3.14159
[...]
   9   7    -0.02   0.04   0.00     0.04  -0.06   0.00    -0.24  -0.01   0.00
                    16                     17                     18
                    A'                     A'                     A'
 Frequencies --  1439.2277              1494.8968              3158.8199
 Red. masses --     2.8849                 2.9554                 1.0913
 Frc consts  --     3.5208                 3.8912                 6.4157
 IR Inten    --    13.8767                 9.6393                 7.4230
 Atom AN      X      Y      Z        X      Y      Z        X      Y      Z
   1   7    -0.02  -0.11   0.00    -0.02   0.14   0.00     0.00   0.00   0.00
   2   1    -0.01  -0.13   0.00     0.62   0.00   0.00     0.00  -0.01   0.00
   3   6    -0.04   0.23   0.00     0.11   0.20   0.00    -0.02  -0.01   0.00
   4   1     0.28  -0.52   0.00     0.31  -0.21   0.00     0.29   0.11   0.00
   5   6     0.05  -0.11   0.00    -0.12  -0.20   0.00     0.04  -0.07   0.00
   6   1    -0.07  -0.21   0.00     0.45   0.11   0.00    -0.48   0.79   0.00
   7   1    -0.29  -0.58   0.00     0.22   0.19   0.00    -0.18   0.07   0.00
   8   6     0.02   0.26   0.00     0.07  -0.15   0.00     0.02   0.00   0.00
   9   7     0.00  -0.11   0.00    -0.14  -0.01   0.00     0.00   0.00   0.00
                    19                     20                     21
                    A'                     A'                     A'
 Frequencies --  3165.0513              3190.3862              3536.6922
 Red. masses --     1.0954                 1.1029                 1.0808
 Frc consts  --     6.4651                 6.6143                 7.9650
 IR Inten    --     1.7775                 3.5617                29.3865
 Atom AN      X      Y      Z        X      Y      Z        X      Y      Z
   1   7     0.00   0.00   0.00     0.00   0.00   0.00     0.00   0.00   0.00
   2   1    -0.01   0.02   0.00    -0.01  -0.02   0.00    -0.01   1.00   0.00
   3   6    -0.01  -0.01   0.00    -0.08  -0.03   0.00     0.00   0.00   0.00
   4   1     0.13   0.05   0.00     0.87   0.35   0.00     0.01   0.00   0.00
   5   6     0.01  -0.01   0.00    -0.01   0.03   0.00     0.00   0.00   0.00
   6   1    -0.08   0.13   0.00     0.17  -0.28   0.00     0.00   0.00   0.00
   7   1     0.91  -0.34   0.00    -0.07   0.03   0.00    -0.01   0.00   0.00
   8   6    -0.08   0.03   0.00     0.01   0.00   0.00     0.00   0.00   0.00
   9   7     0.00   0.00   0.00     0.00   0.00   0.00     0.00  -0.07   0.00

 -------------------
 - Thermochemistry -
 -------------------
 Temperature   298.150 Kelvin.  Pressure   1.00000 Atm.
 Atom  1 has atomic number  7 and mass  14.00307
 Atom  2 has atomic number  1 and mass   1.00783
 Atom  3 has atomic number  6 and mass  12.00000
 Atom  4 has atomic number  1 and mass   1.00783
 Atom  5 has atomic number  6 and mass  12.00000
 Atom  6 has atomic number  1 and mass   1.00783
 Atom  7 has atomic number  1 and mass   1.00783
 Atom  8 has atomic number  6 and mass  12.00000
 Atom  9 has atomic number  7 and mass  14.00307
 Molecular mass:    68.03745 amu.
 Principal axes and moments of inertia in atomic units:
                           1         2         3
     EIGENVALUES --   187.99387 195.48015 383.47403
           X            0.48520   0.87440   0.00000
           Y            0.87440  -0.48520   0.00000
           Z            0.00000   0.00000   1.00000
 This molecule is an asymmetric top.
 Rotational symmetry number  1.
 Rotational temperatures (Kelvin)      0.46073     0.44308     0.22587
 Rotational constants (GHZ):           9.60000     9.23235     4.70629
 Zero-point vibrational energy     179889.8 (Joules/Mol)
                                   42.99469 (Kcal/Mol)
 Warning -- explicit consideration of   1 degrees of freedom as
           vibrations may cause significant error
 Vibrational temperatures:    723.55   900.32   952.68   993.36  1097.78
          (Kelvin)           1183.59  1264.26  1318.17  1492.80  1514.61
                             1592.12  1604.27  1781.51  1878.05  1975.50
                             2070.73  2150.82  4544.83  4553.80  4590.25
                             5088.51
 
 Zero-point correction=                           0.068516 (Hartree/Particle)
 Thermal correction to Energy=                    0.072388
 Thermal correction to Enthalpy=                  0.073333
 Thermal correction to Gibbs Free Energy=         0.042185
 Sum of electronic and zero-point Energies=           -226.131460
 Sum of electronic and thermal Energies=              -226.127588
 Sum of electronic and thermal Enthalpies=            -226.126644
 Sum of electronic and thermal Free Energies=         -226.157792
 
                     E (Thermal)             CV                S
                      KCal/Mol        Cal/Mol-Kelvin    Cal/Mol-Kelvin
 Total                   45.424             14.084             65.556
 Electronic               0.000              0.000              0.000
 Translational            0.889              2.981             38.570
 Rotational               0.889              2.981             24.159
 Vibrational             43.647              8.123              2.827
 Vibration  1             0.858              1.244              0.651
                       Q            Log10(Q)             Ln(Q)
 Total Bot       0.394748D-19        -19.403680        -44.678624
 Total V=0       0.129303D+13         12.111608         27.888009
 Vib (Bot)       0.421120D-31        -31.375594        -72.244976
 Vib (Bot)  1    0.325977D+00         -0.486813         -1.120929
 Vib (V=0)       0.137941D+01          0.139694          0.321656
 Vib (V=0)  1    0.109688D+01          0.040158          0.092466
 Electronic      0.100000D+01          0.000000          0.000000
 Translational   0.220586D+08          7.343577         16.909211
 Rotational      0.424950D+05          4.628338         10.657141
 ***** Axes restored to original set *****
 -------------------------------------------------------------------
 Center     Atomic                   Forces (Hartrees/Bohr)
 Number     Number              X              Y              Z
 -------------------------------------------------------------------
    1          7           0.000443849    0.000000000    0.000157129
    2          1          -0.000024323    0.000000000    0.000003926
    3          6           0.000387316    0.000000000   -0.000241939
    4          1          -0.000065451    0.000000000   -0.000000758
    5          6          -0.000436750    0.000000000   -0.000062336
    6          1           0.000028873    0.000000000    0.000060761
    7          1           0.000088334    0.000000000   -0.000011341
    8          6          -0.000458606    0.000000000   -0.000248997
    9          7           0.000036759    0.000000000    0.000343556
 -------------------------------------------------------------------
 Cartesian Forces:  Max     0.000458606 RMS     0.000195687

 GradGradGradGradGradGradGradGradGradGradGradGradGradGradGradGradGradGrad
 Berny optimization.
 Internal  Forces:  Max     0.000314572 RMS     0.000099109
 Search for a local minimum.
 Step number   1 out of a maximum of   2
 All quantities printed in internal units (Hartrees-Bohrs-Radians)
 Second derivative matrix not updated -- analytic derivatives used.
     Eigenvalues ---    0.00487   0.00985   0.01793   0.02504   0.05638
     Eigenvalues ---    0.05891   0.09245   0.09817   0.10337   0.11062
     Eigenvalues ---    0.21369   0.22692   0.31182   0.34885   0.35268
     Eigenvalues ---    0.35635   0.37429   0.41174   0.43120   0.44920
     Eigenvalues ---    0.528171000.000001000.000001000.000001000.00000
     Eigenvalues --- 1000.000001000.000001000.000001000.000001000.00000
     Eigenvalues --- 1000.000001000.000001000.000001000.000001000.00000
     Eigenvalues --- 1000.000001000.000001000.00000
 Angle between quadratic step and forces=  24.81 degrees.
 Linear search not attempted -- first point.
 Iteration  1 RMS(Cart)=  0.00027723 RMS(Int)=  0.00000008
 Iteration  2 RMS(Cart)=  0.00000009 RMS(Int)=  0.00000001
 Variable       Old X    -DE/DX   Delta X   Delta X   Delta X     New X
                                 (Linear)    (Quad)   (Total)
    R1        2.62283   0.00031   0.00000   0.00128   0.00128   2.62410
    R2        2.50457  -0.00002   0.00000  -0.00003  -0.00003   2.50454
    R3        1.91886  -0.00001   0.00000  -0.00002  -0.00002   1.91884
    R4        2.04713   0.00005   0.00000   0.00016   0.00016   2.04729
    R5        2.61004   0.00008   0.00000   0.00014   0.00014   2.61018
    R6        2.62877  -0.00025   0.00000  -0.00071  -0.00071   2.62807
    R7        2.05064   0.00002   0.00000   0.00001   0.00001   2.05065
    R8        2.05095   0.00009   0.00000   0.00030   0.00030   2.05125
    R9        2.60777  -0.00030   0.00000  -0.00094  -0.00094   2.60682
    A1        1.83808  -0.00016   0.00000  -0.00057  -0.00057   1.83751
    A2        2.32039  -0.00006   0.00000  -0.00063  -0.00063   2.31976
    A3        2.12959   0.00002   0.00000   0.00041   0.00041   2.13000
    A4        1.83321   0.00004   0.00000   0.00021   0.00021   1.83342
    A5        1.93530  -0.00010   0.00000  -0.00039  -0.00039   1.93492
    A6        2.11587  -0.00001   0.00000  -0.00059  -0.00059   2.11528
    A7        2.23201   0.00012   0.00000   0.00098   0.00098   2.23299
    A8        2.20051  -0.00007   0.00000  -0.00036  -0.00036   2.20015
    A9        1.94723   0.00015   0.00000   0.00053   0.00053   1.94776
   A10        2.13545  -0.00007   0.00000  -0.00017  -0.00017   2.13528
   A11        2.19895  -0.00006   0.00000  -0.00029  -0.00029   2.19866
   A12        2.21328  -0.00002   0.00000   0.00008   0.00008   2.21336
   A13        1.87096   0.00009   0.00000   0.00021   0.00021   1.87117
    D1        0.00000   0.00000   0.00000   0.00000   0.00000   0.00000
    D2        3.14159   0.00000   0.00000   0.00000   0.00000   3.14159
    D3        3.14159   0.00000   0.00000   0.00000   0.00000   3.14159
    D4        0.00000   0.00000   0.00000   0.00000   0.00000   0.00000
    D5        3.14159   0.00000   0.00000   0.00000   0.00000   3.14159
    D6        0.00000   0.00000   0.00000   0.00000   0.00000   0.00000
    D7        0.00000   0.00000   0.00000   0.00000   0.00000   0.00000
    D8        3.14159   0.00000   0.00000   0.00000   0.00000   3.14159
    D9        0.00000   0.00000   0.00000   0.00000   0.00000   0.00000
   D10        3.14159   0.00000   0.00000   0.00000   0.00000   3.14159
   D11        3.14159   0.00000   0.00000   0.00000   0.00000   3.14159
   D12        0.00000   0.00000   0.00000   0.00000   0.00000   0.00000
   D13        3.14159   0.00000   0.00000   0.00000   0.00000   3.14159
   D14        0.00000   0.00000   0.00000   0.00000   0.00000   0.00000
   D15        0.00000   0.00000   0.00000   0.00000   0.00000   0.00000
   D16        3.14159   0.00000   0.00000   0.00000   0.00000   3.14159
         Item               Value     Threshold  Converged?
 Maximum Force            0.000315     0.000450     YES
 RMS     Force            0.000099     0.000300     YES
 Maximum Displacement     0.000670     0.001800     YES
 RMS     Displacement     0.000277     0.001200     YES
 Predicted change in Energy=-6.849270D-07
 Optimization completed.
    -- Stationary point found.
                           ----------------------------
                           !   Optimized Parameters   !
                           ! (Angstroms and Degrees)  !
 --------------------------                            --------------------------
 ! Name  Definition              Value          Derivative Info.                !
 --------------------------------------------------------------------------------
 ! R1    R(1,5)                  1.3879         -DE/DX =    0.0003              !
 ! R2    R(1,8)                  1.3254         -DE/DX =    0.0                 !
 ! R3    R(2,9)                  1.0154         -DE/DX =    0.0                 !
 ! R4    R(3,4)                  1.0833         -DE/DX =    0.0001              !
 ! R5    R(3,5)                  1.3812         -DE/DX =    0.0001              !
 ! R6    R(3,9)                  1.3911         -DE/DX =   -0.0003              !
 ! R7    R(5,6)                  1.0852         -DE/DX =    0.0                 !
 ! R8    R(7,8)                  1.0853         -DE/DX =    0.0001              !
 ! R9    R(8,9)                  1.38           -DE/DX =   -0.0003              !
 ! A1    A(5,1,8)              105.3141         -DE/DX =   -0.0002              !
 ! A2    A(4,3,5)              132.9484         -DE/DX =   -0.0001              !
 ! A3    A(4,3,9)              122.0164         -DE/DX =    0.0                 !
 ! A4    A(5,3,9)              105.0352         -DE/DX =    0.0                 !
 ! A5    A(1,5,3)              110.8848         -DE/DX =   -0.0001              !
 ! A6    A(1,5,6)              121.2302         -DE/DX =    0.0                 !
 ! A7    A(3,5,6)              127.885          -DE/DX =    0.0001              !
 ! A8    A(1,8,7)              126.0799         -DE/DX =   -0.0001              !
 ! A9    A(1,8,9)              111.568          -DE/DX =    0.0001              !
 ! A10   A(7,8,9)              122.3521         -DE/DX =   -0.0001              !
 ! A11   A(2,9,3)              125.9907         -DE/DX =   -0.0001              !
 ! A12   A(2,9,8)              126.8113         -DE/DX =    0.0                 !
 ! A13   A(3,9,8)              107.198          -DE/DX =    0.0001              !
 ! D1    D(8,1,5,3)              0.0            -DE/DX =    0.0                 !
 ! D2    D(8,1,5,6)            180.0            -DE/DX =    0.0                 !
 ! D3    D(5,1,8,7)            180.0            -DE/DX =    0.0                 !
 ! D4    D(5,1,8,9)              0.0            -DE/DX =    0.0                 !
 ! D5    D(4,3,5,1)            180.0            -DE/DX =    0.0                 !
 ! D6    D(4,3,5,6)              0.0            -DE/DX =    0.0                 !
 ! D7    D(9,3,5,1)              0.0            -DE/DX =    0.0                 !
 ! D8    D(9,3,5,6)            180.0            -DE/DX =    0.0                 !
 ! D9    D(4,3,9,2)              0.0            -DE/DX =    0.0                 !
 ! D10   D(4,3,9,8)            180.0            -DE/DX =    0.0                 !
 ! D11   D(5,3,9,2)            180.0            -DE/DX =    0.0                 !
 ! D12   D(5,3,9,8)              0.0            -DE/DX =    0.0                 !
 ! D13   D(1,8,9,2)            180.0            -DE/DX =    0.0                 !
 ! D14   D(1,8,9,3)              0.0            -DE/DX =    0.0                 !
 ! D15   D(7,8,9,2)              0.0            -DE/DX =    0.0                 !
 ! D16   D(7,8,9,3)            180.0            -DE/DX =    0.0                 !
 --------------------------------------------------------------------------------
 GradGradGradGradGradGradGradGradGradGradGradGradGradGradGradGradGradGrad

 1\1\GINC-P1117\Freq\RBLYP\6-311G(d,p)\C3H4N2\RDJ3\07-Jan-2005\0\\#N GE
 OM=ALLCHECK GUESS=READ SCRF=CHECK GENCHK RBLYP/6-311G(D,P) FREQ\\1H im
 idazole C3H4N2 casno=288324 method=13 basis=21\\0,1\N,0.5012018741,0.,
 1.1382985793\H,0.4890210215,0.,-2.0730214833\C,-1.0307954578,0.,-0.551
 0121916\H,-1.9138363328,0.,-1.1785172242\C,-0.8493184041,0.,0.81818639
 05\H,-1.610786859,0.,1.591308866\H,2.2128329876,0.,-0.165174995\C,1.13
 66307853,0.,-0.0248051523\N,0.2536077891,0.,-1.0852713569\\Version=IA3
 2L-G03RevC.02\State=1-A'\HF=-226.1999767\RMSD=2.773e-09\RMSF=1.957e-04
 \Dipole=-0.1008509,0.,-1.4295583\DipoleDeriv=-0.3410575,0.,-0.0433156,
 0.,-0.2876462,0.,-0.0469574,0.,-0.5801769,0.1724512,0.,-0.0058371,0.,0
 .3142105,0.,-0.0037738,0.,0.1361499,0.0029619,0.,-0.2258877,0.,-0.1339
 328,0.,-0.0367278,0.,0.1843313,0.0050662,0.,-0.0503971,0.,0.179205,0.,
 -0.0790636,0.,0.024569,0.1722596,0.,-0.0432327,0.,-0.1299545,0.,-0.059
 0991,0.,0.1393506,-0.0120044,0.,0.0685213,0.,0.1496994,0.,0.0880564,0.
 ,0.0240898,-0.0354508,0.,0.03605,0.,0.1586259,0.,0.0337909,0.,0.062942
 9,0.0989408,0.,0.096025,0.,-0.0169828,0.,0.0268714,0.,0.5128471,-0.063
 1668,0.,0.1680738,0.,-0.2332247,0.,0.076903,0.,-0.5041037\Polar=52.633
 4805,0.,22.9319363,-0.5852593,0.,49.5752565\PG=CS [SG(C3H4N2)]\NImag=0
 \\0.44092377,0.,0.09731484,-0.04894757,0.,0.51825955,-0.00314668,0.,-0
 .00763456,0.07559116,0.,0.00673783,0.,0.,0.01067223,-0.00261148,0.,-0.
 00449007,-0.08911635,0.,0.42333130,-0.03269613,0.,-0.01383779,0.006891
 45,0.,-0.00271532,0.68377333,0.,0.01591308,0.,0.,-0.00729040,0.,0.,0.0
 9909085,-0.08109177,0.,-0.02014943,0.02629173,0.,-0.00058748,0.1564232
 8,0.,0.67441933,0.00118138,0.,0.00107683,0.00004200,0.,0.00012545,-0.2
 3979292,0.,-0.13214566,0.25439702,0.,0.00657585,0.,0.,-0.00108269,0.,0
 .,-0.01803398,0.,0.,0.01654065,-0.00402994,0.,-0.00517908,-0.00086308,
 0.,0.00013536,-0.14217799,0.,-0.15548972,0.14532611,0.,0.14946674,-0.2
 2264543,0.,-0.03043196,-0.00793330,0.,-0.00210816,-0.09244953,0.,-0.01
 496784,0.00443452,0.,-0.02059027,0.60094989,0.,-0.06517023,0.,0.,0.002
 29890,0.,0.,-0.05981255,0.,0.,-0.00195381,0.,0.,0.12154175,-0.04216132
 ,0.,-0.10182016,0.00356186,0.,-0.00005553,-0.03080578,0.,-0.34913941,0
 .00157762,0.,0.00258317,-0.15567354,0.,0.73017407,-0.01977896,0.,0.019
 09572,0.00076499,0.,-0.00000618,0.00782333,0.,-0.00525615,-0.00029288,
 0.,0.00060090,-0.18030981,0.,0.13907341,0.19727015,0.,-0.00527673,0.,0
 .,0.00186374,0.,0.,-0.00071921,0.,0.,-0.00190701,0.,0.,-0.02560066,0.,
 0.,0.02096373,-0.00582831,0.,0.01095457,0.00112943,0.,0.00024392,0.019
 34384,0.,-0.00785196,-0.00043998,0.,-0.00026374,0.14068871,0.,-0.20447
 308,-0.15029106,0.,0.20511405,-0.00885114,0.,0.00419589,-0.00062278,0.
 ,-0.00044703,0.00100866,0.,-0.00286495,-0.00027979,0.,0.00035996,0.000
 93277,0.,0.00238880,-0.00031423,0.,-0.00015879,0.34782025,0.,-0.005519
 61,0.,0.,-0.00112125,0.,0.,0.00236706,0.,0.,0.00173580,0.,0.,0.0064159
 0,0.,0.,0.00114646,0.,0.,0.01838563,0.02756861,0.,-0.00029440,0.000382
 97,0.,0.00022463,-0.00089687,0.,-0.00549758,-0.00098551,0.,0.00098373,
 0.00278092,0.,-0.00403770,0.00128770,0.,0.00064501,-0.03680742,0.,0.05
 787716,-0.15052579,0.,0.10007709,0.01750070,0.,0.01331835,-0.08828644,
 0.,0.00358774,-0.00288145,0.,0.00392137,-0.08726676,0.,0.01545977,-0.0
 0563580,0.,-0.00319468,-0.32717925,0.,0.03446137,0.82843346,0.,-0.0704
 5738,0.,0.,-0.00864289,0.,0.,0.01559193,0.,0.,0.00249539,0.,0.,0.00982
 972,0.,0.,0.00502271,0.,0.,-0.02086768,0.,0.,0.12015858,0.12558644,0.,
 -0.29702101,-0.01460701,0.,-0.00972117,-0.04454671,0.,-0.00729527,0.00
 329199,0.,-0.00546423,0.06956107,0.,-0.00470290,-0.00163508,0.,0.00051
 369,0.02954607,0.,-0.05618773,-0.08394125,0.,0.56220143,-0.00446102,0.
 ,-0.02359365,-0.08908753,0.,0.08356072,-0.24627174,0.,0.05002363,-0.01
 680786,0.,0.01745293,-0.01571233,0.,0.06657918,0.00047322,0.,-0.001249
 18,-0.01251448,0.,-0.02779175,-0.18415866,0.,-0.08325551,0.56854041,0.
 ,0.01988236,0.,0.,-0.00343547,0.,0.,-0.04710678,0.,0.,-0.00437021,0.,0
 .,0.01245098,0.,0.,0.00450698,0.,0.,-0.00254232,0.,0.,-0.05313038,0.,0
 .,0.07374485,0.03151534,0.,-0.10025998,0.08085501,0.,-0.40908097,0.059
 21335,0.,-0.12840849,-0.01782686,0.,0.01322777,0.01074108,0.,-0.068528
 46,-0.00286927,0.,-0.00488245,0.00378748,0.,0.00628687,-0.08368976,0.,
 -0.18232282,-0.08172637,0.,0.87396854\\-0.00044385,0.,-0.00015713,0.00
 002432,0.,-0.00000393,-0.00038732,0.,0.00024194,0.00006545,0.,0.000000
 76,0.00043675,0.,0.00006234,-0.00002887,0.,-0.00006076,-0.00008833,0.,
 0.00001134,0.00045861,0.,0.00024900,-0.00003676,0.,-0.00034356\\\@


 ONLY A FOOL KNOWS EVERYTHING.

               -- THE CHEMIST ANALYST, SEPTEMBER 1946
 Job cpu time:  0 days  0 hours  7 minutes 36.5 seconds.
 File lengths (MBytes):  RWF=     20 Int=      0 D2E=      0 Chk=      5 Scr=      1
 Normal termination of Gaussian 03 at Fri Jan  7 14:14:17 2005.
