 Entering Gaussian System, Link 0=g98
 Initial command:
 /usr/local/apps/g98/g98/l1.exe /tmp/Gau-1013746.inp -scrdir=/tmp/
 Entering Link 1 = /usr/local/apps/g98/g98/l1.exe PID=   1013640.
  
 Copyright (c) 1988,1990,1992,1993,1995,1998 Gaussian, Inc.
                  All Rights Reserved.
  
 This is part of the Gaussian(R) 98 program.  It is based on
 the Gaussian 94(TM) system (copyright 1995 Gaussian, Inc.),
 the Gaussian 92(TM) system (copyright 1992 Gaussian, Inc.),
 the Gaussian 90(TM) system (copyright 1990 Gaussian, Inc.),
 the Gaussian 88(TM) system (copyright 1988 Gaussian, Inc.),
 the Gaussian 86(TM) system (copyright 1986 Carnegie Mellon
 University), and the Gaussian 82(TM) system (copyright 1983
 Carnegie Mellon University). Gaussian is a federally registered
 trademark of Gaussian, Inc.
  
 This software contains proprietary and confidential information,
 including trade secrets, belonging to Gaussian, Inc.
  
 This software is provided under written license and may be
 used, copied, transmitted, or stored only in accord with that
 written license.
  
 The following legend is applicable only to US Government
 contracts under DFARS:
  
                    RESTRICTED RIGHTS LEGEND
  
 Use, duplication or disclosure by the US Government is subject
 to restrictions as set forth in subparagraph (c)(1)(ii) of the
 Rights in Technical Data and Computer Software clause at DFARS
 252.227-7013.
  
 Gaussian, Inc.
 Carnegie Office Park, Building 6, Pittsburgh, PA 15106 USA
  
 The following legend is applicable only to US Government
 contracts under FAR:
  
                    RESTRICTED RIGHTS LEGEND
  
 Use, reproduction and disclosure by the US Government is subject
 to restrictions as set forth in subparagraph (c) of the
 Commercial Computer Software - Restricted Rights clause at FAR
 52.227-19.
  
 Gaussian, Inc.
 Carnegie Office Park, Building 6, Pittsburgh, PA 15106 USA
  
  
 ---------------------------------------------------------------
 Warning -- This program may not be used in any manner that
 competes with the business of Gaussian, Inc. or will provide
 assistance to any competitor of Gaussian, Inc.  The licensee
 of this program is prohibited from giving any competitor of
 Gaussian, Inc. access to this program.  By using this program,
 the user acknowledges that Gaussian, Inc. is engaged in the
 business of creating and licensing software in the field of
 computational chemistry and represents and warrants to the
 licensee that it is not a competitor of Gaussian, Inc. and that
 it will not use this program in any manner prohibited above.
 ---------------------------------------------------------------
  

 Cite this work as:
 Gaussian 98, Revision A.7,
 M. J. Frisch, G. W. Trucks, H. B. Schlegel, G. E. Scuseria, 
 M. A. Robb, J. R. Cheeseman, V. G. Zakrzewski, J. A. Montgomery, Jr., 
 R. E. Stratmann, J. C. Burant, S. Dapprich, J. M. Millam, 
 A. D. Daniels, K. N. Kudin, M. C. Strain, O. Farkas, J. Tomasi, 
 V. Barone, M. Cossi, R. Cammi, B. Mennucci, C. Pomelli, C. Adamo, 
 S. Clifford, J. Ochterski, G. A. Petersson, P. Y. Ayala, Q. Cui, 
 K. Morokuma, D. K. Malick, A. D. Rabuck, K. Raghavachari, 
 J. B. Foresman, J. Cioslowski, J. V. Ortiz, A. G. Baboul, 
 B. B. Stefanov, G. Liu, A. Liashenko, P. Piskorz, I. Komaromi, 
 R. Gomperts, R. L. Martin, D. J. Fox, T. Keith, M. A. Al-Laham, 
 C. Y. Peng, A. Nanayakkara, C. Gonzalez, M. Challacombe, 
 P. M. W. Gill, B. Johnson, W. Chen, M. W. Wong, J. L. Andres, 
 C. Gonzalez, M. Head-Gordon, E. S. Replogle, and J. A. Pople, 
 Gaussian, Inc., Pittsburgh PA, 1998.

 *****************************************
 Gaussian 98:  SGI64-G98RevA.7 11-Apr-1999
                 2-May-2000 
 *****************************************
 %mem=24000000
 ---------------------
 #BLYP/3-21G* opt freq
 ---------------------
 1/14=-1,18=20,26=3,38=1/1,3;
 2/9=110,17=6,18=5/2;
 3/5=5,7=1,11=2,25=1,30=1/1,2,3;
 4//1;
 5/5=2,38=4,42=402/2;
 6/7=2,8=2,9=2,10=2,28=1/1;
 7//1,2,3,16;
 1/14=-1,18=20/3(1);
 99//99;
 2/9=110/2;
 3/5=5,7=1,11=2,25=1,30=1/1,2,3;
 4/5=5,16=2/1;
 5/5=2,38=4,42=402/2;
 7//1,2,3,16;
 1/14=-1,18=20/3(-5);
 2/9=110/2;
 6/7=2,8=2,9=2,10=2,19=2,28=1/1;
 99/9=1/99;
 --------------------------------
 1H imidazole C3H4N2 casno=288324
 --------------------------------
 Symbolic Z-matrix:
 Charge =  0 Multiplicity = 1
 N                     0.30938   0.        1.30938 
 H                     0.3125    0.       -1.6875 
 C                    -1.06875   0.       -0.28438 
 H                    -1.91875   0.       -0.79063 
 C                    -0.93438   0.        1.02812 
 H                    -1.675     0.        1.6875 
 H                     1.91875   0.        0.09063 
 C                     0.93438   0.        0.19063 
 N                     0.09688   0.       -0.775 

 GradGradGradGradGradGradGradGradGradGradGradGradGradGradGradGradGradGrad
 Berny optimization.
 Initialization pass.
                         ----------------------------
                         !    Initial Parameters    !
                         ! (Angstroms and Degrees)  !
 ------------------------                            -------------------------
 ! Name  Definition              Value          Derivative Info.             !
 -----------------------------------------------------------------------------
 ! R1    R(1,5)                  1.2752         estimate D2E/DX2             !
 ! R2    R(1,8)                  1.2815         estimate D2E/DX2             !
 ! R3    R(2,9)                  0.9376         estimate D2E/DX2             !
 ! R4    R(3,4)                  0.9893         estimate D2E/DX2             !
 ! R5    R(3,5)                  1.3194         estimate D2E/DX2             !
 ! R6    R(3,9)                  1.2647         estimate D2E/DX2             !
 ! R7    R(5,6)                  0.9916         estimate D2E/DX2             !
 ! R8    R(7,8)                  0.9894         estimate D2E/DX2             !
 ! R9    R(8,9)                  1.2782         estimate D2E/DX2             !
 ! A1    A(5,1,8)              106.4483         estimate D2E/DX2             !
 ! A2    A(4,3,5)              126.6232         estimate D2E/DX2             !
 ! A3    A(4,3,9)              126.3957         estimate D2E/DX2             !
 ! A4    A(5,3,9)              106.9812         estimate D2E/DX2             !
 ! A5    A(1,5,3)              108.5877         estimate D2E/DX2             !
 ! A6    A(1,5,6)              125.5794         estimate D2E/DX2             !
 ! A7    A(3,5,6)              125.8329         estimate D2E/DX2             !
 ! A8    A(1,8,7)              124.9909         estimate D2E/DX2             !
 ! A9    A(1,8,9)              109.8741         estimate D2E/DX2             !
 ! A10   A(7,8,9)              125.1349         estimate D2E/DX2             !
 ! A11   A(2,9,3)              126.122          estimate D2E/DX2             !
 ! A12   A(2,9,8)              125.7693         estimate D2E/DX2             !
 ! A13   A(3,9,8)              108.1088         estimate D2E/DX2             !
 ! D1    D(8,1,5,3)              0.             estimate D2E/DX2             !
 ! D2    D(8,1,5,6)            180.             estimate D2E/DX2             !
 ! D3    D(5,1,8,7)            180.             estimate D2E/DX2             !
 ! D4    D(5,1,8,9)              0.             estimate D2E/DX2             !
 ! D5    D(4,3,5,1)            180.             estimate D2E/DX2             !
 ! D6    D(4,3,5,6)              0.             estimate D2E/DX2             !
 ! D7    D(9,3,5,1)              0.             estimate D2E/DX2             !
 ! D8    D(9,3,5,6)            180.             estimate D2E/DX2             !
 ! D9    D(4,3,9,2)              0.             estimate D2E/DX2             !
 ! D10   D(4,3,9,8)            180.             estimate D2E/DX2             !
 ! D11   D(5,3,9,2)            180.             estimate D2E/DX2             !
 ! D12   D(5,3,9,8)              0.             estimate D2E/DX2             !
 ! D13   D(1,8,9,2)            180.             estimate D2E/DX2             !
 ! D14   D(1,8,9,3)              0.             estimate D2E/DX2             !
 ! D15   D(7,8,9,2)              0.             estimate D2E/DX2             !
 ! D16   D(7,8,9,3)            180.             estimate D2E/DX2             !
 -----------------------------------------------------------------------------
 Trust Radius=3.00D-01 FncErr=1.00D-07 GrdErr=1.00D-06
 Number of steps in this run=  48 maximum allowed number of steps= 100.
 GradGradGradGradGradGradGradGradGradGradGradGradGradGradGradGradGradGrad

                          Input orientation:                          
 ---------------------------------------------------------------------
 Center     Atomic     Atomic              Coordinates (Angstroms)
 Number     Number      Type              X           Y           Z
 ---------------------------------------------------------------------
    1          7             0        0.309375    0.000000    1.309375
    2          1             0        0.312500    0.000000   -1.687500
    3          6             0       -1.068750    0.000000   -0.284375
    4          1             0       -1.918750    0.000000   -0.790625
    5          6             0       -0.934375    0.000000    1.028125
    6          1             0       -1.675000    0.000000    1.687500
    7          1             0        1.918750    0.000000    0.090625
    8          6             0        0.934375    0.000000    0.190625
    9          7             0        0.096875    0.000000   -0.775000
 ---------------------------------------------------------------------
                    Distance matrix (angstroms):
                    1          2          3          4          5
     1  N    0.000000
     2  H    2.996877   0.000000
     3  C    2.106957   1.968911   0.000000
     4  H    3.061787   2.404758   0.989338   0.000000
     5  C    1.275153   2.988196   1.319361   2.068054   0.000000
     6  H    2.020080   3.916731   2.062966   2.490084   0.991615
     7  H    2.018772   2.396199   3.010944   3.937386   3.003203
     8  C    1.281494   1.978404   2.058673   3.017147   2.047836
     9  N    2.095179   0.937630   1.264672   2.015686   2.077194
                    6          7          8          9
     6  H    0.000000
     7  H    3.932563   0.000000
     8  C    3.008234   0.989441   0.000000
     9  N    3.033718   2.017061   1.278217   0.000000
 Stoichiometry    C3H4N2
 Framework group  CS[SG(C3H4N2)]
 Deg. of freedom   15
 Full point group                 CS      NOp   2
 Largest Abelian subgroup         CS      NOp   2
 Largest concise Abelian subgroup C1      NOp   1
                         Standard orientation:                         
 ---------------------------------------------------------------------
 Center     Atomic     Atomic              Coordinates (Angstroms)
 Number     Number      Type              X           Y           Z
 ---------------------------------------------------------------------
    1          7             0       -0.674969   -0.941702    0.000000
    2          1             0       -0.005288    1.979393    0.000000
    3          6             0        1.025744    0.302019    0.000000
    4          1             0        1.967693    0.604544    0.000000
    5          6             0        0.600174   -0.946822    0.000000
    6          1             0        1.173884   -1.755622    0.000000
    7          1             0       -1.969692    0.607211    0.000000
    8          6             0       -1.032886    0.288794    0.000000
    9          7             0        0.000000    1.041778    0.000000
 ---------------------------------------------------------------------
 Rotational constants (GHZ):     11.1543393     10.4769603      5.4025219
 Isotopes: N-14,H-1,C-12,H-1,C-12,H-1,H-1,C-12,N-14
 Standard basis: 3-21G* (6D, 7F)
 There are    43 symmetry adapted basis functions of A'  symmetry.
 There are    10 symmetry adapted basis functions of A"  symmetry.
 Crude estimate of integral set expansion from redundant integrals=1.000.
 Integral buffers will be    131072 words long.
 Raffenetti 2 integral format.
 Two-electron integral symmetry is turned on.
    53 basis functions       87 primitive gaussians
    18 alpha electrons       18 beta electrons
       nuclear repulsion energy       173.5664837334 Hartrees.
 One-electron integrals computed using PRISM.
 NBasis=    53 RedAO= T  NBF=    43    10
 NBsUse=    53 1.00D-04 NBFU=    43    10
 Projected INDO Guess.
 Initial guess orbital symmetries:
       Occupied  (A') (A') (A') (A') (A') (A') (A') (A') (A') (A')
                 (A') (A") (A') (A') (A') (A") (A') (A")
       Virtual   (A") (A') (A') (A") (A') (A') (A') (A') (A') (A')
                 (A') (A') (A') (A') (A') (A') (A') (A') (A') (A')
                 (A') (A') (A') (A') (A') (A') (A') (A') (A') (A')
                 (A") (A") (A") (A") (A")
 Requested convergence on RMS density matrix=1.00D-08 within  64 cycles.
 Requested convergence on MAX density matrix=1.00D-06.
 Keep R1 and R2 integrals in memory in canonical form, NReq=     2863891.
 Integral accuracy reduced to 1.0D-05 until final iterations.
 Initial convergence to 1.0D-05 achieved.  Increase integral accuracy.
 SCF Done:  E(RB-LYP) =  -224.790585261     A.U. after   16 cycles
             Convg  =    0.5010D-08             -V/T =  1.9993
             S**2   =   0.0000

 **********************************************************************

            Population analysis using the SCF density.

 **********************************************************************

 Orbital Symmetries:
       Occupied  (A') (A') (A') (A') (A') (A') (A') (A') (A') (A')
                 (A') (A") (A') (A') (A') (A") (A") (A')
       Virtual   (A") (A") (A') (A') (A') (A') (A') (A') (A') (A')
                 (A') (A") (A') (A') (A") (A') (A") (A') (A') (A')
                 (A') (A') (A") (A') (A") (A') (A') (A') (A') (A')
                 (A') (A') (A') (A') (A')
  The electronic state is 1-A'.
 Alpha  occ. eigenvalues --  -13.99417 -13.88822  -9.87925  -9.85407  -9.83297
 Alpha  occ. eigenvalues --   -0.99402  -0.82265  -0.68699  -0.58431  -0.54829
 Alpha  occ. eigenvalues --   -0.52439  -0.41038  -0.40908  -0.38733  -0.36863
 Alpha  occ. eigenvalues --   -0.24662  -0.18708  -0.17140
 Alpha virt. eigenvalues --    0.04145   0.08683   0.08843   0.16474   0.18489
 Alpha virt. eigenvalues --    0.20389   0.26703   0.27758   0.36992   0.38300
 Alpha virt. eigenvalues --    0.52692   0.65550   0.68535   0.72109   0.72377
 Alpha virt. eigenvalues --    0.75480   0.76179   0.81046   0.83029   0.88114
 Alpha virt. eigenvalues --    0.99049   1.02388   1.06201   1.08545   1.16586
 Alpha virt. eigenvalues --    1.22106   1.26287   1.32561   1.34277   1.48533
 Alpha virt. eigenvalues --    1.63355   1.69860   1.77460   2.66888   2.86947
          Condensed to atoms (all electrons):
              1          2          3          4          5          6
  1  N    6.893713   0.005486  -0.096096   0.007960   0.408920  -0.044814
  2  H    0.005486   0.403884  -0.029671  -0.001509   0.009124  -0.000028
  3  C   -0.096096  -0.029671   5.251807   0.362883   0.442804  -0.084525
  4  H    0.007960  -0.001509   0.362883   0.522734  -0.024818  -0.000987
  5  C    0.408920   0.009124   0.442804  -0.024818   5.032005   0.412291
  6  H   -0.044814  -0.000028  -0.084525  -0.000987   0.412291   0.539731
  7  H   -0.038908  -0.000031   0.003307  -0.000025   0.007147  -0.000029
  8  C    0.519668  -0.019578  -0.201602   0.009511  -0.230580   0.009344
  9  N   -0.132450   0.332672   0.235982  -0.058550  -0.043624   0.004973
              7          8          9
  1  N   -0.038908   0.519668  -0.132450
  2  H   -0.000031  -0.019578   0.332672
  3  C    0.003307  -0.201602   0.235982
  4  H   -0.000025   0.009511  -0.058550
  5  C    0.007147  -0.230580  -0.043624
  6  H   -0.000029   0.009344   0.004973
  7  H    0.505014   0.392718  -0.068202
  8  C    0.392718   4.972587   0.231698
  9  N   -0.068202   0.231698   7.237601
 Total atomic charges:
              1
  1  N   -0.523480
  2  H    0.299650
  3  C    0.115110
  4  H    0.182801
  5  C   -0.013268
  6  H    0.164044
  7  H    0.199008
  8  C    0.316234
  9  N   -0.740100
 Sum of Mulliken charges=   0.00000
 Atomic charges with hydrogens summed into heavy atoms:
              1
  1  N   -0.523480
  2  H    0.000000
  3  C    0.297911
  4  H    0.000000
  5  C    0.150776
  6  H    0.000000
  7  H    0.000000
  8  C    0.515243
  9  N   -0.440450
 Sum of Mulliken charges=   0.00000
 Electronic spatial extent (au):  <R**2>=   258.5362
 Charge=     0.0000 electrons
 Dipole moment (Debye):
    X=     1.1189    Y=     3.6920    Z=     0.0000  Tot=     3.8578
 Quadrupole moment (Debye-Ang):
   XX=   -26.9846   YY=   -25.5452   ZZ=   -30.2684
   XY=    -2.8922   XZ=     0.0000   YZ=     0.0000
 Octapole moment (Debye-Ang**2):
  XXX=     0.2084  YYY=    14.9770  ZZZ=     0.0000  XYY=     4.2637
  XXY=     4.6192  XXZ=     0.0000  XZZ=    -0.8502  YZZ=     1.0584
  YYZ=     0.0000  XYZ=     0.0000
 Hexadecapole moment (Debye-Ang**3):
 XXXX=  -137.4865 YYYY=  -124.9361 ZZZZ=   -27.6071 XXXY=    -1.4712
 XXXZ=     0.0000 YYYX=    -5.3357 YYYZ=     0.0000 ZZZX=     0.0000
 ZZZY=     0.0000 XXYY=   -50.1725 XXZZ=   -32.5328 YYZZ=   -30.2454
 XXYZ=     0.0000 YYXZ=     0.0000 ZZXY=     1.0924
 N-N= 1.735664837334D+02 E-N=-8.712275881443D+02  KE= 2.249576176257D+02
 Symmetry A'   KE= 2.166427088346D+02
 Symmetry A"   KE= 8.314908791100D+00
 ***** Axes restored to original set *****
 -------------------------------------------------------------------
 Center     Atomic                   Forces (Hartrees/Bohr)
 Number     Number              X              Y              Z
 -------------------------------------------------------------------
    1          7           0.091060359    0.000000000    0.111167631
    2          1           0.020075031    0.000000000   -0.088176432
    3          6          -0.105224889    0.000000000    0.006447507
    4          1          -0.070095397    0.000000000   -0.049432468
    5          6          -0.058225975    0.000000000    0.003899427
    6          1          -0.060406227    0.000000000    0.059081522
    7          1           0.084756656    0.000000000   -0.010981471
    8          6           0.063551176    0.000000000    0.040515780
    9          7           0.034509266    0.000000000   -0.072521496
 -------------------------------------------------------------------
 Cartesian Forces:  Max     0.111167631 RMS     0.053499370

 GradGradGradGradGradGradGradGradGradGradGradGradGradGradGradGradGradGrad
 Berny optimization.
 Internal  Forces:  Max     0.160483693 RMS     0.055451565
 Search for a local minimum.
 Step number   1 out of a maximum of  48
 All quantities printed in internal units (Hartrees-Bohrs-Radians)
 Second derivative matrix not updated -- first step.
     Eigenvalues ---    0.03211   0.03261   0.03288   0.03318   0.03352
     Eigenvalues ---    0.03407   0.16000   0.16000   0.16000   0.16000
     Eigenvalues ---    0.22000   0.22917   0.49193   0.49594   0.49613
     Eigenvalues ---    0.54578   0.60577   0.63413   0.68379   0.73836
     Eigenvalues ---    0.765081000.000001000.000001000.000001000.00000
     Eigenvalues --- 1000.000001000.000001000.000001000.000001000.00000
     Eigenvalues --- 1000.000001000.000001000.000001000.000001000.00000
     Eigenvalues --- 1000.000001000.000001000.00000
 RFO step:  Lambda=-1.44634177D-01.
 Linear search not attempted -- first point.
 Maximum step size (   0.300) exceeded in Quadratic search.
    -- Step size scaled by   0.700
 Iteration  1 RMS(Cart)=  0.06701278 RMS(Int)=  0.00030425
 Iteration  2 RMS(Cart)=  0.00034761 RMS(Int)=  0.00006851
 Iteration  3 RMS(Cart)=  0.00000012 RMS(Int)=  0.00006851
 Variable       Old X    -DE/DX   Delta X   Delta X   Delta X     New X
                                 (Linear)    (Quad)   (Total)
    R1        2.40969   0.14749   0.00000   0.11358   0.11352   2.52321
    R2        2.42167   0.09149   0.00000   0.07256   0.07244   2.49411
    R3        1.77186   0.09043   0.00000   0.08432   0.08432   1.85618
    R4        1.86958   0.08552   0.00000   0.09338   0.09338   1.96296
    R5        2.49323   0.10046   0.00000   0.09130   0.09138   2.58462
    R6        2.38988   0.16048   0.00000   0.12336   0.12347   2.51335
    R7        1.87388   0.08440   0.00000   0.09277   0.09277   1.96665
    R8        1.86977   0.08543   0.00000   0.09332   0.09332   1.96309
    R9        2.41548   0.14250   0.00000   0.11488   0.11486   2.53034
    A1        1.85787   0.00938   0.00000   0.00807   0.00785   1.86572
    A2        2.20999   0.01299   0.00000   0.02513   0.02503   2.23502
    A3        2.20602   0.00065   0.00000  -0.00322  -0.00332   2.20270
    A4        1.86717  -0.01364   0.00000  -0.02191  -0.02172   1.84546
    A5        1.89521   0.00865   0.00000   0.01162   0.01166   1.90687
    A6        2.19177  -0.00804   0.00000  -0.01433  -0.01435   2.17742
    A7        2.19620  -0.00062   0.00000   0.00271   0.00269   2.19889
    A8        2.18150   0.00528   0.00000   0.00988   0.00994   2.19144
    A9        1.91767  -0.00615   0.00000  -0.00964  -0.00974   1.90792
   A10        2.18402   0.00087   0.00000  -0.00025  -0.00019   2.18382
   A11        2.20124  -0.00153   0.00000  -0.00743  -0.00748   2.19376
   A12        2.19509  -0.00022   0.00000  -0.00442  -0.00447   2.19062
   A13        1.88685   0.00175   0.00000   0.01185   0.01195   1.89881
    D1        0.00000   0.00000   0.00000   0.00000   0.00000   0.00000
    D2        3.14159   0.00000   0.00000   0.00000   0.00000   3.14159
    D3        3.14159   0.00000   0.00000   0.00000   0.00000   3.14159
    D4        0.00000   0.00000   0.00000   0.00000   0.00000   0.00000
    D5        3.14159   0.00000   0.00000   0.00000   0.00000   3.14159
    D6        0.00000   0.00000   0.00000   0.00000   0.00000   0.00000
    D7        0.00000   0.00000   0.00000   0.00000   0.00000   0.00000
    D8        3.14159   0.00000   0.00000   0.00000   0.00000   3.14159
    D9        0.00000   0.00000   0.00000   0.00000   0.00000   0.00000
   D10        3.14159   0.00000   0.00000   0.00000   0.00000   3.14159
   D11        3.14159   0.00000   0.00000   0.00000   0.00000   3.14159
   D12        0.00000   0.00000   0.00000   0.00000   0.00000   0.00000
   D13        3.14159   0.00000   0.00000   0.00000   0.00000   3.14159
   D14        0.00000   0.00000   0.00000   0.00000   0.00000   0.00000
   D15        0.00000   0.00000   0.00000   0.00000   0.00000   0.00000
   D16        3.14159   0.00000   0.00000   0.00000   0.00000   3.14159
         Item               Value     Threshold  Converged?
 Maximum Force            0.160484     0.000450     NO 
 RMS     Force            0.055452     0.000300     NO 
 Maximum Displacement     0.197073     0.001800     NO 
 RMS     Displacement     0.066999     0.001200     NO 
 Predicted change in Energy=-2.889740D-02
 GradGradGradGradGradGradGradGradGradGradGradGradGradGradGradGradGradGrad

                          Input orientation:                          
 ---------------------------------------------------------------------
 Center     Atomic     Atomic              Coordinates (Angstroms)
 Number     Number      Type              X           Y           Z
 ---------------------------------------------------------------------
    1          7             0        0.475579    0.000000    1.111953
    2          1             0        0.473528    0.000000   -2.000391
    3          6             0       -0.983973    0.000000   -0.539621
    4          1             0       -1.869916    0.000000   -1.081944
    5          6             0       -0.827128    0.000000    0.819075
    6          1             0       -1.593533    0.000000    1.523133
    7          1             0        2.160016    0.000000   -0.144421
    8          6             0        1.126868    0.000000   -0.035985
    9          7             0        0.246371    0.000000   -1.044769
 ---------------------------------------------------------------------
                    Distance matrix (angstroms):
                    1          2          3          4          5
     1  N    0.000000
     2  H    3.112345   0.000000
     3  C    2.204085   2.063530   0.000000
     4  H    3.211624   2.516997   1.038754   0.000000
     5  C    1.335224   3.105012   1.367720   2.168244   0.000000
     6  H    2.109572   4.085091   2.150935   2.619698   1.040708
     7  H    2.101381   2.507762   3.168730   4.137548   3.138686
     8  C    1.319825   2.070205   2.170092   3.174074   2.132892
     9  N    2.168867   0.982250   1.330008   2.116614   2.150887
                    6          7          8          9
     6  H    0.000000
     7  H    4.107294   0.000000
     8  C    3.135511   1.038823   0.000000
     9  N    3.159014   2.114867   1.339000   0.000000
 Stoichiometry    C3H4N2
 Framework group  CS[SG(C3H4N2)]
 Deg. of freedom   15
 Full point group                 CS      NOp   2
 Largest Abelian subgroup         CS      NOp   2
 Largest concise Abelian subgroup C1      NOp   1
                         Standard orientation:                         
 ---------------------------------------------------------------------
 Center     Atomic     Atomic              Coordinates (Angstroms)
 Number     Number      Type              X           Y           Z
 ---------------------------------------------------------------------
    1          7             0       -0.709269   -0.970785    0.000000
    2          1             0       -0.005993    2.061062    0.000000
    3          6             0        1.084884    0.309450    0.000000
    4          1             0        2.070242    0.638205    0.000000
    5          6             0        0.625930   -0.978966    0.000000
    6          1             0        1.213987   -1.837606    0.000000
    7          1             0       -2.067302    0.632820    0.000000
    8          6             0       -1.085155    0.294382    0.000000
    9          7             0        0.000000    1.078831    0.000000
 ---------------------------------------------------------------------
 Rotational constants (GHZ):     10.0948221      9.7793473      4.9672904
 Isotopes: N-14,H-1,C-12,H-1,C-12,H-1,H-1,C-12,N-14
 Standard basis: 3-21G* (6D, 7F)
 There are    43 symmetry adapted basis functions of A'  symmetry.
 There are    10 symmetry adapted basis functions of A"  symmetry.
 Crude estimate of integral set expansion from redundant integrals=1.000.
 Integral buffers will be    131072 words long.
 Raffenetti 2 integral format.
 Two-electron integral symmetry is turned on.
    53 basis functions       87 primitive gaussians
    18 alpha electrons       18 beta electrons
       nuclear repulsion energy       166.3486181808 Hartrees.
 One-electron integrals computed using PRISM.
 NBasis=    53 RedAO= T  NBF=    43    10
 NBsUse=    53 1.00D-04 NBFU=    43    10
 Initial guess read from the read-write file:
 Initial guess orbital symmetries:
       Occupied  (A') (A') (A') (A') (A') (A') (A') (A') (A') (A')
                 (A') (A") (A') (A') (A') (A") (A") (A')
       Virtual   (A") (A") (A') (A') (A') (A') (A') (A') (A') (A')
                 (A') (A") (A') (A') (A") (A') (A") (A') (A') (A')
                 (A') (A') (A") (A') (A") (A') (A') (A') (A') (A')
                 (A') (A') (A') (A') (A')
 Requested convergence on RMS density matrix=1.00D-08 within  64 cycles.
 Requested convergence on MAX density matrix=1.00D-06.
 Keep R1 and R2 integrals in memory in canonical form, NReq=     2863891.
 Integral accuracy reduced to 1.0D-05 until final iterations.
 Initial convergence to 1.0D-05 achieved.  Increase integral accuracy.
 SCF Done:  E(RB-LYP) =  -224.859775664     A.U. after   15 cycles
             Convg  =    0.1893D-08             -V/T =  2.0049
             S**2   =   0.0000
 ***** Axes restored to original set *****
 -------------------------------------------------------------------
 Center     Atomic                   Forces (Hartrees/Bohr)
 Number     Number              X              Y              Z
 -------------------------------------------------------------------
    1          7           0.043340143    0.000000000    0.050342990
    2          1           0.007468280    0.000000000   -0.036290739
    3          6          -0.043979428    0.000000000    0.015331295
    4          1          -0.026113612    0.000000000   -0.022955231
    5          6          -0.025799631    0.000000000   -0.010670886
    6          1          -0.022271622    0.000000000    0.025633746
    7          1           0.033612425    0.000000000   -0.005870624
    8          6           0.015399531    0.000000000    0.022167731
    9          7           0.018343913    0.000000000   -0.037688282
 -------------------------------------------------------------------
 Cartesian Forces:  Max     0.050342990 RMS     0.023369814

 GradGradGradGradGradGradGradGradGradGradGradGradGradGradGradGradGradGrad
 Berny optimization.
 Internal  Forces:  Max     0.065178070 RMS     0.022290221
 Search for a local minimum.
 Step number   2 out of a maximum of  48
 All quantities printed in internal units (Hartrees-Bohrs-Radians)
 Update second derivatives using information from points  1  2
 Trust test= 2.39D+00 RLast= 3.00D-01 DXMaxT set to 4.24D-01
     Eigenvalues ---    0.03210   0.03262   0.03288   0.03315   0.03352
     Eigenvalues ---    0.03406   0.15943   0.16000   0.16000   0.16000
     Eigenvalues ---    0.22156   0.22848   0.49308   0.49604   0.51032
     Eigenvalues ---    0.55711   0.60836   0.64005   0.70038   0.73190
     Eigenvalues ---    0.761611000.000001000.000001000.000001000.00000
     Eigenvalues --- 1000.000001000.000001000.000001000.000001000.00000
     Eigenvalues --- 1000.000001000.000001000.000001000.000001000.00000
     Eigenvalues --- 1000.000001000.000001000.00000
 RFO step:  Lambda=-3.37929773D-03.
 Quartic linear search produced a step of  0.92045.
 Iteration  1 RMS(Cart)=  0.06315299 RMS(Int)=  0.00108441
 Iteration  2 RMS(Cart)=  0.00132687 RMS(Int)=  0.00009164
 Iteration  3 RMS(Cart)=  0.00000171 RMS(Int)=  0.00009163
 Iteration  4 RMS(Cart)=  0.00000000 RMS(Int)=  0.00009163
 Variable       Old X    -DE/DX   Delta X   Delta X   Delta X     New X
                                 (Linear)    (Quad)   (Total)
    R1        2.52321   0.06154   0.10449   0.00551   0.10985   2.63306
    R2        2.49411   0.03446   0.06667  -0.00540   0.06117   2.55528
    R3        1.85618   0.03703   0.07761   0.00625   0.08387   1.94005
    R4        1.96296   0.03426   0.08595   0.00891   0.09487   2.05783
    R5        2.58462   0.03540   0.08412  -0.01197   0.07214   2.65676
    R6        2.51335   0.06518   0.11365   0.00163   0.11543   2.62878
    R7        1.96665   0.03374   0.08539   0.00882   0.09421   2.06087
    R8        1.96309   0.03404   0.08589   0.00822   0.09412   2.05721
    R9        2.53034   0.05768   0.10573   0.00262   0.10843   2.63878
    A1        1.86572  -0.00203   0.00722  -0.04504  -0.03813   1.82759
    A2        2.23502   0.00764   0.02304   0.04654   0.06949   2.30452
    A3        2.20270  -0.00404  -0.00305  -0.05195  -0.05509   2.14761
    A4        1.84546  -0.00360  -0.01999   0.00541  -0.01440   1.83105
    A5        1.90687   0.00640   0.01073   0.02599   0.03661   1.94348
    A6        2.17742  -0.00695  -0.01321  -0.04537  -0.05853   2.11890
    A7        2.19889   0.00054   0.00248   0.01939   0.02192   2.22081
    A8        2.19144   0.00063   0.00915  -0.00334   0.00580   2.19724
    A9        1.90792   0.00330  -0.00897   0.04656   0.03760   1.94552
   A10        2.18382  -0.00394  -0.00018  -0.04322  -0.04340   2.14042
   A11        2.19376   0.00099  -0.00689   0.00625  -0.00077   2.19299
   A12        2.19062   0.00308  -0.00411   0.02668   0.02244   2.21306
   A13        1.89881  -0.00407   0.01100  -0.03292  -0.02167   1.87713
    D1        0.00000   0.00000   0.00000   0.00000   0.00000   0.00000
    D2        3.14159   0.00000   0.00000   0.00000   0.00000   3.14159
    D3        3.14159   0.00000   0.00000   0.00000   0.00000   3.14159
    D4        0.00000   0.00000   0.00000   0.00000   0.00000   0.00000
    D5        3.14159   0.00000   0.00000   0.00000   0.00000   3.14159
    D6        0.00000   0.00000   0.00000   0.00000   0.00000   0.00000
    D7        0.00000   0.00000   0.00000   0.00000   0.00000   0.00000
    D8        3.14159   0.00000   0.00000   0.00000   0.00000   3.14159
    D9        0.00000   0.00000   0.00000   0.00000   0.00000   0.00000
   D10        3.14159   0.00000   0.00000   0.00000   0.00000   3.14159
   D11        3.14159   0.00000   0.00000   0.00000   0.00000   3.14159
   D12        0.00000   0.00000   0.00000   0.00000   0.00000   0.00000
   D13        3.14159   0.00000   0.00000   0.00000   0.00000   3.14159
   D14        0.00000   0.00000   0.00000   0.00000   0.00000   0.00000
   D15        0.00000   0.00000   0.00000   0.00000   0.00000   0.00000
   D16        3.14159   0.00000   0.00000   0.00000   0.00000   3.14159
         Item               Value     Threshold  Converged?
 Maximum Force            0.065178     0.000450     NO 
 RMS     Force            0.022290     0.000300     NO 
 Maximum Displacement     0.169851     0.001800     NO 
 RMS     Displacement     0.062963     0.001200     NO 
 Predicted change in Energy=-2.742134D-02
 GradGradGradGradGradGradGradGradGradGradGradGradGradGradGradGradGradGrad

                          Input orientation:                          
 ---------------------------------------------------------------------
 Center     Atomic     Atomic              Coordinates (Angstroms)
 Number     Number      Type              X           Y           Z
 ---------------------------------------------------------------------
    1          7             0        0.502554    0.000000    1.172240
    2          1             0        0.486731    0.000000   -2.084957
    3          6             0       -1.034095    0.000000   -0.554962
    4          1             0       -1.931223    0.000000   -1.172203
    5          6             0       -0.850333    0.000000    0.838873
    6          1             0       -1.624788    0.000000    1.606696
    7          1             0        2.228632    0.000000   -0.154495
    8          6             0        1.148919    0.000000   -0.015468
    9          7             0        0.251827    0.000000   -1.085564
 ---------------------------------------------------------------------
                    Distance matrix (angstroms):
                    1          2          3          4          5
     1  N    0.000000
     2  H    3.257235   0.000000
     3  C    2.311821   2.157266   0.000000
     4  H    3.379302   2.584497   1.088956   0.000000
     5  C    1.393354   3.215047   1.405896   2.283145   0.000000
     6  H    2.171251   4.252860   2.240911   2.795743   1.090565
     7  H    2.177055   2.600174   3.287212   4.282537   3.235244
     8  C    1.352197   2.172851   2.248690   3.290184   2.174146
     9  N    2.271682   1.026629   1.391091   2.184769   2.217705
                    6          7          8          9
     6  H    0.000000
     7  H    4.236819   0.000000
     8  C    3.213233   1.088626   0.000000
     9  N    3.281759   2.185096   1.396381   0.000000
 Stoichiometry    C3H4N2
 Framework group  CS[SG(C3H4N2)]
 Deg. of freedom   15
 Full point group                 CS      NOp   2
 Largest Abelian subgroup         CS      NOp   2
 Largest concise Abelian subgroup C1      NOp   1
                         Standard orientation:                         
 ---------------------------------------------------------------------
 Center     Atomic     Atomic              Coordinates (Angstroms)
 Number     Number      Type              X           Y           Z
 ---------------------------------------------------------------------
    1          7             0       -0.748132   -1.019571    0.000000
    2          1             0       -0.006014    2.151998    0.000000
    3          6             0        1.135131    0.321264    0.000000
    4          1             0        2.147355    0.722794    0.000000
    5          6             0        0.645030   -0.996441    0.000000
    6          1             0        1.228660   -1.917695    0.000000
    7          1             0       -2.134704    0.658818    0.000000
    8          6             0       -1.113223    0.282407    0.000000
    9          7             0        0.000000    1.125386    0.000000
 ---------------------------------------------------------------------
 Rotational constants (GHZ):      9.4960903      8.9630546      4.6109382
 Isotopes: N-14,H-1,C-12,H-1,C-12,H-1,H-1,C-12,N-14
 Standard basis: 3-21G* (6D, 7F)
 There are    43 symmetry adapted basis functions of A'  symmetry.
 There are    10 symmetry adapted basis functions of A"  symmetry.
 Crude estimate of integral set expansion from redundant integrals=1.000.
 Integral buffers will be    131072 words long.
 Raffenetti 2 integral format.
 Two-electron integral symmetry is turned on.
    53 basis functions       87 primitive gaussians
    18 alpha electrons       18 beta electrons
       nuclear repulsion energy       160.2265140435 Hartrees.
 One-electron integrals computed using PRISM.
 NBasis=    53 RedAO= T  NBF=    43    10
 NBsUse=    53 1.00D-04 NBFU=    43    10
 Initial guess read from the read-write file:
 Initial guess orbital symmetries:
       Occupied  (A') (A') (A') (A') (A') (A') (A') (A') (A') (A')
                 (A') (A') (A") (A') (A') (A") (A") (A')
       Virtual   (A") (A") (A') (A') (A') (A') (A') (A') (A') (A')
                 (A') (A") (A') (A') (A') (A") (A") (A') (A') (A')
                 (A') (A') (A') (A") (A") (A') (A') (A') (A') (A')
                 (A') (A') (A') (A') (A')
 Requested convergence on RMS density matrix=1.00D-08 within  64 cycles.
 Requested convergence on MAX density matrix=1.00D-06.
 Keep R1 and R2 integrals in memory in canonical form, NReq=     2863891.
 Integral accuracy reduced to 1.0D-05 until final iterations.
 Initial convergence to 1.0D-05 achieved.  Increase integral accuracy.
 SCF Done:  E(RB-LYP) =  -224.878199781     A.U. after   15 cycles
             Convg  =    0.2120D-08             -V/T =  2.0090
             S**2   =   0.0000
 ***** Axes restored to original set *****
 -------------------------------------------------------------------
 Center     Atomic                   Forces (Hartrees/Bohr)
 Number     Number              X              Y              Z
 -------------------------------------------------------------------
    1          7           0.009952594    0.000000000   -0.007480554
    2          1          -0.000445092    0.000000000    0.003882844
    3          6          -0.009944046    0.000000000    0.013970957
    4          1           0.003913403    0.000000000    0.002731683
    5          6          -0.020214260    0.000000000   -0.007233448
    6          1           0.003162614    0.000000000   -0.003432966
    7          1          -0.003876162    0.000000000    0.000238588
    8          6           0.008928190    0.000000000    0.003190556
    9          7           0.008522760    0.000000000   -0.005867658
 -------------------------------------------------------------------
 Cartesian Forces:  Max     0.020214260 RMS     0.006616206

 GradGradGradGradGradGradGradGradGradGradGradGradGradGradGradGradGradGrad
 Berny optimization.
 Internal  Forces:  Max     0.012576773 RMS     0.004030405
 Search for a local minimum.
 Step number   3 out of a maximum of  48
 All quantities printed in internal units (Hartrees-Bohrs-Radians)
 Update second derivatives using information from points  2  3
 Trust test= 6.72D-01 RLast= 3.15D-01 DXMaxT set to 4.24D-01
     Eigenvalues ---    0.03205   0.03261   0.03287   0.03305   0.03349
     Eigenvalues ---    0.03403   0.15637   0.16000   0.16000   0.16005
     Eigenvalues ---    0.22173   0.23905   0.44918   0.49327   0.49608
     Eigenvalues ---    0.56216   0.57280   0.63244   0.64950   0.71927
     Eigenvalues ---    0.747251000.000001000.000001000.000001000.00000
     Eigenvalues --- 1000.000001000.000001000.000001000.000001000.00000
     Eigenvalues --- 1000.000001000.000001000.000001000.000001000.00000
     Eigenvalues --- 1000.000001000.000001000.00000
 RFO step:  Lambda=-1.12807474D-03.
 Quartic linear search produced a step of -0.02725.
 Iteration  1 RMS(Cart)=  0.00901263 RMS(Int)=  0.00004432
 Iteration  2 RMS(Cart)=  0.00004144 RMS(Int)=  0.00000609
 Iteration  3 RMS(Cart)=  0.00000000 RMS(Int)=  0.00000609
 Variable       Old X    -DE/DX   Delta X   Delta X   Delta X     New X
                                 (Linear)    (Quad)   (Total)
    R1        2.63306   0.01183  -0.00299   0.02007   0.01708   2.65014
    R2        2.55528  -0.00408  -0.00167  -0.00277  -0.00444   2.55085
    R3        1.94005  -0.00388  -0.00228  -0.00270  -0.00499   1.93506
    R4        2.05783  -0.00477  -0.00258  -0.00548  -0.00806   2.04977
    R5        2.65676  -0.01258  -0.00197  -0.01682  -0.01878   2.63798
    R6        2.62878   0.01151  -0.00315   0.01931   0.01616   2.64494
    R7        2.06087  -0.00466  -0.00257  -0.00537  -0.00794   2.05293
    R8        2.05721  -0.00387  -0.00256  -0.00376  -0.00632   2.05089
    R9        2.63878  -0.00043  -0.00295   0.00422   0.00125   2.64003
    A1        1.82759   0.00570   0.00104   0.02125   0.02230   1.84989
    A2        2.30452  -0.00079  -0.00189  -0.00129  -0.00318   2.30134
    A3        2.14761  -0.00072   0.00150  -0.00513  -0.00363   2.14398
    A4        1.83105   0.00151   0.00039   0.00642   0.00682   1.83787
    A5        1.94348  -0.00375  -0.00100  -0.01516  -0.01614   1.92734
    A6        2.11890   0.00209   0.00159   0.00752   0.00910   2.12800
    A7        2.22081   0.00165  -0.00060   0.00764   0.00703   2.22785
    A8        2.19724   0.00268  -0.00016   0.01169   0.01154   2.20878
    A9        1.94552  -0.00482  -0.00102  -0.01848  -0.01952   1.92600
   A10        2.14042   0.00214   0.00118   0.00680   0.00798   2.14840
   A11        2.19299  -0.00024   0.00002  -0.00073  -0.00070   2.19230
   A12        2.21306  -0.00112  -0.00061  -0.00524  -0.00585   2.20721
   A13        1.87713   0.00136   0.00059   0.00597   0.00654   1.88368
    D1        0.00000   0.00000   0.00000   0.00000   0.00000   0.00000
    D2        3.14159   0.00000   0.00000   0.00000   0.00000   3.14159
    D3        3.14159   0.00000   0.00000   0.00000   0.00000   3.14159
    D4        0.00000   0.00000   0.00000   0.00000   0.00000   0.00000
    D5        3.14159   0.00000   0.00000   0.00000   0.00000   3.14159
    D6        0.00000   0.00000   0.00000   0.00000   0.00000   0.00000
    D7        0.00000   0.00000   0.00000   0.00000   0.00000   0.00000
    D8        3.14159   0.00000   0.00000   0.00000   0.00000   3.14159
    D9        0.00000   0.00000   0.00000   0.00000   0.00000   0.00000
   D10        3.14159   0.00000   0.00000   0.00000   0.00000   3.14159
   D11        3.14159   0.00000   0.00000   0.00000   0.00000   3.14159
   D12        0.00000   0.00000   0.00000   0.00000   0.00000   0.00000
   D13        3.14159   0.00000   0.00000   0.00000   0.00000   3.14159
   D14        0.00000   0.00000   0.00000   0.00000   0.00000   0.00000
   D15        0.00000   0.00000   0.00000   0.00000   0.00000   0.00000
   D16        3.14159   0.00000   0.00000   0.00000   0.00000   3.14159
         Item               Value     Threshold  Converged?
 Maximum Force            0.012577     0.000450     NO 
 RMS     Force            0.004030     0.000300     NO 
 Maximum Displacement     0.025128     0.001800     NO 
 RMS     Displacement     0.009012     0.001200     NO 
 Predicted change in Energy=-5.777024D-04
 GradGradGradGradGradGradGradGradGradGradGradGradGradGradGradGradGradGrad

                          Input orientation:                          
 ---------------------------------------------------------------------
 Center     Atomic     Atomic              Coordinates (Angstroms)
 Number     Number      Type              X           Y           Z
 ---------------------------------------------------------------------
    1          7             0        0.501134    0.000000    1.147486
    2          1             0        0.486843    0.000000   -2.091368
    3          6             0       -1.038715    0.000000   -0.558646
    4          1             0       -1.930846    0.000000   -1.175619
    5          6             0       -0.863993    0.000000    0.826337
    6          1             0       -1.634359    0.000000    1.592314
    7          1             0        2.236692    0.000000   -0.168863
    8          6             0        1.160267    0.000000   -0.030495
    9          7             0        0.254459    0.000000   -1.094094
 ---------------------------------------------------------------------
                    Distance matrix (angstroms):
                    1          2          3          4          5
     1  N    0.000000
     2  H    3.238886   0.000000
     3  C    2.298265   2.162537   0.000000
     4  H    3.363234   2.585308   1.084691   0.000000
     5  C    1.402394   3.215239   1.395960   2.268480   0.000000
     6  H    2.181331   4.250767   2.231910   2.783767   1.086364
     7  H    2.178287   2.599615   3.298518   4.287415   3.256481
     8  C    1.349850   2.168110   2.261518   3.296405   2.198133
     9  N    2.255112   1.023991   1.399644   2.186825   2.222384
                    6          7          8          9
     6  H    0.000000
     7  H    4.252856   0.000000
     8  C    3.231632   1.085282   0.000000
     9  N    3.283965   2.187533   1.397044   0.000000
 Stoichiometry    C3H4N2
 Framework group  CS[SG(C3H4N2)]
 Deg. of freedom   15
 Full point group                 CS      NOp   2
 Largest Abelian subgroup         CS      NOp   2
 Largest concise Abelian subgroup C1      NOp   1
                         Standard orientation:                         
 ---------------------------------------------------------------------
 Center     Atomic     Atomic              Coordinates (Angstroms)
 Number     Number      Type              X           Y           Z
 ---------------------------------------------------------------------
    1          7             0       -0.748970   -1.005026    0.000000
    2          1             0        0.000013    2.146070    0.000000
    3          6             0        1.137909    0.307114    0.000000
    4          1             0        2.146784    0.705517    0.000000
    5          6             0        0.653422   -1.002075    0.000000
    6          1             0        1.229846   -1.922902    0.000000
    7          1             0       -2.140491    0.670862    0.000000
    8          6             0       -1.123558    0.291808    0.000000
    9          7             0        0.000000    1.122079    0.000000
 ---------------------------------------------------------------------
 Rotational constants (GHZ):      9.3401517      9.0917995      4.6071512
 Isotopes: N-14,H-1,C-12,H-1,C-12,H-1,H-1,C-12,N-14
 Standard basis: 3-21G* (6D, 7F)
 There are    43 symmetry adapted basis functions of A'  symmetry.
 There are    10 symmetry adapted basis functions of A"  symmetry.
 Crude estimate of integral set expansion from redundant integrals=1.000.
 Integral buffers will be    131072 words long.
 Raffenetti 2 integral format.
 Two-electron integral symmetry is turned on.
    53 basis functions       87 primitive gaussians
    18 alpha electrons       18 beta electrons
       nuclear repulsion energy       160.1562761795 Hartrees.
 One-electron integrals computed using PRISM.
 NBasis=    53 RedAO= T  NBF=    43    10
 NBsUse=    53 1.00D-04 NBFU=    43    10
 Initial guess read from the read-write file:
 Initial guess orbital symmetries:
       Occupied  (A') (A') (A') (A') (A') (A') (A') (A') (A') (A')
                 (A') (A') (A') (A") (A') (A") (A') (A")
       Virtual   (A") (A") (A') (A') (A') (A') (A') (A') (A') (A')
                 (A') (A') (A") (A') (A') (A") (A") (A') (A') (A')
                 (A') (A') (A') (A") (A") (A') (A') (A') (A') (A')
                 (A') (A') (A') (A') (A')
 Requested convergence on RMS density matrix=1.00D-08 within  64 cycles.
 Requested convergence on MAX density matrix=1.00D-06.
 Keep R1 and R2 integrals in memory in canonical form, NReq=     2863891.
 Integral accuracy reduced to 1.0D-05 until final iterations.
 Initial convergence to 1.0D-05 achieved.  Increase integral accuracy.
 SCF Done:  E(RB-LYP) =  -224.878803998     A.U. after   14 cycles
             Convg  =    0.1832D-08             -V/T =  2.0090
             S**2   =   0.0000
 ***** Axes restored to original set *****
 -------------------------------------------------------------------
 Center     Atomic                   Forces (Hartrees/Bohr)
 Number     Number              X              Y              Z
 -------------------------------------------------------------------
    1          7           0.009252824    0.000000000    0.001242588
    2          1          -0.000842499    0.000000000    0.001242870
    3          6          -0.003902772    0.000000000    0.007076642
    4          1           0.001763397    0.000000000    0.000426652
    5          6          -0.006098631    0.000000000   -0.007718870
    6          1           0.002144678    0.000000000   -0.001095311
    7          1          -0.001918014    0.000000000    0.000261547
    8          6          -0.005194057    0.000000000    0.004788299
    9          7           0.004795074    0.000000000   -0.006224418
 -------------------------------------------------------------------
 Cartesian Forces:  Max     0.009252824 RMS     0.003731638

 GradGradGradGradGradGradGradGradGradGradGradGradGradGradGradGradGradGrad
 Berny optimization.
 Internal  Forces:  Max     0.005174506 RMS     0.001879272
 Search for a local minimum.
 Step number   4 out of a maximum of  48
 All quantities printed in internal units (Hartrees-Bohrs-Radians)
 Update second derivatives using information from points  1  2  3  4
 Trust test= 1.05D+00 RLast= 5.23D-02 DXMaxT set to 4.24D-01
     Eigenvalues ---    0.03205   0.03262   0.03287   0.03305   0.03350
     Eigenvalues ---    0.03404   0.15410   0.15999   0.16000   0.16049
     Eigenvalues ---    0.21706   0.35492   0.39913   0.46849   0.49397
     Eigenvalues ---    0.49672   0.57057   0.59567   0.64562   0.66946
     Eigenvalues ---    0.772261000.000001000.000001000.000001000.00000
     Eigenvalues --- 1000.000001000.000001000.000001000.000001000.00000
     Eigenvalues --- 1000.000001000.000001000.000001000.000001000.00000
     Eigenvalues --- 1000.000001000.000001000.00000
 RFO step:  Lambda=-3.49261648D-04.
 Quartic linear search produced a step of  0.05213.
 Iteration  1 RMS(Cart)=  0.00363865 RMS(Int)=  0.00000941
 Iteration  2 RMS(Cart)=  0.00000956 RMS(Int)=  0.00000576
 Iteration  3 RMS(Cart)=  0.00000000 RMS(Int)=  0.00000576
 Variable       Old X    -DE/DX   Delta X   Delta X   Delta X     New X
                                 (Linear)    (Quad)   (Total)
    R1        2.65014   0.00499   0.00089   0.01300   0.01388   2.66402
    R2        2.55085  -0.00444  -0.00023  -0.00671  -0.00693   2.54391
    R3        1.93506  -0.00140  -0.00026  -0.00242  -0.00268   1.93239
    R4        2.04977  -0.00169  -0.00042  -0.00412  -0.00454   2.04523
    R5        2.63798  -0.00517  -0.00098  -0.01207  -0.01306   2.62492
    R6        2.64494   0.00253   0.00084   0.00959   0.01043   2.65537
    R7        2.05293  -0.00229  -0.00041  -0.00541  -0.00582   2.04711
    R8        2.05089  -0.00194  -0.00033  -0.00419  -0.00451   2.04637
    R9        2.64003   0.00069   0.00007   0.00303   0.00310   2.64313
    A1        1.84989  -0.00304   0.00116  -0.00850  -0.00734   1.84255
    A2        2.30134   0.00064  -0.00017   0.00365   0.00349   2.30483
    A3        2.14398  -0.00070  -0.00019  -0.00588  -0.00606   2.13792
    A4        1.83787   0.00006   0.00036   0.00222   0.00257   1.84044
    A5        1.92734   0.00186  -0.00084   0.00454   0.00369   1.93103
    A6        2.12800  -0.00168   0.00047  -0.00712  -0.00664   2.12136
    A7        2.22785  -0.00018   0.00037   0.00258   0.00295   2.23080
    A8        2.20878  -0.00172   0.00060  -0.00459  -0.00400   2.20479
    A9        1.92600   0.00340  -0.00102   0.01006   0.00906   1.93506
   A10        2.14840  -0.00168   0.00042  -0.00547  -0.00506   2.14334
   A11        2.19230   0.00062  -0.00004   0.00140   0.00136   2.19365
   A12        2.20721   0.00166  -0.00030   0.00693   0.00662   2.21383
   A13        1.88368  -0.00227   0.00034  -0.00833  -0.00798   1.87570
    D1        0.00000   0.00000   0.00000   0.00000   0.00000   0.00000
    D2        3.14159   0.00000   0.00000   0.00000   0.00000   3.14159
    D3        3.14159   0.00000   0.00000   0.00000   0.00000   3.14159
    D4        0.00000   0.00000   0.00000   0.00000   0.00000   0.00000
    D5        3.14159   0.00000   0.00000   0.00000   0.00000   3.14159
    D6        0.00000   0.00000   0.00000   0.00000   0.00000   0.00000
    D7        0.00000   0.00000   0.00000   0.00000   0.00000   0.00000
    D8        3.14159   0.00000   0.00000   0.00000   0.00000   3.14159
    D9        0.00000   0.00000   0.00000   0.00000   0.00000   0.00000
   D10        3.14159   0.00000   0.00000   0.00000   0.00000   3.14159
   D11        3.14159   0.00000   0.00000   0.00000   0.00000   3.14159
   D12        0.00000   0.00000   0.00000   0.00000   0.00000   0.00000
   D13        3.14159   0.00000   0.00000   0.00000   0.00000   3.14159
   D14        0.00000   0.00000   0.00000   0.00000   0.00000   0.00000
   D15        0.00000   0.00000   0.00000   0.00000   0.00000   0.00000
   D16        3.14159   0.00000   0.00000   0.00000   0.00000   3.14159
         Item               Value     Threshold  Converged?
 Maximum Force            0.005175     0.000450     NO 
 RMS     Force            0.001879     0.000300     NO 
 Maximum Displacement     0.009096     0.001800     NO 
 RMS     Displacement     0.003642     0.001200     NO 
 Predicted change in Energy=-1.759366D-04
 GradGradGradGradGradGradGradGradGradGradGradGradGradGradGradGradGradGrad

                          Input orientation:                          
 ---------------------------------------------------------------------
 Center     Atomic     Atomic              Coordinates (Angstroms)
 Number     Number      Type              X           Y           Z
 ---------------------------------------------------------------------
    1          7             0        0.505825    0.000000    1.150832
    2          1             0        0.486407    0.000000   -2.092240
    3          6             0       -1.040281    0.000000   -0.554121
    4          1             0       -1.928707    0.000000   -1.172222
    5          6             0       -0.865478    0.000000    0.823883
    6          1             0       -1.630874    0.000000    1.590480
    7          1             0        2.232078    0.000000   -0.165213
    8          6             0        1.158069    0.000000   -0.026786
    9          7             0        0.256235    0.000000   -1.095906
 ---------------------------------------------------------------------
                    Distance matrix (angstroms):
                    1          2          3          4          5
     1  N    0.000000
     2  H    3.243130   0.000000
     3  C    2.301589   2.167161   0.000000
     4  H    3.365045   2.584417   1.082289   0.000000
     5  C    1.409740   3.214244   1.389047   2.261613   0.000000
     6  H    2.181462   4.247976   2.224435   2.778710   1.083283
     7  H    2.170696   2.600154   3.295388   4.280911   3.251640
     8  C    1.346182   2.171919   2.260714   3.292448   2.195081
     9  N    2.260559   1.022575   1.405164   2.186274   2.223473
                    6          7          8          9
     6  H    0.000000
     7  H    4.243213   0.000000
     8  C    3.223934   1.082893   0.000000
     9  N    3.282963   2.184066   1.398687   0.000000
 Stoichiometry    C3H4N2
 Framework group  CS[SG(C3H4N2)]
 Deg. of freedom   15
 Full point group                 CS      NOp   2
 Largest Abelian subgroup         CS      NOp   2
 Largest concise Abelian subgroup C1      NOp   1
                         Standard orientation:                         
 ---------------------------------------------------------------------
 Center     Atomic     Atomic              Coordinates (Angstroms)
 Number     Number      Type              X           Y           Z
 ---------------------------------------------------------------------
    1          7             0       -0.754146   -1.005552    0.000000
    2          1             0        0.002514    2.148075    0.000000
    3          6             0        1.139275    0.302984    0.000000
    4          1             0        2.145017    0.702776    0.000000
    5          6             0        0.655579   -0.999126    0.000000
    6          1             0        1.226519   -1.919740    0.000000
    7          1             0       -2.135759    0.668686    0.000000
    8          6             0       -1.121399    0.289567    0.000000
    9          7             0        0.000000    1.125502    0.000000
 ---------------------------------------------------------------------
 Rotational constants (GHZ):      9.3406443      9.0780827      4.6037460
 Isotopes: N-14,H-1,C-12,H-1,C-12,H-1,H-1,C-12,N-14
 Standard basis: 3-21G* (6D, 7F)
 There are    43 symmetry adapted basis functions of A'  symmetry.
 There are    10 symmetry adapted basis functions of A"  symmetry.
 Crude estimate of integral set expansion from redundant integrals=1.000.
 Integral buffers will be    131072 words long.
 Raffenetti 2 integral format.
 Two-electron integral symmetry is turned on.
    53 basis functions       87 primitive gaussians
    18 alpha electrons       18 beta electrons
       nuclear repulsion energy       160.1178050552 Hartrees.
 One-electron integrals computed using PRISM.
 NBasis=    53 RedAO= T  NBF=    43    10
 NBsUse=    53 1.00D-04 NBFU=    43    10
 Initial guess read from the read-write file:
 Initial guess orbital symmetries:
       Occupied  (A') (A') (A') (A') (A') (A') (A') (A') (A') (A')
                 (A') (A') (A') (A") (A') (A") (A') (A")
       Virtual   (A") (A") (A') (A') (A') (A') (A') (A') (A') (A')
                 (A') (A') (A") (A') (A') (A") (A") (A') (A') (A')
                 (A') (A') (A') (A") (A") (A') (A') (A') (A') (A')
                 (A') (A') (A') (A') (A')
 Requested convergence on RMS density matrix=1.00D-08 within  64 cycles.
 Requested convergence on MAX density matrix=1.00D-06.
 Keep R1 and R2 integrals in memory in canonical form, NReq=     2863891.
 SCF Done:  E(RB-LYP) =  -224.879043830     A.U. after   10 cycles
             Convg  =    0.6771D-08             -V/T =  2.0090
             S**2   =   0.0000
 ***** Axes restored to original set *****
 -------------------------------------------------------------------
 Center     Atomic                   Forces (Hartrees/Bohr)
 Number     Number              X              Y              Z
 -------------------------------------------------------------------
    1          7           0.004461564    0.000000000    0.000156484
    2          1          -0.000348965    0.000000000    0.000413436
    3          6          -0.000402718    0.000000000    0.002428071
    4          1           0.000164708    0.000000000   -0.000208051
    5          6          -0.002677608    0.000000000   -0.003334717
    6          1           0.000525181    0.000000000    0.000194198
    7          1          -0.000057932    0.000000000   -0.000024522
    8          6          -0.003663216    0.000000000    0.001820429
    9          7           0.001998985    0.000000000   -0.001445327
 -------------------------------------------------------------------
 Cartesian Forces:  Max     0.004461564 RMS     0.001584372

 GradGradGradGradGradGradGradGradGradGradGradGradGradGradGradGradGradGrad
 Berny optimization.
 Internal  Forces:  Max     0.002377608 RMS     0.000754076
 Search for a local minimum.
 Step number   5 out of a maximum of  48
 All quantities printed in internal units (Hartrees-Bohrs-Radians)
 Update second derivatives using information from points  2  3  4  5
 Trust test= 1.36D+00 RLast= 3.19D-02 DXMaxT set to 4.24D-01
     Eigenvalues ---    0.03205   0.03262   0.03287   0.03304   0.03350
     Eigenvalues ---    0.03403   0.14045   0.15970   0.16001   0.16028
     Eigenvalues ---    0.20624   0.27060   0.41891   0.46996   0.49425
     Eigenvalues ---    0.49670   0.57133   0.59176   0.65041   0.66516
     Eigenvalues ---    0.770761000.000001000.000001000.000001000.00000
     Eigenvalues --- 1000.000001000.000001000.000001000.000001000.00000
     Eigenvalues --- 1000.000001000.000001000.000001000.000001000.00000
     Eigenvalues --- 1000.000001000.000001000.00000
 RFO step:  Lambda=-1.47085717D-05.
 Quartic linear search produced a step of  0.56250.
 Iteration  1 RMS(Cart)=  0.00207661 RMS(Int)=  0.00000732
 Iteration  2 RMS(Cart)=  0.00000497 RMS(Int)=  0.00000593
 Iteration  3 RMS(Cart)=  0.00000000 RMS(Int)=  0.00000593
 Variable       Old X    -DE/DX   Delta X   Delta X   Delta X     New X
                                 (Linear)    (Quad)   (Total)
    R1        2.66402   0.00238   0.00781   0.00212   0.00992   2.67394
    R2        2.54391  -0.00226  -0.00390  -0.00163  -0.00552   2.53839
    R3        1.93239  -0.00048  -0.00150   0.00003  -0.00147   1.93091
    R4        2.04523  -0.00002  -0.00255   0.00176  -0.00080   2.04443
    R5        2.62492  -0.00170  -0.00735   0.00020  -0.00716   2.61776
    R6        2.65537   0.00046   0.00587  -0.00033   0.00554   2.66092
    R7        2.04711  -0.00023  -0.00327   0.00175  -0.00152   2.04558
    R8        2.04637  -0.00005  -0.00254   0.00194  -0.00060   2.04578
    R9        2.64313  -0.00048   0.00175  -0.00160   0.00016   2.64329
    A1        1.84255  -0.00130  -0.00413  -0.00057  -0.00469   1.83786
    A2        2.30483   0.00030   0.00196   0.00044   0.00241   2.30724
    A3        2.13792  -0.00025  -0.00341  -0.00055  -0.00395   2.13397
    A4        1.84044  -0.00005   0.00145   0.00011   0.00154   1.84198
    A5        1.93103   0.00040   0.00207  -0.00077   0.00128   1.93231
    A6        2.12136  -0.00072  -0.00374  -0.00211  -0.00584   2.11552
    A7        2.23080   0.00032   0.00166   0.00289   0.00455   2.23535
    A8        2.20479  -0.00077  -0.00225  -0.00018  -0.00243   2.20235
    A9        1.93506   0.00160   0.00509   0.00123   0.00634   1.94140
   A10        2.14334  -0.00083  -0.00285  -0.00105  -0.00391   2.13943
   A11        2.19365   0.00009   0.00076  -0.00048   0.00028   2.19393
   A12        2.21383   0.00056   0.00372   0.00047   0.00419   2.21802
   A13        1.87570  -0.00065  -0.00449   0.00001  -0.00447   1.87123
    D1        0.00000   0.00000   0.00000   0.00000   0.00000   0.00000
    D2        3.14159   0.00000   0.00000   0.00000   0.00000   3.14159
    D3        3.14159   0.00000   0.00000   0.00000   0.00000   3.14159
    D4        0.00000   0.00000   0.00000   0.00000   0.00000   0.00000
    D5        3.14159   0.00000   0.00000   0.00000   0.00000   3.14159
    D6        0.00000   0.00000   0.00000   0.00000   0.00000   0.00000
    D7        0.00000   0.00000   0.00000   0.00000   0.00000   0.00000
    D8        3.14159   0.00000   0.00000   0.00000   0.00000   3.14159
    D9        0.00000   0.00000   0.00000   0.00000   0.00000   0.00000
   D10        3.14159   0.00000   0.00000   0.00000   0.00000   3.14159
   D11        3.14159   0.00000   0.00000   0.00000   0.00000   3.14159
   D12        0.00000   0.00000   0.00000   0.00000   0.00000   0.00000
   D13        3.14159   0.00000   0.00000   0.00000   0.00000   3.14159
   D14        0.00000   0.00000   0.00000   0.00000   0.00000   0.00000
   D15        0.00000   0.00000   0.00000   0.00000   0.00000   0.00000
   D16        3.14159   0.00000   0.00000   0.00000   0.00000   3.14159
         Item               Value     Threshold  Converged?
 Maximum Force            0.002378     0.000450     NO 
 RMS     Force            0.000754     0.000300     NO 
 Maximum Displacement     0.005577     0.001800     NO 
 RMS     Displacement     0.002078     0.001200     NO 
 Predicted change in Energy=-4.294244D-05
 GradGradGradGradGradGradGradGradGradGradGradGradGradGradGradGradGradGrad

                          Input orientation:                          
 ---------------------------------------------------------------------
 Center     Atomic     Atomic              Coordinates (Angstroms)
 Number     Number      Type              X           Y           Z
 ---------------------------------------------------------------------
    1          7             0        0.508577    0.000000    1.151769
    2          1             0        0.486130    0.000000   -2.093195
    3          6             0       -1.041348    0.000000   -0.552766
    4          1             0       -1.927793    0.000000   -1.172968
    5          6             0       -0.867335    0.000000    0.821520
    6          1             0       -1.628841    0.000000    1.590847
    7          1             0        2.229259    0.000000   -0.164546
    8          6             0        1.155667    0.000000   -0.025356
    9          7             0        0.257161    0.000000   -1.097384
 ---------------------------------------------------------------------
                    Distance matrix (angstroms):
                    1          2          3          4          5
     1  N    0.000000
     2  H    3.245042   0.000000
     3  C    2.303846   2.169358   0.000000
     4  H    3.367537   2.583379   1.081867   0.000000
     5  C    1.414990   3.213633   1.385259   2.258884   0.000000
     6  H    2.182051   4.247973   2.222662   2.779937   1.082476
     7  H    2.166433   2.599651   3.293567   4.277616   3.249803
     8  C    1.343260   2.173532   2.259432   3.290097   2.193111
     9  N    2.263161   1.021796   1.408096   2.186261   2.224115
                    6          7          8          9
     6  H    0.000000
     7  H    4.238672   0.000000
     8  C    3.219564   1.082578   0.000000
     9  N    3.283838   2.181596   1.398770   0.000000
 Stoichiometry    C3H4N2
 Framework group  CS[SG(C3H4N2)]
 Deg. of freedom   15
 Full point group                 CS      NOp   2
 Largest Abelian subgroup         CS      NOp   2
 Largest concise Abelian subgroup C1      NOp   1
                         Standard orientation:                         
 ---------------------------------------------------------------------
 Center     Atomic     Atomic              Coordinates (Angstroms)
 Number     Number      Type              X           Y           Z
 ---------------------------------------------------------------------
    1          7             0       -0.757892   -1.005346    0.000000
    2          1             0        0.004246    2.148928    0.000000
    3          6             0        1.140021    0.300652    0.000000
    4          1             0        2.144580    0.702272    0.000000
    5          6             0        0.657077   -0.997697    0.000000
    6          1             0        1.222994   -1.920461    0.000000
    7          1             0       -2.132905    0.668802    0.000000
    8          6             0       -1.119377    0.288361    0.000000
    9          7             0        0.000000    1.127141    0.000000
 ---------------------------------------------------------------------
 Rotational constants (GHZ):      9.3426136      9.0699690      4.6021363
 Isotopes: N-14,H-1,C-12,H-1,C-12,H-1,H-1,C-12,N-14
 Standard basis: 3-21G* (6D, 7F)
 There are    43 symmetry adapted basis functions of A'  symmetry.
 There are    10 symmetry adapted basis functions of A"  symmetry.
 Crude estimate of integral set expansion from redundant integrals=1.000.
 Integral buffers will be    131072 words long.
 Raffenetti 2 integral format.
 Two-electron integral symmetry is turned on.
    53 basis functions       87 primitive gaussians
    18 alpha electrons       18 beta electrons
       nuclear repulsion energy       160.0997053468 Hartrees.
 One-electron integrals computed using PRISM.
 NBasis=    53 RedAO= T  NBF=    43    10
 NBsUse=    53 1.00D-04 NBFU=    43    10
 Initial guess read from the read-write file:
 Initial guess orbital symmetries:
       Occupied  (A') (A') (A') (A') (A') (A') (A') (A') (A') (A')
                 (A') (A') (A') (A") (A') (A") (A') (A")
       Virtual   (A") (A") (A') (A') (A') (A') (A') (A') (A') (A')
                 (A') (A') (A") (A') (A') (A") (A") (A') (A') (A')
                 (A') (A') (A') (A") (A") (A') (A') (A') (A') (A')
                 (A') (A') (A') (A') (A')
 Requested convergence on RMS density matrix=1.00D-08 within  64 cycles.
 Requested convergence on MAX density matrix=1.00D-06.
 Keep R1 and R2 integrals in memory in canonical form, NReq=     2863891.
 SCF Done:  E(RB-LYP) =  -224.879090342     A.U. after   10 cycles
             Convg  =    0.2795D-08             -V/T =  2.0090
             S**2   =   0.0000
 ***** Axes restored to original set *****
 -------------------------------------------------------------------
 Center     Atomic                   Forces (Hartrees/Bohr)
 Number     Number              X              Y              Z
 -------------------------------------------------------------------
    1          7           0.001003482    0.000000000   -0.000089935
    2          1          -0.000033560    0.000000000   -0.000030446
    3          6           0.000687469    0.000000000   -0.000361515
    4          1          -0.000246979    0.000000000   -0.000162972
    5          6          -0.000667973    0.000000000   -0.000197721
    6          1          -0.000086032    0.000000000    0.000282101
    7          1           0.000347049    0.000000000   -0.000059798
    8          6          -0.001159085    0.000000000   -0.000171999
    9          7           0.000155631    0.000000000    0.000792284
 -------------------------------------------------------------------
 Cartesian Forces:  Max     0.001159085 RMS     0.000405027

 GradGradGradGradGradGradGradGradGradGradGradGradGradGradGradGradGradGrad
 Berny optimization.
 Internal  Forces:  Max     0.000633392 RMS     0.000215366
 Search for a local minimum.
 Step number   6 out of a maximum of  48
 All quantities printed in internal units (Hartrees-Bohrs-Radians)
 Update second derivatives using information from points  2  3  4  5  6

 Trust test= 1.08D+00 RLast= 2.04D-02 DXMaxT set to 4.24D-01
     Eigenvalues ---    0.03204   0.03262   0.03287   0.03304   0.03349
     Eigenvalues ---    0.03403   0.13366   0.15912   0.16001   0.16036
     Eigenvalues ---    0.20709   0.27045   0.40702   0.46885   0.49432
     Eigenvalues ---    0.49666   0.57482   0.58508   0.64596   0.66129
     Eigenvalues ---    0.760611000.000001000.000001000.000001000.00000
     Eigenvalues --- 1000.000001000.000001000.000001000.000001000.00000
     Eigenvalues --- 1000.000001000.000001000.000001000.000001000.00000
     Eigenvalues --- 1000.000001000.000001000.00000
 RFO step:  Lambda=-2.91752311D-06.
 Quartic linear search produced a step of  0.08319.
 Iteration  1 RMS(Cart)=  0.00044956 RMS(Int)=  0.00000032
 Iteration  2 RMS(Cart)=  0.00000020 RMS(Int)=  0.00000025
 Variable       Old X    -DE/DX   Delta X   Delta X   Delta X     New X
                                 (Linear)    (Quad)   (Total)
    R1        2.67394   0.00063   0.00083   0.00088   0.00171   2.67565
    R2        2.53839  -0.00038  -0.00046  -0.00042  -0.00088   2.53752
    R3        1.93091   0.00002  -0.00012   0.00007  -0.00005   1.93086
    R4        2.04443   0.00030  -0.00007   0.00058   0.00052   2.04495
    R5        2.61776   0.00020  -0.00060   0.00057  -0.00003   2.61773
    R6        2.66092  -0.00040   0.00046  -0.00060  -0.00014   2.66078
    R7        2.04558   0.00026  -0.00013   0.00053   0.00041   2.04599
    R8        2.04578   0.00035  -0.00005   0.00070   0.00065   2.04643
    R9        2.64329  -0.00062   0.00001  -0.00098  -0.00097   2.64232
    A1        1.83786  -0.00019  -0.00039  -0.00014  -0.00053   1.83733
    A2        2.30724   0.00002   0.00020  -0.00005   0.00015   2.30739
    A3        2.13397   0.00003  -0.00033   0.00015  -0.00018   2.13379
    A4        1.84198  -0.00005   0.00013  -0.00010   0.00003   1.84201
    A5        1.93231  -0.00024   0.00011  -0.00048  -0.00038   1.93194
    A6        2.11552  -0.00002  -0.00049  -0.00047  -0.00095   2.11457
    A7        2.23535   0.00026   0.00038   0.00095   0.00133   2.23668
    A8        2.20235  -0.00012  -0.00020  -0.00006  -0.00027   2.20209
    A9        1.94140   0.00026   0.00053   0.00027   0.00080   1.94220
   A10        2.13943  -0.00014  -0.00033  -0.00021  -0.00053   2.13890
   A11        2.19393  -0.00015   0.00002  -0.00038  -0.00036   2.19358
   A12        2.21802  -0.00008   0.00035  -0.00007   0.00028   2.21830
   A13        1.87123   0.00022  -0.00037   0.00045   0.00008   1.87131
    D1        0.00000   0.00000   0.00000   0.00000   0.00000   0.00000
    D2        3.14159   0.00000   0.00000   0.00000   0.00000   3.14159
    D3        3.14159   0.00000   0.00000   0.00000   0.00000   3.14159
    D4        0.00000   0.00000   0.00000   0.00000   0.00000   0.00000
    D5        3.14159   0.00000   0.00000   0.00000   0.00000   3.14159
    D6        0.00000   0.00000   0.00000   0.00000   0.00000   0.00000
    D7        0.00000   0.00000   0.00000   0.00000   0.00000   0.00000
    D8        3.14159   0.00000   0.00000   0.00000   0.00000   3.14159
    D9        0.00000   0.00000   0.00000   0.00000   0.00000   0.00000
   D10        3.14159   0.00000   0.00000   0.00000   0.00000   3.14159
   D11        3.14159   0.00000   0.00000   0.00000   0.00000   3.14159
   D12        0.00000   0.00000   0.00000   0.00000   0.00000   0.00000
   D13        3.14159   0.00000   0.00000   0.00000   0.00000   3.14159
   D14        0.00000   0.00000   0.00000   0.00000   0.00000   0.00000
   D15        0.00000   0.00000   0.00000   0.00000   0.00000   0.00000
   D16        3.14159   0.00000   0.00000   0.00000   0.00000   3.14159
         Item               Value     Threshold  Converged?
 Maximum Force            0.000633     0.000450     NO 
 RMS     Force            0.000215     0.000300     YES
 Maximum Displacement     0.001473     0.001800     YES
 RMS     Displacement     0.000450     0.001200     YES
 Predicted change in Energy=-1.734345D-06
 GradGradGradGradGradGradGradGradGradGradGradGradGradGradGradGradGradGrad

                          Input orientation:                          
 ---------------------------------------------------------------------
 Center     Atomic     Atomic              Coordinates (Angstroms)
 Number     Number      Type              X           Y           Z
 ---------------------------------------------------------------------
    1          7             0        0.509017    0.000000    1.151759
    2          1             0        0.486182    0.000000   -2.092963
    3          6             0       -1.041337    0.000000   -0.552973
    4          1             0       -1.927704    0.000000   -1.173763
    5          6             0       -0.867786    0.000000    0.821356
    6          1             0       -1.628677    0.000000    1.591593
    7          1             0        2.229099    0.000000   -0.164896
    8          6             0        1.155207    0.000000   -0.025331
    9          7             0        0.257271    0.000000   -1.097167
 ---------------------------------------------------------------------
                    Distance matrix (angstroms):
                    1          2          3          4          5
     1  N    0.000000
     2  H    3.244802   0.000000
     3  C    2.304280   2.169074   0.000000
     4  H    3.368332   2.582978   1.082140   0.000000
     5  C    1.415893   3.213485   1.385244   2.259187   0.000000
     6  H    2.182474   4.248362   2.223541   2.781476   1.082691
     7  H    2.166163   2.599077   3.293380   4.277479   3.250137
     8  C    1.342796   2.173177   2.259029   3.289869   2.193030
     9  N    2.262972   1.021768   1.408023   2.186317   2.224069
                    6          7          8          9
     6  H    0.000000
     7  H    4.238832   0.000000
     8  C    3.219388   1.082923   0.000000
     9  N    3.284240   2.181109   1.398257   0.000000
 Stoichiometry    C3H4N2
 Framework group  CS[SG(C3H4N2)]
 Deg. of freedom   15
 Full point group                 CS      NOp   2
 Largest Abelian subgroup         CS      NOp   2
 Largest concise Abelian subgroup C1      NOp   1
                         Standard orientation:                         
 ---------------------------------------------------------------------
 Center     Atomic     Atomic              Coordinates (Angstroms)
 Number     Number      Type              X           Y           Z
 ---------------------------------------------------------------------
    1          7             0       -0.758539   -1.005114    0.000000
    2          1             0        0.004481    2.148700    0.000000
    3          6             0        1.140068    0.300642    0.000000
    4          1             0        2.144756    0.702673    0.000000
    5          6             0        0.657335   -0.997769    0.000000
    6          1             0        1.222281   -1.921379    0.000000
    7          1             0       -2.132594    0.669472    0.000000
    8          6             0       -1.118928    0.288417    0.000000
    9          7             0        0.000000    1.126942    0.000000
 ---------------------------------------------------------------------
 Rotational constants (GHZ):      9.3430566      9.0698844      4.6022221
 Isotopes: N-14,H-1,C-12,H-1,C-12,H-1,H-1,C-12,N-14
 Standard basis: 3-21G* (6D, 7F)
 There are    43 symmetry adapted basis functions of A'  symmetry.
 There are    10 symmetry adapted basis functions of A"  symmetry.
 Crude estimate of integral set expansion from redundant integrals=1.000.
 Integral buffers will be    131072 words long.
 Raffenetti 2 integral format.
 Two-electron integral symmetry is turned on.
    53 basis functions       87 primitive gaussians
    18 alpha electrons       18 beta electrons
       nuclear repulsion energy       160.1008702126 Hartrees.
 One-electron integrals computed using PRISM.
 NBasis=    53 RedAO= T  NBF=    43    10
 NBsUse=    53 1.00D-04 NBFU=    43    10
 Initial guess read from the read-write file:
 Initial guess orbital symmetries:
       Occupied  (A') (A') (A') (A') (A') (A') (A') (A') (A') (A')
                 (A') (A') (A') (A") (A') (A") (A') (A")
       Virtual   (A") (A") (A') (A') (A') (A') (A') (A') (A') (A')
                 (A') (A') (A") (A') (A') (A") (A") (A') (A') (A')
                 (A') (A') (A') (A") (A") (A') (A') (A') (A') (A')
                 (A') (A') (A') (A') (A')
 Requested convergence on RMS density matrix=1.00D-08 within  64 cycles.
 Requested convergence on MAX density matrix=1.00D-06.
 Keep R1 and R2 integrals in memory in canonical form, NReq=     2863891.
 SCF Done:  E(RB-LYP) =  -224.879092797     A.U. after    8 cycles
             Convg  =    0.9945D-08             -V/T =  2.0090
             S**2   =   0.0000
 ***** Axes restored to original set *****
[...]
 IR Inten    --     1.5057                 2.1278                23.3224
 Raman Activ --     0.0000                 0.0000                 0.0000
 Depolar     --     0.0000                 0.0000                 0.0000
 Atom AN      X      Y      Z        X      Y      Z        X      Y      Z
   1   7     0.00   0.00   0.00     0.00   0.00   0.00     0.00   0.00   0.00
   2   1    -0.01   0.02   0.00     0.00  -0.04   0.00     0.00   1.00   0.00
   3   6    -0.03  -0.01   0.00    -0.07  -0.03   0.00    -0.01   0.00   0.00
   4   1     0.34   0.13   0.00     0.75   0.30   0.00     0.03   0.01   0.00
   5   6     0.01  -0.02   0.00    -0.02   0.05   0.00     0.00   0.00   0.00
   6   1    -0.13   0.21   0.00     0.28  -0.47   0.00     0.01  -0.01   0.00
   7   1     0.84  -0.31   0.00    -0.16   0.06   0.00    -0.03   0.01   0.00
   8   6    -0.08   0.03   0.00     0.02  -0.01   0.00     0.01   0.00   0.00
   9   7     0.00   0.00   0.00     0.00   0.00   0.00     0.00  -0.07   0.00

 -------------------
 - Thermochemistry -
 -------------------
 Temperature   298.150 Kelvin.  Pressure   1.00000 Atm.
 Atom  1 has atomic number  7 and mass  14.00307
 Atom  2 has atomic number  1 and mass   1.00783
 Atom  3 has atomic number  6 and mass  12.00000
 Atom  4 has atomic number  1 and mass   1.00783
 Atom  5 has atomic number  6 and mass  12.00000
 Atom  6 has atomic number  1 and mass   1.00783
 Atom  7 has atomic number  1 and mass   1.00783
 Atom  8 has atomic number  6 and mass  12.00000
 Atom  9 has atomic number  7 and mass  14.00307
 Molecular mass:    68.03745 amu.
 Principal axes and moments of inertia in atomic units:
                           1         2         3
     EIGENVALUES --   193.16389 198.98172 392.14561
           X            0.53982   0.84178   0.00000
           Y            0.84178  -0.53982   0.00000
           Z            0.00000   0.00000   1.00000
 THIS MOLECULE IS AN ASYMMETRIC TOP.
 ROTATIONAL SYMMETRY NUMBER  1.
 ROTATIONAL TEMPERATURES (KELVIN)      0.44839     0.43528     0.22087
 ROTATIONAL CONSTANTS (GHZ)            9.34306     9.06988     4.60222
 Zero-point vibrational energy     180087.1 (Joules/Mol)
                                   43.04185 (Kcal/Mol)
 WARNING-- EXPLICIT CONSIDERATION OF   1 DEGREES OF FREEDOM AS
           VIBRATIONS MAY CAUSE SIGNIFICANT ERROR
 VIBRATIONAL TEMPERATURES:    842.18   908.34   951.20  1044.30  1136.96
          (KELVIN)           1234.46  1268.92  1333.60  1450.47  1499.95
                             1521.59  1606.91  1771.98  1823.47  1927.33
                             2023.91  2123.88  4612.23  4616.85  4648.52
                             4971.68
 
 Zero-point correction=                           0.068592 (Hartree/Particle)
 Thermal correction to Energy=                    0.072388
 Thermal correction to Enthalpy=                  0.073333
 Thermal correction to Gibbs Free Energy=         0.042268
 Sum of electronic and zero-point Energies=           -224.810501
 Sum of electronic and thermal Energies=              -224.806704
 Sum of electronic and thermal Enthalpies=            -224.805760
 Sum of electronic and thermal Free Energies=         -224.836825
 
                     E (Thermal)             CV                S
                      KCAL/MOL        CAL/MOL-KELVIN    CAL/MOL-KELVIN
 TOTAL                   45.424             13.844             65.382
 ELECTRONIC               0.000              0.000              0.000
 TRANSLATIONAL            0.889              2.981             38.570
 ROTATIONAL               0.889              2.981             24.226
 VIBRATIONAL             43.647              7.882              2.586
 VIBRATION  1             0.942              1.063              0.476
                       Q            LOG10(Q)             LN(Q)
 TOTAL BOT       0.361713D-19        -19.441636        -44.766021
 TOTAL V=0       0.128255D+13         12.108075         27.879873
 VIB (BOT)       0.373112D-31        -31.428161        -72.366015
 VIB (BOT)  1    0.258932D+00         -0.586814         -1.351189
 VIB (V=0)       0.132297D+01          0.121550          0.279879
 VIB (V=0)  1    0.106307D+01          0.026561          0.061159
 ELECTRONIC      0.100000D+01          0.000000          0.000000
 TRANSLATIONAL   0.220588D+08          7.343582         16.909224
 ROTATIONAL      0.439484D+05          4.642943         10.690770
 ***** Axes restored to original set *****
 -------------------------------------------------------------------
 Center     Atomic                   Forces (Hartrees/Bohr)
 Number     Number              X              Y              Z
 -------------------------------------------------------------------
    1          7           0.000388815    0.000000000    0.000023618
    2          1           0.000002730    0.000000000   -0.000042460
    3          6           0.000418283    0.000000000   -0.000318267
    4          1          -0.000104457    0.000000000   -0.000038791
    5          6          -0.000369967    0.000000000    0.000052182
    6          1          -0.000033275    0.000000000    0.000092533
    7          1           0.000141218    0.000000000   -0.000018126
    8          6          -0.000401671    0.000000000   -0.000284490
    9          7          -0.000041675    0.000000000    0.000533799
 -------------------------------------------------------------------
 Cartesian Forces:  Max     0.000533799 RMS     0.000205544

 GradGradGradGradGradGradGradGradGradGradGradGradGradGradGradGradGradGrad
 Berny optimization.
 Internal  Forces:  Max     0.000341958 RMS     0.000108251
 Search for a local minimum.
 Step number   1 out of a maximum of  48
 All quantities printed in internal units (Hartrees-Bohrs-Radians)
 Second derivative matrix not updated -- analytic derivatives used.
     Eigenvalues ---    0.00656   0.01123   0.01921   0.02622   0.05956
     Eigenvalues ---    0.06148   0.09394   0.10230   0.10646   0.11124
     Eigenvalues ---    0.20298   0.21448   0.28217   0.33971   0.36234
     Eigenvalues ---    0.36291   0.36710   0.39980   0.42359   0.44422
     Eigenvalues ---    0.503081000.000001000.000001000.000001000.00000
     Eigenvalues --- 1000.000001000.000001000.000001000.000001000.00000
     Eigenvalues --- 1000.000001000.000001000.000001000.000001000.00000
     Eigenvalues --- 1000.000001000.000001000.00000
 Angle between quadratic step and forces=  19.26 degrees.
 Linear search not attempted -- first point.
 Iteration  1 RMS(Cart)=  0.00035099 RMS(Int)=  0.00000010
 Iteration  2 RMS(Cart)=  0.00000010 RMS(Int)=  0.00000001
 Variable       Old X    -DE/DX   Delta X   Delta X   Delta X     New X
                                 (Linear)    (Quad)   (Total)
    R1        2.67565   0.00030   0.00000   0.00135   0.00135   2.67700
    R2        2.53752  -0.00004   0.00000  -0.00001  -0.00001   2.53751
    R3        1.93086   0.00004   0.00000   0.00012   0.00012   1.93098
    R4        2.04495   0.00011   0.00000   0.00030   0.00030   2.04525
    R5        2.61773   0.00015   0.00000   0.00040   0.00040   2.61813
    R6        2.66078  -0.00027   0.00000  -0.00092  -0.00092   2.65986
    R7        2.04599   0.00009   0.00000   0.00018   0.00018   2.04617
    R8        2.04643   0.00014   0.00000   0.00041   0.00041   2.04684
    R9        2.64232  -0.00034   0.00000  -0.00118  -0.00118   2.64115
    A1        1.83733  -0.00008   0.00000  -0.00037  -0.00037   1.83696
    A2        2.30739  -0.00003   0.00000  -0.00043  -0.00043   2.30695
    A3        2.13379   0.00002   0.00000   0.00032   0.00032   2.13411
    A4        1.84201   0.00001   0.00000   0.00012   0.00012   1.84212
    A5        1.93194  -0.00016   0.00000  -0.00058  -0.00058   1.93135
    A6        2.11457   0.00004   0.00000  -0.00026  -0.00026   2.11431
    A7        2.23668   0.00012   0.00000   0.00084   0.00084   2.23752
    A8        2.20209  -0.00004   0.00000  -0.00033  -0.00033   2.20176
    A9        1.94220   0.00007   0.00000   0.00029   0.00029   1.94248
   A10        2.13890  -0.00003   0.00000   0.00004   0.00004   2.13894
   A11        2.19358  -0.00009   0.00000  -0.00030  -0.00030   2.19327
   A12        2.21830  -0.00008   0.00000  -0.00024  -0.00024   2.21806
   A13        1.87131   0.00016   0.00000   0.00054   0.00054   1.87185
    D1        0.00000   0.00000   0.00000   0.00000   0.00000   0.00000
    D2        3.14159   0.00000   0.00000   0.00000   0.00000   3.14159
    D3        3.14159   0.00000   0.00000   0.00000   0.00000   3.14159
    D4        0.00000   0.00000   0.00000   0.00000   0.00000   0.00000
    D5        3.14159   0.00000   0.00000   0.00000   0.00000   3.14159
    D6        0.00000   0.00000   0.00000   0.00000   0.00000   0.00000
    D7        0.00000   0.00000   0.00000   0.00000   0.00000   0.00000
    D8        3.14159   0.00000   0.00000   0.00000   0.00000   3.14159
    D9        0.00000   0.00000   0.00000   0.00000   0.00000   0.00000
   D10        3.14159   0.00000   0.00000   0.00000   0.00000   3.14159
   D11        3.14159   0.00000   0.00000   0.00000   0.00000   3.14159
   D12        0.00000   0.00000   0.00000   0.00000   0.00000   0.00000
   D13        3.14159   0.00000   0.00000   0.00000   0.00000   3.14159
   D14        0.00000   0.00000   0.00000   0.00000   0.00000   0.00000
   D15        0.00000   0.00000   0.00000   0.00000   0.00000   0.00000
   D16        3.14159   0.00000   0.00000   0.00000   0.00000   3.14159
         Item               Value     Threshold  Converged?
 Maximum Force            0.000342     0.000450     YES
 RMS     Force            0.000108     0.000300     YES
 Maximum Displacement     0.000791     0.001800     YES
 RMS     Displacement     0.000351     0.001200     YES
 Predicted change in Energy=-8.153207D-07
 Optimization completed.
    -- Stationary point found.
                         ----------------------------
                         !   Optimized Parameters   !
                         ! (Angstroms and Degrees)  !
 ------------------------                            -------------------------
 ! Name  Definition              Value          Derivative Info.             !
 -----------------------------------------------------------------------------
 ! R1    R(1,5)                  1.4159         -DE/DX =    0.0003           !
 ! R2    R(1,8)                  1.3428         -DE/DX =    0.               !
 ! R3    R(2,9)                  1.0218         -DE/DX =    0.               !
 ! R4    R(3,4)                  1.0821         -DE/DX =    0.0001           !
 ! R5    R(3,5)                  1.3852         -DE/DX =    0.0002           !
 ! R6    R(3,9)                  1.408          -DE/DX =   -0.0003           !
 ! R7    R(5,6)                  1.0827         -DE/DX =    0.0001           !
 ! R8    R(7,8)                  1.0829         -DE/DX =    0.0001           !
 ! R9    R(8,9)                  1.3983         -DE/DX =   -0.0003           !
 ! A1    A(5,1,8)              105.2711         -DE/DX =   -0.0001           !
 ! A2    A(4,3,5)              132.2036         -DE/DX =    0.               !
 ! A3    A(4,3,9)              122.257          -DE/DX =    0.               !
 ! A4    A(5,3,9)              105.5393         -DE/DX =    0.               !
 ! A5    A(1,5,3)              110.6917         -DE/DX =   -0.0002           !
 ! A6    A(1,5,6)              121.1558         -DE/DX =    0.               !
 ! A7    A(3,5,6)              128.1525         -DE/DX =    0.0001           !
 ! A8    A(1,8,7)              126.1704         -DE/DX =    0.               !
 ! A9    A(1,8,9)              111.2796         -DE/DX =    0.0001           !
 ! A10   A(7,8,9)              122.55           -DE/DX =    0.               !
 ! A11   A(2,9,3)              125.6826         -DE/DX =   -0.0001           !
 ! A12   A(2,9,8)              127.0991         -DE/DX =   -0.0001           !
 ! A13   A(3,9,8)              107.2182         -DE/DX =    0.0002           !
 ! D1    D(8,1,5,3)              0.             -DE/DX =    0.               !
 ! D2    D(8,1,5,6)            180.             -DE/DX =    0.               !
 ! D3    D(5,1,8,7)            180.             -DE/DX =    0.               !
 ! D4    D(5,1,8,9)              0.             -DE/DX =    0.               !
 ! D5    D(4,3,5,1)            180.             -DE/DX =    0.               !
 ! D6    D(4,3,5,6)              0.             -DE/DX =    0.               !
 ! D7    D(9,3,5,1)              0.             -DE/DX =    0.               !
 ! D8    D(9,3,5,6)            180.             -DE/DX =    0.               !
 ! D9    D(4,3,9,2)              0.             -DE/DX =    0.               !
 ! D10   D(4,3,9,8)            180.             -DE/DX =    0.               !
 ! D11   D(5,3,9,2)            180.             -DE/DX =    0.               !
 ! D12   D(5,3,9,8)              0.             -DE/DX =    0.               !
 ! D13   D(1,8,9,2)            180.             -DE/DX =    0.               !
 ! D14   D(1,8,9,3)              0.             -DE/DX =    0.               !
 ! D15   D(7,8,9,2)              0.             -DE/DX =    0.               !
 ! D16   D(7,8,9,3)            180.             -DE/DX =    0.               !
 -----------------------------------------------------------------------------
 GradGradGradGradGradGradGradGradGradGradGradGradGradGradGradGradGradGrad

 1\1\ NATIONAL INSTITUTE OF STANDARDS AND TECHNOLOGY-NEVA\Freq\RBLYP\3-
 21G*\C3H4N2\RDJ3\02-May-2000\0\\#N GEOM=ALLCHECK GUESS=TCHECK RBLYP/3-
 21G* FREQ\\1H imidazole C3H4N2 casno=288324\\0,1\N,0.5090331368,0.,1.1
 51746756\H,0.4861976923,0.,-2.0929748478\C,-1.0413206367,0.,-0.5529853
 174\H,-1.9276882019,0.,-1.1737747237\C,-0.8677701577,0.,0.821344535\H,
 -1.6286613092,0.,1.5915811907\H,2.2291152065,0.,-0.1649079148\C,1.1552
 23489,0.,-0.0253425636\N,0.2572869268,0.,-1.0971787028\\Version=SGI64-
 G98RevA.7\State=1-A'\HF=-224.8790928\RMSD=3.246e-09\RMSF=2.055e-04\Dip
 ole=-0.1187362,0.,-1.4595649\DipoleDeriv=-0.3211653,-0.000153,0.025053
 1,0.0001446,-0.2588831,-0.0002607,0.0106236,-0.0000679,-0.4645905,0.18
 92384,-0.0000407,-0.0049367,-0.0000107,0.3626959,-0.0000448,0.0012145,
 0.0001004,0.1179833,-0.0232727,-0.0000469,-0.2023488,-0.0003208,-0.114
 7876,0.000205,-0.0236518,-0.0000346,0.1941406,0.0177834,0.000012,-0.04
 27306,0.0000234,0.1852041,-0.0000047,-0.0768108,-0.0000049,0.0323637,0
 .1251633,0.0002572,-0.1576293,0.000125,-0.1419751,-0.0001015,-0.073707
 3,0.0000183,0.0787931,0.0009249,-0.0000168,0.0753135,-0.0000458,0.1502
 185,0.0000544,0.0724167,0.0000139,0.0296238,-0.0313594,0.0002409,0.018
 4042,-0.0000254,0.168921,0.0000438,0.0430078,-0.00005,0.0680782,0.1278
 963,-0.0002667,0.1275524,-0.0003075,-0.0385694,0.0004229,-0.0356365,0.
 0002274,0.4111166,-0.085208,0.000014,0.1613219,0.000417,-0.3128242,-0.
 0003144,0.0825443,-0.0002025,-0.467508\Polar=47.0729268,0.0025779,13.0
 060875,-1.2053578,-0.004006,43.5994677\PG=CS [SG(C3H4N2)]\NImag=0\\0.3
 8537741,0.00000506,0.09740977,-0.05178283,-0.00000033,0.45404889,-0.00
 312654,0.00000270,-0.00726683,0.07615682,0.00000224,0.00602878,0.00000
 196,0.00000051,0.01269891,-0.00248047,-0.00000693,-0.00387568,-0.08178
 875,-0.00000209,0.40530134,-0.03705783,-0.00000027,-0.01652385,0.00558
 678,-0.00000131,-0.00570957,0.67333151,-0.00000702,0.01704219,0.000000
 53,-0.00000180,-0.00535529,0.00000055,-0.00001189,0.11075165,-0.078123
 53,0.00000336,-0.02544043,0.02856873,0.00000115,-0.00076004,0.17287854
 ,0.00000224,0.66743342,0.00122919,0.00000096,0.00166285,-0.00010040,0.
 00000150,0.00052132,-0.24816131,0.00000789,-0.13681891,0.26153700,0.00
 000099,0.00651222,0.00000010,0.00000031,-0.00114110,-0.00000085,0.0000
 0017,-0.02140374,0.00000008,-0.00000035,0.01810912,-0.00332027,0.00000
 146,-0.00409462,-0.00082864,0.00000105,0.00000784,-0.14689480,0.000004
 08,-0.15598180,0.14788068,-0.00000020,0.15142765,-0.17070199,-0.000009
 68,-0.00458092,-0.00757779,-0.00000371,-0.00350234,-0.09234339,0.00001
 112,-0.01454974,0.00467228,-0.00000124,-0.02266141,0.57127630,0.000004
 71,-0.06643579,0.00000148,0.00000103,0.00285763,-0.00000150,0.00000459
 ,-0.06570983,-0.00000040,-0.00000218,-0.00066041,-0.00000086,-0.000007
 11,0.12868561,-0.03279238,0.00000034,-0.08486228,0.00296771,-0.0000028
 9,0.00083859,-0.02798061,-0.00001077,-0.33960081,0.00311072,0.00000043
 ,0.00166174,-0.18277835,0.00000170,0.72353988,-0.01910433,0.00000042,0
 .01825255,0.00075185,0.00000038,0.00014365,0.00798337,-0.00000007,-0.0
 0714852,-0.00019435,0.00000010,0.00084380,-0.18827288,0.00000004,0.146
 11087,0.20298138,-0.00000377,-0.00505877,-0.00000122,-0.00000145,0.001
 53636,0.00000487,0.00000188,0.00013295,-0.00000172,-0.00000103,-0.0022
 1318,-0.00000085,0.00000554,-0.02802775,0.00000223,-0.00000030,0.02232
 305,-0.00900502,-0.00000072,0.01025740,0.00110851,-0.00000025,0.000093
 86,0.02151060,0.00000032,-0.00865541,-0.00058048,-0.00000012,-0.000194
 20,0.14709095,0.00000008,-0.21105429,-0.15461924,0.00000018,0.21278180
 ,-0.00686636,-0.00000888,0.00194656,-0.00058821,-0.00000389,-0.0007818
 0,0.00162139,0.00000792,-0.00231528,-0.00024779,-0.00000172,0.00026526
 ,0.00138621,-0.00000591,0.00130141,-0.00024450,0.00000766,-0.00006445,
 0.35715238,-0.00000141,-0.00501112,-0.00000069,-0.00000033,-0.00111152
 ,0.00000067,-0.00000079,0.00253633,-0.00000029,0.00000019,0.00151755,-
 0.00000004,0.00000246,0.00660419,0.00000011,-0.00000015,0.00114082,0.0
 0000014,0.00000199,0.01955006,0.02796980,0.00000201,-0.00237309,0.0004
 9000,0.00000079,-0.00000942,-0.00075366,-0.00000179,-0.00548446,-0.000
 87501,0.00000031,0.00112877,0.00220937,0.00000124,-0.00346237,0.001239
 29,-0.00000138,0.00075035,-0.03740801,-0.00000044,0.05863444,-0.141342
 67,0.00001342,0.08048677,0.01617997,0.00000375,0.01600312,-0.09585912,
 -0.00001053,-0.00196261,-0.00202027,0.00000172,0.00455782,-0.09991228,
 0.00000666,0.02392711,-0.00433578,-0.00000823,-0.00410173,-0.34013868,
 -0.00000227,0.03650036,0.83373964,-0.00001111,-0.07119522,-0.00000110,
 -0.00000434,-0.00620937,0.00000995,-0.00000482,0.01671271,-0.00000334,
 0.00000093,0.00289913,-0.00000104,0.00001888,0.00943376,-0.00000215,-0
 .00000033,0.00501720,0.00000051,0.00001641,-0.02337991,-0.00000366,-0.
 00002288,0.12651859,0.12193142,-0.00000503,-0.24241085,-0.01694820,-0.
 00000372,-0.00979828,-0.04574663,0.00000807,-0.00693929,0.00309210,-0.
 00000087,-0.00605735,0.06429360,-0.00000615,-0.01740162,-0.00151075,0.
 00000439,0.00052428,0.03198626,0.00000223,-0.05377605,-0.09195453,0.00
 001203,0.49573259,-0.00840690,-0.00000374,-0.02219431,-0.08728247,0.00
 000053,0.07759484,-0.21510141,0.00000438,0.03947131,-0.01671434,0.0000
 0005,0.02015757,-0.01852649,-0.00000184,0.06613354,0.00043527,-0.00000
 032,-0.00133916,-0.01207442,0.00000031,-0.02937215,-0.16631084,0.00000
 726,-0.06514327,0.52398161,0.00001032,0.02070794,-0.00000071,0.0000033
 8,-0.00930441,-0.00000466,0.00001244,-0.05470696,-0.00000106,-0.000007
 90,-0.00361959,-0.00000362,-0.00001630,0.01325258,0.00001100,-0.000000
 09,0.00514932,-0.00000014,-0.00001359,-0.00184641,0.00000293,0.0000183
 8,-0.05979689,-0.00001095,-0.00000663,0.09016441,0.02760326,0.00000584
 ,-0.10124934,0.07369746,0.00000400,-0.39179819,0.04921996,-0.00000323,
 -0.12457118,-0.01799325,0.00000112,0.01210198,0.01447885,0.00000441,-0
 .06965886,-0.00331165,-0.00000651,-0.00450378,0.00507004,-0.00000169,0
 .00459184,-0.06345631,-0.00001121,-0.15987344,-0.08530838,0.00000723,0
 .83496095\\-0.00038881,0.,-0.00002362,-0.00000273,0.,0.00004246,-0.000
 41828,0.,0.00031827,0.00010446,0.,0.00003879,0.00036997,0.,-0.00005218
 ,0.00003327,0.,-0.00009253,-0.00014122,0.,0.00001813,0.00040167,0.,0.0
 0028449,0.00004168,0.,-0.00053380\\\@


 IT'S WHAT A FELLER THINKS HE KNOWS THAT HURTS HIM...
                    ------
           KIN HUBBARD
 Job cpu time:  0 days  0 hours  5 minutes  7.2 seconds.
 File lengths (MBytes):  RWF=   10 Int=    0 D2E=    0 Chk=    4 Scr=    1
 Normal termination of Gaussian 98.
