 Entering Gaussian System, Link 0=g98
 Initial command:
 /usr/local/apps/g98/g98/l1.exe /wrk/Gau-232385.inp -scrdir=/wrk/
 Entering Link 1 = /usr/local/apps/g98/g98/l1.exe PID=    232388.
  
 Copyright (c) 1988,1990,1992,1993,1995,1998 Gaussian, Inc.
                  All Rights Reserved.
  
 This is part of the Gaussian(R) 98 program.  It is based on
 the Gaussian 94(TM) system (copyright 1995 Gaussian, Inc.),
 the Gaussian 92(TM) system (copyright 1992 Gaussian, Inc.),
 the Gaussian 90(TM) system (copyright 1990 Gaussian, Inc.),
 the Gaussian 88(TM) system (copyright 1988 Gaussian, Inc.),
 the Gaussian 86(TM) system (copyright 1986 Carnegie Mellon
 University), and the Gaussian 82(TM) system (copyright 1983
 Carnegie Mellon University). Gaussian is a federally registered
 trademark of Gaussian, Inc.
  
 This software contains proprietary and confidential information,
 including trade secrets, belonging to Gaussian, Inc.
  
 This software is provided under written license and may be
 used, copied, transmitted, or stored only in accord with that
 written license.
  
 The following legend is applicable only to US Government
 contracts under DFARS:
  
                    RESTRICTED RIGHTS LEGEND
  
 Use, duplication or disclosure by the US Government is subject
 to restrictions as set forth in subparagraph (c)(1)(ii) of the
 Rights in Technical Data and Computer Software clause at DFARS
 252.227-7013.
  
 Gaussian, Inc.
 Carnegie Office Park, Building 6, Pittsburgh, PA 15106 USA
  
 The following legend is applicable only to US Government
 contracts under FAR:
  
                    RESTRICTED RIGHTS LEGEND
  
 Use, reproduction and disclosure by the US Government is subject
 to restrictions as set forth in subparagraph (c) of the
 Commercial Computer Software - Restricted Rights clause at FAR
 52.227-19.
  
 Gaussian, Inc.
 Carnegie Office Park, Building 6, Pittsburgh, PA 15106 USA
  
  
 ---------------------------------------------------------------
 Warning -- This program may not be used in any manner that
 competes with the business of Gaussian, Inc. or will provide
 assistance to any competitor of Gaussian, Inc.  The licensee
 of this program is prohibited from giving any competitor of
 Gaussian, Inc. access to this program.  By using this program,
 the user acknowledges that Gaussian, Inc. is engaged in the
 business of creating and licensing software in the field of
 computational chemistry and represents and warrants to the
 licensee that it is not a competitor of Gaussian, Inc. and that
 it will not use this program in any manner prohibited above.
 ---------------------------------------------------------------
  

 Cite this work as:
 Gaussian 98, Revision A.7,
 M. J. Frisch, G. W. Trucks, H. B. Schlegel, G. E. Scuseria, 
 M. A. Robb, J. R. Cheeseman, V. G. Zakrzewski, J. A. Montgomery, Jr., 
 R. E. Stratmann, J. C. Burant, S. Dapprich, J. M. Millam, 
 A. D. Daniels, K. N. Kudin, M. C. Strain, O. Farkas, J. Tomasi, 
 V. Barone, M. Cossi, R. Cammi, B. Mennucci, C. Pomelli, C. Adamo, 
 S. Clifford, J. Ochterski, G. A. Petersson, P. Y. Ayala, Q. Cui, 
 K. Morokuma, D. K. Malick, A. D. Rabuck, K. Raghavachari, 
 J. B. Foresman, J. Cioslowski, J. V. Ortiz, A. G. Baboul, 
 B. B. Stefanov, G. Liu, A. Liashenko, P. Piskorz, I. Komaromi, 
 R. Gomperts, R. L. Martin, D. J. Fox, T. Keith, M. A. Al-Laham, 
 C. Y. Peng, A. Nanayakkara, C. Gonzalez, M. Challacombe, 
 P. M. W. Gill, B. Johnson, W. Chen, M. W. Wong, J. L. Andres, 
 C. Gonzalez, M. Head-Gordon, E. S. Replogle, and J. A. Pople, 
 Gaussian, Inc., Pittsburgh PA, 1998.

 *****************************************
 Gaussian 98:  SGI64-G98RevA.7 11-Apr-1999
                 5-Aug-1999 
 *****************************************
 %mem=24000000
 ---------------------
 #CISD/6-31G* OPT FREQ
 ---------------------
 1/18=20,38=1/1,3;
 2/9=110,17=6,18=5/2;
 3/5=1,6=6,7=1,11=9,25=1,30=1/1,2,3;
 4//1;
 5/5=2,38=4/2;
 8/6=7,9=120000,10=1,23=2/1,4;
 9/15=1/13;
 11/28=-4,29=200,42=1/11;
 10/5=3/2;
 6/7=2,8=2,9=2,10=2/1;
 7/12=6/1,2,3,16;
 1/18=20/3(1);
 99//99;
 2/9=110/2;
 3/5=1,6=6,7=1,11=9,25=1,30=1/1,2,3;
 4/5=5,16=2/1;
 5/5=2,38=4/2;
 8/6=7,9=120000,10=1,23=2/1,4;
 9/15=1/13;
 11/28=-4,29=200,42=1/11;
 10/5=3/2;
 7/12=6/1,2,3,16;
 1/18=20/3(-9);
 2/9=110/2;
 6/7=2,8=2,9=2,10=2/1;
 99//99;
 --------------------------------
 1H imidazole C3H4N2 casno=288324
 --------------------------------
 Symbolic Z-matrix:
 Charge =  0 Multiplicity = 1
 N                     0.4985    0.        1.11074 
 H                     0.49364   0.       -2.0291 
 C                    -1.01355   0.       -0.53629 
 H                    -1.88968   0.       -1.14782 
 C                    -0.83766   0.        0.80248 
 H                    -1.58608   0.        1.5671 
 H                     2.17242   0.       -0.15962 
 C                     1.11015   0.       -0.0239 
 N                     0.25238   0.       -1.06564 

 GradGradGradGradGradGradGradGradGradGradGradGradGradGradGradGradGradGrad
 Berny optimization.
 Initialization pass.
                         ----------------------------
                         !    Initial Parameters    !
                         ! (Angstroms and Degrees)  !
 ------------------------                            -------------------------
 ! Name  Definition              Value          Derivative Info.             !
 -----------------------------------------------------------------------------
 ! R1    R(1,5)                  1.3713         estimate D2E/DX2             !
 ! R2    R(1,8)                  1.289          estimate D2E/DX2             !
 ! R3    R(2,9)                  0.9932         estimate D2E/DX2             !
 ! R4    R(3,4)                  1.0684         estimate D2E/DX2             !
 ! R5    R(3,5)                  1.3503         estimate D2E/DX2             !
 ! R6    R(3,9)                  1.3721         estimate D2E/DX2             !
 ! R7    R(5,6)                  1.0699         estimate D2E/DX2             !
 ! R8    R(7,8)                  1.0709         estimate D2E/DX2             !
 ! R9    R(8,9)                  1.3494         estimate D2E/DX2             !
 ! A1    A(5,1,8)              105.3363         estimate D2E/DX2             !
 ! A2    A(4,3,5)              132.3996         estimate D2E/DX2             !
 ! A3    A(4,3,9)              122.3928         estimate D2E/DX2             !
 ! A4    A(5,3,9)              105.2076         estimate D2E/DX2             !
 ! A5    A(1,5,3)              110.476          estimate D2E/DX2             !
 ! A6    A(1,5,6)              121.3948         estimate D2E/DX2             !
 ! A7    A(3,5,6)              128.1292         estimate D2E/DX2             !
 ! A8    A(1,8,7)              125.6084         estimate D2E/DX2             !
 ! A9    A(1,8,9)              112.2043         estimate D2E/DX2             !
 ! A10   A(7,8,9)              122.1873         estimate D2E/DX2             !
 ! A11   A(2,9,3)              126.7509         estimate D2E/DX2             !
 ! A12   A(2,9,8)              126.4734         estimate D2E/DX2             !
 ! A13   A(3,9,8)              106.7757         estimate D2E/DX2             !
 ! D1    D(8,1,5,3)              0.             estimate D2E/DX2             !
 ! D2    D(8,1,5,6)            180.             estimate D2E/DX2             !
 ! D3    D(5,1,8,7)            180.             estimate D2E/DX2             !
 ! D4    D(5,1,8,9)              0.             estimate D2E/DX2             !
 ! D5    D(4,3,5,1)            180.             estimate D2E/DX2             !
 ! D6    D(4,3,5,6)              0.             estimate D2E/DX2             !
 ! D7    D(9,3,5,1)              0.             estimate D2E/DX2             !
 ! D8    D(9,3,5,6)            180.             estimate D2E/DX2             !
 ! D9    D(4,3,9,2)              0.             estimate D2E/DX2             !
 ! D10   D(4,3,9,8)            180.             estimate D2E/DX2             !
 ! D11   D(5,3,9,2)            180.             estimate D2E/DX2             !
 ! D12   D(5,3,9,8)              0.             estimate D2E/DX2             !
 ! D13   D(1,8,9,2)            180.             estimate D2E/DX2             !
 ! D14   D(1,8,9,3)              0.             estimate D2E/DX2             !
 ! D15   D(7,8,9,2)              0.             estimate D2E/DX2             !
 ! D16   D(7,8,9,3)            180.             estimate D2E/DX2             !
 -----------------------------------------------------------------------------
 Trust Radius=3.00D-01 FncErr=1.00D-07 GrdErr=1.00D-07
 Number of steps in this run=  48 maximum allowed number of steps= 100.
 GradGradGradGradGradGradGradGradGradGradGradGradGradGradGradGradGradGrad

                          Input orientation:                          
 ---------------------------------------------------------------------
 Center     Atomic     Atomic              Coordinates (Angstroms)
 Number     Number      Type              X           Y           Z
 ---------------------------------------------------------------------
    1          7             0        0.498501    0.000000    1.110739
    2          1             0        0.493640    0.000000   -2.029103
    3          6             0       -1.013554    0.000000   -0.536287
    4          1             0       -1.889682    0.000000   -1.147820
    5          6             0       -0.837664    0.000000    0.802476
    6          1             0       -1.586080    0.000000    1.567105
    7          1             0        2.172423    0.000000   -0.159619
    8          6             0        1.110146    0.000000   -0.023900
    9          7             0        0.252376    0.000000   -1.065639
 ---------------------------------------------------------------------
                    Distance matrix (angstroms):
                    1          2          3          4          5
     1  N    0.000000
     2  H    3.139846   0.000000
     3  C    2.235845   2.121352   0.000000
     4  H    3.287021   2.541040   1.068444   0.000000
     5  C    1.371264   3.128931   1.350267   2.215941   0.000000
     6  H    2.133951   4.154268   2.179918   2.731847   1.069945
     7  H    2.101386   2.512625   3.208166   4.180579   3.160103
     8  C    1.288998   2.097837   2.184638   3.203461   2.115860
     9  N    2.190251   0.993213   1.372149   2.143634   2.162878
                    6          7          8          9
     6  H    0.000000
     7  H    4.136172   0.000000
     8  C    3.130643   1.070912   0.000000
     9  N    3.211115   2.123076   1.349441   0.000000
 Stoichiometry    C3H4N2
 Framework group  CS[SG(C3H4N2)]
 Deg. of freedom   15
 Full point group                 CS      NOp   2
 Largest Abelian subgroup         CS      NOp   2
 Largest concise Abelian subgroup C1      NOp   1
                         Standard orientation:                         
 ---------------------------------------------------------------------
 Center     Atomic     Atomic              Coordinates (Angstroms)
 Number     Number      Type              X           Y           Z
 ---------------------------------------------------------------------
    1          7             0       -0.741059   -0.965959    0.000000
    2          1             0       -0.012734    2.088247    0.000000
    3          6             0        1.109862    0.288272    0.000000
    4          1             0        2.103339    0.681436    0.000000
    5          6             0        0.630182   -0.973920    0.000000
    6          1             0        1.182239   -1.890444    0.000000
    7          1             0       -2.077162    0.655969    0.000000
    8          6             0       -1.074756    0.279096    0.000000
    9          7             0        0.000000    1.095117    0.000000
 ---------------------------------------------------------------------
 Rotational constants (GHZ):      9.9280220      9.6396700      4.8908607
 Isotopes: N-14,H-1,C-12,H-1,C-12,H-1,H-1,C-12,N-14
 Standard basis: 6-31G(d) (6D, 7F)
 There are    63 symmetry adapted basis functions of A'  symmetry.
 There are    20 symmetry adapted basis functions of A"  symmetry.
 Crude estimate of integral set expansion from redundant integrals=1.000.
 Integral buffers will be    131072 words long.
 Raffenetti 1 integral format.
 Two-electron integral symmetry is turned on.
    83 basis functions      156 primitive gaussians
    18 alpha electrons       18 beta electrons
       nuclear repulsion energy       164.9792003308 Hartrees.
 One-electron integrals computed using PRISM.
 NBasis=    83 RedAO= T  NBF=    63    20
 NBsUse=    83 1.00D-04 NBFU=    63    20
 Projected INDO Guess.
 Initial guess orbital symmetries:
       Occupied  (A') (A') (A') (A') (A') (A') (A') (A') (A') (A')
                 (A') (A") (A') (A') (A') (A') (A") (A")
       Virtual   (A") (A') (A') (A") (A') (A') (A') (A') (A') (A')
                 (A') (A') (A') (A') (A') (A') (A') (A') (A') (A')
                 (A') (A') (A') (A') (A') (A') (A') (A') (A') (A')
                 (A') (A') (A') (A') (A') (A') (A') (A') (A') (A')
                 (A') (A') (A') (A') (A') (A') (A') (A') (A') (A')
                 (A") (A") (A") (A") (A") (A") (A") (A") (A") (A")
                 (A") (A") (A") (A") (A")
 Requested convergence on RMS density matrix=1.00D-08 within  64 cycles.
 Requested convergence on MAX density matrix=1.00D-06.
 Keep R1 integrals in memory in canonical form, NReq=     6927115.
 SCF Done:  E(RHF) =  -224.814429221     A.U. after   15 cycles
             Convg  =    0.3262D-08             -V/T =  2.0013
             S**2   =   0.0000
 Range of M.O.s used for correlation:     6    83
 NBasis=    83 NAE=    18 NBE=    18 NFC=     5 NFV=     0
 NROrb=     78 NOA=    13 NOB=    13 NVA=    65 NVB=    65
 Estimate disk for full transformation    52910860 words.
 Spin components of T(2) and E(2):
     alpha-alpha T2 =       0.3249335598D-01 E2=     -0.9503403034D-01
     alpha-beta  T2 =       0.1709187774D+00 E2=     -0.5116582777D+00
     beta-beta   T2 =       0.3249335598D-01 E2=     -0.9503403034D-01
 ANorm=    0.1111712863D+01
 E2=       -0.7017263384D+00 EUMP2=       -0.22551615555979D+03
 Iterations=  50 Convergence= 0.100D-07
 Iteration Nr.   1
 **********************
 E3=       -0.14967184D-01        EUMP3=      -0.22553112274D+03
 DE(CI)=   -0.58479912D+00        E(CI)=      -0.22539922834D+03
 NORM(A)=   0.10810276D+01
 Iteration Nr.   2
 **********************
 DE(CI)=   -0.61393201D+00        E(CI)=      -0.22542836123D+03
 NORM(A)=   0.10835453D+01
 Iteration Nr.   3
 **********************
 DE(CI)=   -0.61165212D+00        E(CI)=      -0.22542608134D+03
 NORM(A)=   0.10832404D+01
 Iteration Nr.   4
 **********************
 DE(CI)=   -0.61222250D+00        E(CI)=      -0.22542665172D+03
 NORM(A)=   0.10833739D+01
 Iteration Nr.   5
 **********************
 DE(CI)=   -0.61221345D+00        E(CI)=      -0.22542664267D+03
 NORM(A)=   0.10833969D+01
 Iteration Nr.   6
 **********************
 DE(CI)=   -0.61222526D+00        E(CI)=      -0.22542665448D+03
 NORM(A)=   0.10833983D+01
 Iteration Nr.   7
 **********************
 DE(CI)=   -0.61222129D+00        E(CI)=      -0.22542665051D+03
 NORM(A)=   0.10833975D+01
 Iteration Nr.   8
 **********************
 DE(CI)=   -0.61222208D+00        E(CI)=      -0.22542665130D+03
 NORM(A)=   0.10833975D+01
 Iteration Nr.   9
 **********************
 DE(CI)=   -0.61222207D+00        E(CI)=      -0.22542665129D+03
 NORM(A)=   0.10833975D+01
 Iteration Nr.  10
 **********************
 DE(CI)=   -0.61222207D+00        E(CI)=      -0.22542665130D+03
 NORM(A)=   0.10833976D+01
 Iteration Nr.  11
 **********************
 DE(CI)=   -0.61222208D+00        E(CI)=      -0.22542665130D+03
 NORM(A)=   0.10833976D+01
 Iteration Nr.  12
 **********************
 DE(CI)=   -0.61222208D+00        E(CI)=      -0.22542665130D+03
 NORM(A)=   0.10833976D+01
 ***************************************************************
 Largest amplitude= 4.71D-02
 Discarding MO integrals.
          Differentiating once with respect to electric field.
                with respect to dipole field.
          Differentiating once with respect to nuclear coordinates.
          Store integrals in memory, NReq=     6918543.
          There are   1 degrees of freedom in the 1st order CPHF.
   1 vectors were produced by pass  0.
 AX will form   1 AO Fock derivatives at one time.
   1 vectors were produced by pass  1.
   1 vectors were produced by pass  2.
   1 vectors were produced by pass  3.
   1 vectors were produced by pass  4.
   1 vectors were produced by pass  5.
   1 vectors were produced by pass  6.
   1 vectors were produced by pass  7.
   1 vectors were produced by pass  8.
   1 vectors were produced by pass  9.
   1 vectors were produced by pass 10.
   1 vectors were produced by pass 11.
   1 vectors were produced by pass 12.
   1 vectors were produced by pass 13.
   1 vectors were produced by pass 14.
 Inv2:  IOpt= 1 Iter= 1 AM= 5.71D-16 Conv= 1.00D-12.
 Inverted reduced A of dimension  15 with in-core refinement.

 **********************************************************************

            Population analysis using the SCF density.

 **********************************************************************

 Orbital Symmetries:
       Occupied  (A') (A') (A') (A') (A') (A') (A') (A') (A') (A')
                 (A') (A') (A') (A") (A') (A') (A") (A")
       Virtual   (A") (A') (A") (A') (A') (A') (A') (A') (A') (A')
                 (A') (A') (A") (A') (A") (A') (A") (A') (A') (A')
                 (A") (A') (A') (A') (A") (A') (A') (A') (A') (A')
                 (A') (A') (A') (A") (A") (A") (A') (A') (A") (A")
                 (A') (A') (A') (A') (A') (A') (A") (A") (A') (A')
                 (A") (A") (A') (A') (A") (A') (A') (A') (A') (A')
                 (A') (A') (A') (A') (A')
  The electronic state is 1-A'.
 Alpha  occ. eigenvalues --  -15.61963 -15.53669 -11.28737 -11.25455 -11.23352
 Alpha  occ. eigenvalues --   -1.34654  -1.16675  -1.00911  -0.82709  -0.79804
 Alpha  occ. eigenvalues --   -0.75973  -0.60845  -0.59945  -0.59747  -0.56695
 Alpha  occ. eigenvalues --   -0.42787  -0.39315  -0.31930
 Alpha virt. eigenvalues --    0.19652   0.22096   0.25074   0.28563   0.30017
 Alpha virt. eigenvalues --    0.32042   0.39877   0.42016   0.49012   0.51783
 Alpha virt. eigenvalues --    0.68646   0.71385   0.76548   0.80600   0.80690
 Alpha virt. eigenvalues --    0.84015   0.87695   0.88804   0.90130   0.95130
 Alpha virt. eigenvalues --    1.01939   1.04928   1.05452   1.10054   1.11643
 Alpha virt. eigenvalues --    1.13378   1.16300   1.18290   1.25599   1.28413
 Alpha virt. eigenvalues --    1.45179   1.50000   1.56251   1.58371   1.63247
 Alpha virt. eigenvalues --    1.66213   1.72282   1.78814   1.85204   1.86484
 Alpha virt. eigenvalues --    2.05206   2.19829   2.34119   2.38439   2.43930
 Alpha virt. eigenvalues --    2.47512   2.53904   2.58927   2.63123   2.64404
 Alpha virt. eigenvalues --    2.67610   2.76309   2.92024   2.96096   2.97037
 Alpha virt. eigenvalues --    3.07636   3.11609   3.36033   3.40698   3.47011
 Alpha virt. eigenvalues --    4.31636   4.44881   4.57152   4.65153   4.80629
          Condensed to atoms (all electrons):
              1          2          3          4          5          6
  1  N    6.721211   0.004001  -0.089018   0.003166   0.453120  -0.032614
  2  H    0.004001   0.305616  -0.016696  -0.000278   0.003750  -0.000060
  3  C   -0.089018  -0.016696   4.905267   0.381840   0.654209  -0.041924
  4  H    0.003166  -0.000278   0.381840   0.444000  -0.016455   0.001006
  5  C    0.453120   0.003750   0.654209  -0.016455   4.778643   0.400110
  6  H   -0.032614  -0.000060  -0.041924   0.001006   0.400110   0.465855
  7  H   -0.030790   0.000480   0.002561  -0.000029   0.005253  -0.000052
  8  C    0.584067  -0.016696  -0.114765   0.003611  -0.130902   0.005938
  9  N   -0.098940   0.320793   0.331660  -0.035706  -0.091764   0.002573
              7          8          9
  1  N   -0.030790   0.584067  -0.098940
  2  H    0.000480  -0.016696   0.320793
  3  C    0.002561  -0.114765   0.331660
  4  H   -0.000029   0.003611  -0.035706
  5  C    0.005253  -0.130902  -0.091764
  6  H   -0.000052   0.005938   0.002573
  7  H    0.454913   0.408004  -0.051203
  8  C    0.408004   4.625479   0.366901
  9  N   -0.051203   0.366901   6.968720
 Total atomic charges:
              1
  1  N   -0.514203
  2  H    0.399091
  3  C   -0.013134
  4  H    0.218846
  5  C   -0.055963
  6  H    0.199168
  7  H    0.210863
  8  C    0.268365
  9  N   -0.713033
 Sum of Mulliken charges=   0.00000
 Atomic charges with hydrogens summed into heavy atoms:
              1
  1  N   -0.514203
  2  H    0.000000
  3  C    0.205712
  4  H    0.000000
  5  C    0.143205
  6  H    0.000000
  7  H    0.000000
  8  C    0.479228
  9  N   -0.313942
 Sum of Mulliken charges=   0.00000
 Electronic spatial extent (au):  <R**2>=   280.0239
 Charge=     0.0000 electrons
 Dipole moment (Debye):
    X=     1.1470    Y=     3.6873    Z=     0.0000  Tot=     3.8616
 Quadrupole moment (Debye-Ang):
   XX=   -26.0205   YY=   -25.4537   ZZ=   -31.7040
   XY=    -3.5450   XZ=     0.0000   YZ=     0.0000
 Octapole moment (Debye-Ang**2):
  XXX=     0.3381  YYY=    16.2427  ZZZ=     0.0000  XYY=     5.6970
  XXY=     6.7468  XXZ=     0.0000  XZZ=    -1.1196  YZZ=     1.1342
  YYZ=     0.0000  XYZ=     0.0000
 Hexadecapole moment (Debye-Ang**3):
 XXXX=  -150.2604 YYYY=  -133.0903 ZZZZ=   -31.2985 XXXY=    -3.2451
 XXXZ=     0.0000 YYYX=    -9.2793 YYYZ=     0.0000 ZZZX=     0.0000
 ZZZY=     0.0000 XXYY=   -55.4348 XXZZ=   -37.2487 YYZZ=   -34.8248
 XXYZ=     0.0000 YYXZ=     0.0000 ZZXY=     0.5018
 N-N= 1.649792003308D+02 E-N=-8.553999844826D+02  KE= 2.245160466345D+02
 Symmetry A'   KE= 2.167297206102D+02
 Symmetry A"   KE= 7.786326024341D+00
 ***** Axes restored to original set *****
 -------------------------------------------------------------------
 Center     Atomic                   Forces (Hartrees/Bohr)
 Number     Number              X              Y              Z
 -------------------------------------------------------------------
    1          7          -0.003519290    0.000000000    0.017568637
    2          1           0.001790666    0.000000000   -0.008842547
    3          6          -0.000775064    0.000000000   -0.007136512
    4          1          -0.003368017    0.000000000   -0.002647763
    5          6           0.000123550    0.000000000    0.005294860
    6          1          -0.002833222    0.000000000    0.003111569
    7          1           0.004427223    0.000000000   -0.000641041
    8          6           0.009112578    0.000000000   -0.008645736
    9          7          -0.004958423    0.000000000    0.001938533
 -------------------------------------------------------------------
 Cartesian Forces:  Max     0.017568637 RMS     0.005179114

 GradGradGradGradGradGradGradGradGradGradGradGradGradGradGradGradGradGrad
 Berny optimization.
 Internal  Forces:  Max     0.016809623 RMS     0.004141448
 Search for a local minimum.
 Step number   1 out of a maximum of  48
 All quantities printed in internal units (Hartrees-Bohrs-Radians)
 Second derivative matrix not updated -- first step.
     Eigenvalues ---    0.02198   0.02341   0.02379   0.02551   0.02603
     Eigenvalues ---    0.02705   0.16000   0.16000   0.16000   0.16000
     Eigenvalues ---    0.22000   0.22911   0.37115   0.37237   0.37427
     Eigenvalues ---    0.45111   0.47811   0.48902   0.51454   0.54834
     Eigenvalues ---    0.671221000.000001000.000001000.000001000.00000
     Eigenvalues --- 1000.000001000.000001000.000001000.000001000.00000
     Eigenvalues --- 1000.000001000.000001000.000001000.000001000.00000
     Eigenvalues --- 1000.000001000.000001000.00000
 RFO step:  Lambda=-1.15116579D-03.
 Linear search not attempted -- first point.
 Iteration  1 RMS(Cart)=  0.00937541 RMS(Int)=  0.00000834
 Iteration  2 RMS(Cart)=  0.00000891 RMS(Int)=  0.00000405
 Iteration  3 RMS(Cart)=  0.00000000 RMS(Int)=  0.00000405
 Variable       Old X    -DE/DX   Delta X   Delta X   Delta X     New X
                                 (Linear)    (Quad)   (Total)
    R1        2.59131   0.00465   0.00000   0.00954   0.00954   2.60086
    R2        2.43585   0.01681   0.00000   0.02488   0.02488   2.46074
    R3        1.87690   0.00901   0.00000   0.01839   0.01839   1.89529
    R4        2.01907   0.00428   0.00000   0.01139   0.01139   2.03046
    R5        2.55164   0.01112   0.00000   0.01914   0.01914   2.57077
    R6        2.59299   0.00295   0.00000   0.00471   0.00471   2.59769
    R7        2.02190   0.00421   0.00000   0.01126   0.01126   2.03316
    R8        2.02373   0.00447   0.00000   0.01201   0.01201   2.03574
    R9        2.55007   0.00809   0.00000   0.01512   0.01512   2.56519
    A1        1.83847  -0.00230   0.00000  -0.00466  -0.00465   1.83382
    A2        2.31081  -0.00035   0.00000   0.00147   0.00148   2.31229
    A3        2.13616  -0.00084   0.00000  -0.00158  -0.00157   2.13458
    A4        1.83622   0.00119   0.00000   0.00011   0.00010   1.83632
    A5        1.92817   0.00115   0.00000   0.00321   0.00322   1.93139
    A6        2.11874  -0.00073   0.00000  -0.00256  -0.00256   2.11618
    A7        2.23628  -0.00042   0.00000  -0.00066  -0.00066   2.23562
    A8        2.19228   0.00055   0.00000   0.00096   0.00096   2.19324
    A9        1.95833  -0.00095   0.00000  -0.00098  -0.00097   1.95736
   A10        2.13257   0.00040   0.00000   0.00002   0.00002   2.13259
   A11        2.21222  -0.00084   0.00000  -0.00355  -0.00355   2.20867
   A12        2.20738  -0.00007   0.00000   0.00124   0.00124   2.20862
   A13        1.86359   0.00091   0.00000   0.00231   0.00230   1.86589
    D1        0.00000   0.00000   0.00000   0.00000   0.00000   0.00000
    D2        3.14159   0.00000   0.00000   0.00000   0.00000   3.14159
    D3        3.14159   0.00000   0.00000   0.00000   0.00000   3.14159
    D4        0.00000   0.00000   0.00000   0.00000   0.00000   0.00000
    D5        3.14159   0.00000   0.00000   0.00000   0.00000   3.14159
    D6        0.00000   0.00000   0.00000   0.00000   0.00000   0.00000
    D7        0.00000   0.00000   0.00000   0.00000   0.00000   0.00000
    D8        3.14159   0.00000   0.00000   0.00000   0.00000   3.14159
    D9        0.00000   0.00000   0.00000   0.00000   0.00000   0.00000
   D10        3.14159   0.00000   0.00000   0.00000   0.00000   3.14159
   D11        3.14159   0.00000   0.00000   0.00000   0.00000   3.14159
   D12        0.00000   0.00000   0.00000   0.00000   0.00000   0.00000
   D13        3.14159   0.00000   0.00000   0.00000   0.00000   3.14159
   D14        0.00000   0.00000   0.00000   0.00000   0.00000   0.00000
   D15        0.00000   0.00000   0.00000   0.00000   0.00000   0.00000
   D16        3.14159   0.00000   0.00000   0.00000   0.00000   3.14159
         Item               Value     Threshold  Converged?
 Maximum Force            0.016810     0.000450     NO 
 RMS     Force            0.004141     0.000300     NO 
 Maximum Displacement     0.025961     0.001800     NO 
 RMS     Displacement     0.009375     0.001200     NO 
 Predicted change in Energy=-5.744107D-04
 GradGradGradGradGradGradGradGradGradGradGradGradGradGradGradGradGradGrad

                          Input orientation:                          
 ---------------------------------------------------------------------
 Center     Atomic     Atomic              Coordinates (Angstroms)
 Number     Number      Type              X           Y           Z
 ---------------------------------------------------------------------
    1          7             0        0.499683    0.000000    1.123900
    2          1             0        0.492928    0.000000   -2.042841
    3          6             0       -1.016412    0.000000   -0.539707
    4          1             0       -1.896130    0.000000   -1.156626
    5          6             0       -0.840175    0.000000    0.809224
    6          1             0       -1.593816    0.000000    1.577074
    7          1             0        2.185117    0.000000   -0.161072
    8          6             0        1.116763    0.000000   -0.022768
    9          7             0        0.252146    0.000000   -1.069231
 ---------------------------------------------------------------------
                    Distance matrix (angstroms):
                    1          2          3          4          5
     1  N    0.000000
     2  H    3.166748   0.000000
     3  C    2.250807   2.130145   0.000000
     4  H    3.307676   2.548133   1.074473   0.000000
     5  C    1.376314   3.148244   1.360395   2.231503   0.000000
     6  H    2.141986   4.178311   2.194119   2.750365   1.075903
     7  H    2.119396   2.530722   3.223841   4.200917   3.177085
     8  C    1.302165   2.114205   2.194917   3.219186   2.126457
     9  N    2.207056   1.002943   1.374639   2.150053   2.172960
                    6          7          8          9
     6  H    0.000000
     7  H    4.159506   0.000000
     8  C    3.147496   1.077269   0.000000
     9  N    3.226531   2.135680   1.357441   0.000000
 Stoichiometry    C3H4N2
 Framework group  CS[SG(C3H4N2)]
 Deg. of freedom   15
 Full point group                 CS      NOp   2
 Largest Abelian subgroup         CS      NOp   2
 Largest concise Abelian subgroup C1      NOp   1
                         Standard orientation:                         
 ---------------------------------------------------------------------
 Center     Atomic     Atomic              Coordinates (Angstroms)
 Number     Number      Type              X           Y           Z
 ---------------------------------------------------------------------
    1          7             0       -0.742735   -0.977688    0.000000
    2          1             0       -0.011645    2.103513    0.000000
    3          6             0        1.113761    0.294928    0.000000
    4          1             0        2.111290    0.694213    0.000000
    5          6             0        0.633579   -0.977903    0.000000
    6          1             0        1.191555   -1.897811    0.000000
    7          1             0       -2.089478    0.658810    0.000000
    8          6             0       -1.081103    0.279747    0.000000
    9          7             0        0.000000    1.100638    0.000000
 ---------------------------------------------------------------------
 Rotational constants (GHZ):      9.8486547      9.4951059      4.8343247
 Isotopes: N-14,H-1,C-12,H-1,C-12,H-1,H-1,C-12,N-14
 Standard basis: 6-31G(d) (6D, 7F)
 There are    63 symmetry adapted basis functions of A'  symmetry.
 There are    20 symmetry adapted basis functions of A"  symmetry.
 Crude estimate of integral set expansion from redundant integrals=1.000.
 Integral buffers will be    131072 words long.
 Raffenetti 1 integral format.
 Two-electron integral symmetry is turned on.
    83 basis functions      156 primitive gaussians
    18 alpha electrons       18 beta electrons
       nuclear repulsion energy       164.0085580509 Hartrees.
 One-electron integrals computed using PRISM.
 NBasis=    83 RedAO= T  NBF=    63    20
 NBsUse=    83 1.00D-04 NBFU=    63    20
 Initial guess read from the read-write file:
 Initial guess orbital symmetries:
       Occupied  (A') (A') (A') (A') (A') (A') (A') (A') (A') (A')
                 (A') (A') (A') (A") (A') (A') (A") (A")
       Virtual   (A") (A') (A") (A') (A') (A') (A') (A') (A') (A')
                 (A') (A') (A") (A') (A") (A') (A") (A') (A') (A')
                 (A") (A') (A') (A') (A") (A') (A') (A') (A') (A')
                 (A') (A') (A') (A") (A") (A") (A') (A') (A") (A")
                 (A') (A') (A') (A') (A') (A') (A") (A") (A') (A')
                 (A") (A") (A') (A') (A") (A') (A') (A') (A') (A')
                 (A') (A') (A') (A') (A')
 Requested convergence on RMS density matrix=1.00D-08 within  64 cycles.
 Requested convergence on MAX density matrix=1.00D-06.
 Keep R1 integrals in memory in canonical form, NReq=     6927115.
 SCF Done:  E(RHF) =  -224.813797596     A.U. after   11 cycles
             Convg  =    0.3482D-08             -V/T =  2.0021
             S**2   =   0.0000
 Range of M.O.s used for correlation:     6    83
 NBasis=    83 NAE=    18 NBE=    18 NFC=     5 NFV=     0
 NROrb=     78 NOA=    13 NOB=    13 NVA=    65 NVB=    65
 Estimate disk for full transformation    52910860 words.
 Spin components of T(2) and E(2):
     alpha-alpha T2 =       0.3284811605D-01 E2=     -0.9531175030D-01
     alpha-beta  T2 =       0.1730825533D+00 E2=     -0.5137657656D+00
     beta-beta   T2 =       0.3284811605D-01 E2=     -0.9531175030D-01
 ANorm=    0.1113004396D+01
 E2=       -0.7043892662D+00 EUMP2=       -0.22551818686251D+03
 Iterations=  50 Convergence= 0.100D-07
 Iteration Nr.   1
 **********************
 E3=       -0.14488192D-01        EUMP3=      -0.22553267505D+03
 DE(CI)=   -0.58535387D+00        E(CI)=      -0.22539915147D+03
 NORM(A)=   0.10816526D+01
 Iteration Nr.   2
 **********************
 DE(CI)=   -0.61517007D+00        E(CI)=      -0.22542896766D+03
 NORM(A)=   0.10841896D+01
 Iteration Nr.   3
 **********************
 DE(CI)=   -0.61279526D+00        E(CI)=      -0.22542659286D+03
 NORM(A)=   0.10838624D+01
 Iteration Nr.   4
 **********************
 DE(CI)=   -0.61338030D+00        E(CI)=      -0.22542717789D+03
 NORM(A)=   0.10839983D+01
 Iteration Nr.   5
 **********************
 DE(CI)=   -0.61337177D+00        E(CI)=      -0.22542716937D+03
 NORM(A)=   0.10840227D+01
 Iteration Nr.   6
 **********************
 DE(CI)=   -0.61338368D+00        E(CI)=      -0.22542718128D+03
 NORM(A)=   0.10840243D+01
 Iteration Nr.   7
 **********************
 DE(CI)=   -0.61337959D+00        E(CI)=      -0.22542717719D+03
 NORM(A)=   0.10840234D+01
 Iteration Nr.   8
 **********************
 DE(CI)=   -0.61338042D+00        E(CI)=      -0.22542717802D+03
 NORM(A)=   0.10840234D+01
 Iteration Nr.   9
 **********************
 DE(CI)=   -0.61338041D+00        E(CI)=      -0.22542717801D+03
 NORM(A)=   0.10840234D+01
 Iteration Nr.  10
 **********************
 DE(CI)=   -0.61338042D+00        E(CI)=      -0.22542717801D+03
 NORM(A)=   0.10840234D+01
 Iteration Nr.  11
 **********************
 DE(CI)=   -0.61338043D+00        E(CI)=      -0.22542717802D+03
 NORM(A)=   0.10840235D+01
 Iteration Nr.  12
 **********************
 DE(CI)=   -0.61338042D+00        E(CI)=      -0.22542717802D+03
 NORM(A)=   0.10840235D+01
 ***************************************************************
 Largest amplitude= 4.73D-02
 Discarding MO integrals.
          Differentiating once with respect to electric field.
                with respect to dipole field.
          Differentiating once with respect to nuclear coordinates.
          Store integrals in memory, NReq=     6918543.
          There are   1 degrees of freedom in the 1st order CPHF.
   1 vectors were produced by pass  0.
 AX will form   1 AO Fock derivatives at one time.
   1 vectors were produced by pass  1.
   1 vectors were produced by pass  2.
   1 vectors were produced by pass  3.
   1 vectors were produced by pass  4.
   1 vectors were produced by pass  5.
   1 vectors were produced by pass  6.
   1 vectors were produced by pass  7.
   1 vectors were produced by pass  8.
   1 vectors were produced by pass  9.
   1 vectors were produced by pass 10.
   1 vectors were produced by pass 11.
   1 vectors were produced by pass 12.
   1 vectors were produced by pass 13.
   1 vectors were produced by pass 14.
 Inv2:  IOpt= 1 Iter= 1 AM= 4.78D-16 Conv= 1.00D-12.
 Inverted reduced A of dimension  15 with in-core refinement.
 ***** Axes restored to original set *****
 -------------------------------------------------------------------
 Center     Atomic                   Forces (Hartrees/Bohr)
 Number     Number              X              Y              Z
 -------------------------------------------------------------------
    1          7          -0.001677144    0.000000000    0.000004951
    2          1          -0.000117049    0.000000000    0.000669816
    3          6           0.000465857    0.000000000    0.000114594
    4          1           0.000393844    0.000000000    0.000303261
    5          6           0.000992576    0.000000000   -0.000911735
    6          1           0.000305040    0.000000000   -0.000350400
    7          1          -0.000744593    0.000000000    0.000206704
    8          6           0.000957314    0.000000000   -0.002038568
    9          7          -0.000575844    0.000000000    0.002001377
 -------------------------------------------------------------------
 Cartesian Forces:  Max     0.002038568 RMS     0.000764760

 GradGradGradGradGradGradGradGradGradGradGradGradGradGradGradGradGradGrad
 Berny optimization.
 Internal  Forces:  Max     0.001487348 RMS     0.000522024
 Search for a local minimum.
 Step number   2 out of a maximum of  48
 All quantities printed in internal units (Hartrees-Bohrs-Radians)
 Update second derivatives using information from points  1  2
 Trust test= 9.17D-01 RLast= 4.62D-02 DXMaxT set to 3.00D-01
     Eigenvalues ---    0.02199   0.02341   0.02380   0.02552   0.02603
     Eigenvalues ---    0.02705   0.15995   0.16000   0.16000   0.16012
     Eigenvalues ---    0.21794   0.22947   0.37168   0.37340   0.37957
     Eigenvalues ---    0.45129   0.47485   0.49371   0.51867   0.59124
     Eigenvalues ---    0.657181000.000001000.000001000.000001000.00000
     Eigenvalues --- 1000.000001000.000001000.000001000.000001000.00000
     Eigenvalues --- 1000.000001000.000001000.000001000.000001000.00000
     Eigenvalues --- 1000.000001000.000001000.00000
 RFO step:  Lambda=-1.57359719D-05.
 Quartic linear search produced a step of -0.07106.
 Iteration  1 RMS(Cart)=  0.00127598 RMS(Int)=  0.00000108
 Iteration  2 RMS(Cart)=  0.00000116 RMS(Int)=  0.00000058
 Iteration  3 RMS(Cart)=  0.00000000 RMS(Int)=  0.00000058
 Variable       Old X    -DE/DX   Delta X   Delta X   Delta X     New X
                                 (Linear)    (Quad)   (Total)
    R1        2.60086  -0.00120  -0.00068  -0.00134  -0.00202   2.59883
    R2        2.46074   0.00033  -0.00177   0.00263   0.00086   2.46160
    R3        1.89529  -0.00068  -0.00131   0.00023  -0.00108   1.89421
    R4        2.03046  -0.00050  -0.00081  -0.00030  -0.00111   2.02935
    R5        2.57077  -0.00135  -0.00136  -0.00082  -0.00218   2.56860
    R6        2.59769  -0.00125  -0.00033  -0.00205  -0.00238   2.59531
    R7        2.03316  -0.00046  -0.00080  -0.00023  -0.00103   2.03213
    R8        2.03574  -0.00076  -0.00085  -0.00093  -0.00178   2.03396
    R9        2.56519  -0.00149  -0.00107  -0.00121  -0.00228   2.56291
    A1        1.83382  -0.00006   0.00033   0.00001   0.00034   1.83416
    A2        2.31229   0.00008  -0.00010   0.00072   0.00061   2.31290
    A3        2.13458   0.00012   0.00011   0.00074   0.00085   2.13544
    A4        1.83632  -0.00020  -0.00001  -0.00146  -0.00147   1.83485
    A5        1.93139   0.00026  -0.00023   0.00119   0.00096   1.93234
    A6        2.11618  -0.00010   0.00018  -0.00050  -0.00032   2.11586
    A7        2.23562  -0.00016   0.00005  -0.00068  -0.00064   2.23498
    A8        2.19324   0.00024  -0.00007   0.00072   0.00065   2.19389
    A9        1.95736  -0.00071   0.00007  -0.00266  -0.00260   1.95477
   A10        2.13259   0.00047   0.00000   0.00194   0.00194   2.13453
   A11        2.20867  -0.00031   0.00025  -0.00139  -0.00114   2.20753
   A12        2.20862  -0.00040  -0.00009  -0.00154  -0.00163   2.20699
   A13        1.86589   0.00071  -0.00016   0.00293   0.00277   1.86866
    D1        0.00000   0.00000   0.00000   0.00000   0.00000   0.00000
    D2        3.14159   0.00000   0.00000   0.00000   0.00000   3.14159
    D3        3.14159   0.00000   0.00000   0.00000   0.00000   3.14159
    D4        0.00000   0.00000   0.00000   0.00000   0.00000   0.00000
    D5        3.14159   0.00000   0.00000   0.00000   0.00000   3.14159
    D6        0.00000   0.00000   0.00000   0.00000   0.00000   0.00000
    D7        0.00000   0.00000   0.00000   0.00000   0.00000   0.00000
    D8        3.14159   0.00000   0.00000   0.00000   0.00000   3.14159
    D9        0.00000   0.00000   0.00000   0.00000   0.00000   0.00000
   D10        3.14159   0.00000   0.00000   0.00000   0.00000   3.14159
   D11        3.14159   0.00000   0.00000   0.00000   0.00000   3.14159
   D12        0.00000   0.00000   0.00000   0.00000   0.00000   0.00000
   D13        3.14159   0.00000   0.00000   0.00000   0.00000   3.14159
   D14        0.00000   0.00000   0.00000   0.00000   0.00000   0.00000
   D15        0.00000   0.00000   0.00000   0.00000   0.00000   0.00000
   D16        3.14159   0.00000   0.00000   0.00000   0.00000   3.14159
         Item               Value     Threshold  Converged?
 Maximum Force            0.001487     0.000450     NO 
 RMS     Force            0.000522     0.000300     NO 
 Maximum Displacement     0.004424     0.001800     NO 
 RMS     Displacement     0.001276     0.001200     NO 
 Predicted change in Energy=-1.098898D-05
 GradGradGradGradGradGradGradGradGradGradGradGradGradGradGradGradGradGrad

                          Input orientation:                          
 ---------------------------------------------------------------------
 Center     Atomic     Atomic              Coordinates (Angstroms)
 Number     Number      Type              X           Y           Z
 ---------------------------------------------------------------------
    1          7             0        0.498702    0.000000    1.120938
    2          1             0        0.491724    0.000000   -2.042714
    3          6             0       -1.016692    0.000000   -0.541840
    4          1             0       -1.895846    0.000000   -1.158542
    5          6             0       -0.839963    0.000000    0.805865
    6          1             0       -1.593342    0.000000    1.573204
    7          1             0        2.184373    0.000000   -0.163638
    8          6             0        1.116933    0.000000   -0.025627
    9          7             0        0.251226    0.000000   -1.069620
 ---------------------------------------------------------------------
                    Distance matrix (angstroms):
                    1          2          3          4          5
     1  N    0.000000
     2  H    3.163660   0.000000
     3  C    2.249722   2.127897   0.000000
     4  H    3.306039   2.546027   1.073887   0.000000
     5  C    1.375244   3.144486   1.359242   2.230198   0.000000
     6  H    2.140373   4.174011   2.192245   2.748445   1.075356
     7  H    2.119345   2.529029   3.223330   4.199765   3.175932
     8  C    1.302621   2.111759   2.195184   3.218747   2.126222
     9  N    2.204493   1.002373   1.373378   2.148912   2.169824
                    6          7          8          9
     6  H    0.000000
     7  H    4.157855   0.000000
     8  C    3.146721   1.076325   0.000000
     9  N    3.222879   2.134915   1.356234   0.000000
 Stoichiometry    C3H4N2
 Framework group  CS[SG(C3H4N2)]
 Deg. of freedom   15
 Full point group                 CS      NOp   2
 Largest Abelian subgroup         CS      NOp   2
 Largest concise Abelian subgroup C1      NOp   1
                         Standard orientation:                         
 ---------------------------------------------------------------------
 Center     Atomic     Atomic              Coordinates (Angstroms)
 Number     Number      Type              X           Y           Z
 ---------------------------------------------------------------------
    1          7             0       -0.741919   -0.977213    0.000000
    2          1             0       -0.011568    2.100990    0.000000
    3          6             0        1.113603    0.294907    0.000000
    4          1             0        2.110500    0.694193    0.000000
    5          6             0        0.633325   -0.976656    0.000000
    6          1             0        1.191238   -1.895962    0.000000
    7          1             0       -2.089116    0.658844    0.000000
    8          6             0       -1.081533    0.280357    0.000000
    9          7             0        0.000000    1.098683    0.000000
 ---------------------------------------------------------------------
 Rotational constants (GHZ):      9.8549953      9.5134673      4.8406101
 Isotopes: N-14,H-1,C-12,H-1,C-12,H-1,H-1,C-12,N-14
 Standard basis: 6-31G(d) (6D, 7F)
 There are    63 symmetry adapted basis functions of A'  symmetry.
 There are    20 symmetry adapted basis functions of A"  symmetry.
 Crude estimate of integral set expansion from redundant integrals=1.000.
 Integral buffers will be    131072 words long.
 Raffenetti 1 integral format.
 Two-electron integral symmetry is turned on.
    83 basis functions      156 primitive gaussians
    18 alpha electrons       18 beta electrons
       nuclear repulsion energy       164.1114089157 Hartrees.
 One-electron integrals computed using PRISM.
 NBasis=    83 RedAO= T  NBF=    63    20
 NBsUse=    83 1.00D-04 NBFU=    63    20
 Initial guess read from the read-write file:
 Initial guess orbital symmetries:
       Occupied  (A') (A') (A') (A') (A') (A') (A') (A') (A') (A')
                 (A') (A') (A') (A") (A') (A') (A") (A")
       Virtual   (A") (A') (A") (A') (A') (A') (A') (A') (A') (A')
                 (A') (A') (A") (A') (A") (A') (A") (A') (A') (A')
                 (A") (A') (A') (A') (A") (A') (A') (A') (A') (A')
                 (A') (A') (A') (A") (A") (A") (A') (A') (A") (A")
                 (A') (A') (A') (A') (A') (A') (A") (A") (A') (A')
                 (A") (A") (A') (A") (A') (A') (A') (A') (A') (A')
                 (A') (A') (A') (A') (A')
 Requested convergence on RMS density matrix=1.00D-08 within  64 cycles.
 Requested convergence on MAX density matrix=1.00D-06.
 Keep R1 integrals in memory in canonical form, NReq=     6927115.
 SCF Done:  E(RHF) =  -224.813877608     A.U. after    9 cycles
             Convg  =    0.8575D-08             -V/T =  2.0020
             S**2   =   0.0000
 Range of M.O.s used for correlation:     6    83
 NBasis=    83 NAE=    18 NBE=    18 NFC=     5 NFV=     0
 NROrb=     78 NOA=    13 NOB=    13 NVA=    65 NVB=    65
 Estimate disk for full transformation    52910860 words.
 Spin components of T(2) and E(2):
     alpha-alpha T2 =       0.3282876352D-01 E2=     -0.9530975473D-01
     alpha-beta  T2 =       0.1729077963D+00 E2=     -0.5136121692D+00
     beta-beta   T2 =       0.3282876352D-01 E2=     -0.9530975473D-01
 ANorm=    0.1112908497D+01
 E2=       -0.7042316787D+00 EUMP2=       -0.22551810928654D+03
 Iterations=  50 Convergence= 0.100D-07
 Iteration Nr.   1
 **********************
 E3=       -0.14493869D-01        EUMP3=      -0.22553260316D+03
 DE(CI)=   -0.58532552D+00        E(CI)=      -0.22539920313D+03
 NORM(A)=   0.10815982D+01
 Iteration Nr.   2
 **********************
 DE(CI)=   -0.61509684D+00        E(CI)=      -0.22542897445D+03
 NORM(A)=   0.10841321D+01
 Iteration Nr.   3
 **********************
 DE(CI)=   -0.61272832D+00        E(CI)=      -0.22542660593D+03
 NORM(A)=   0.10838061D+01
 Iteration Nr.   4
 **********************
 DE(CI)=   -0.61331195D+00        E(CI)=      -0.22542718956D+03
 NORM(A)=   0.10839416D+01
 Iteration Nr.   5
 **********************
 DE(CI)=   -0.61330346D+00        E(CI)=      -0.22542718107D+03
 NORM(A)=   0.10839659D+01
 Iteration Nr.   6
 **********************
 DE(CI)=   -0.61331532D+00        E(CI)=      -0.22542719293D+03
 NORM(A)=   0.10839675D+01
 Iteration Nr.   7
 **********************
 DE(CI)=   -0.61331125D+00        E(CI)=      -0.22542718885D+03
 NORM(A)=   0.10839667D+01
 Iteration Nr.   8
 **********************
 DE(CI)=   -0.61331208D+00        E(CI)=      -0.22542718968D+03
 NORM(A)=   0.10839666D+01
 Iteration Nr.   9
 **********************
 DE(CI)=   -0.61331206D+00        E(CI)=      -0.22542718967D+03
 NORM(A)=   0.10839667D+01
 Iteration Nr.  10
 **********************
 DE(CI)=   -0.61331207D+00        E(CI)=      -0.22542718968D+03
 NORM(A)=   0.10839667D+01
 Iteration Nr.  11
 **********************
 DE(CI)=   -0.61331208D+00        E(CI)=      -0.22542718968D+03
 NORM(A)=   0.10839667D+01
 Iteration Nr.  12
 **********************
 DE(CI)=   -0.61331208D+00        E(CI)=      -0.22542718968D+03
 NORM(A)=   0.10839667D+01
 ***************************************************************
 Largest amplitude= 4.73D-02
 Discarding MO integrals.
          Differentiating once with respect to electric field.
                with respect to dipole field.
          Differentiating once with respect to nuclear coordinates.
          Store integrals in memory, NReq=     6918543.
          There are   1 degrees of freedom in the 1st order CPHF.
   1 vectors were produced by pass  0.
 AX will form   1 AO Fock derivatives at one time.
   1 vectors were produced by pass  1.
   1 vectors were produced by pass  2.
   1 vectors were produced by pass  3.
   1 vectors were produced by pass  4.
   1 vectors were produced by pass  5.
   1 vectors were produced by pass  6.
   1 vectors were produced by pass  7.
   1 vectors were produced by pass  8.
   1 vectors were produced by pass  9.
   1 vectors were produced by pass 10.
   1 vectors were produced by pass 11.
   1 vectors were produced by pass 12.
   1 vectors were produced by pass 13.
   1 vectors were produced by pass 14.
 Inv2:  IOpt= 1 Iter= 1 AM= 4.97D-16 Conv= 1.00D-12.
 Inverted reduced A of dimension  15 with in-core refinement.
 ***** Axes restored to original set *****
 -------------------------------------------------------------------
 Center     Atomic                   Forces (Hartrees/Bohr)
 Number     Number              X              Y              Z
 -------------------------------------------------------------------
    1          7          -0.000664541    0.000000000    0.000373961
    2          1          -0.000001396    0.000000000    0.000050144
    3          6           0.000246142    0.000000000   -0.000246216
    4          1           0.000069991    0.000000000    0.000027143
    5          6           0.000493414    0.000000000    0.000377686
    6          1           0.000009424    0.000000000    0.000004435
    7          1          -0.000098401    0.000000000    0.000063000
    8          6          -0.000135897    0.000000000   -0.000775535
    9          7           0.000081265    0.000000000    0.000125382
 -------------------------------------------------------------------
 Cartesian Forces:  Max     0.000775535 RMS     0.000254801

 GradGradGradGradGradGradGradGradGradGradGradGradGradGradGradGradGradGrad
 Berny optimization.
 Internal  Forces:  Max     0.000568312 RMS     0.000156045
 Search for a local minimum.
 Step number   3 out of a maximum of  48
 All quantities printed in internal units (Hartrees-Bohrs-Radians)
 Update second derivatives using information from points  1  2  3
 Trust test= 1.06D+00 RLast= 7.38D-03 DXMaxT set to 3.00D-01
     Eigenvalues ---    0.02199   0.02341   0.02380   0.02552   0.02603
     Eigenvalues ---    0.02705   0.15857   0.16000   0.16000   0.16009
     Eigenvalues ---    0.22704   0.25229   0.35693   0.37352   0.37368
     Eigenvalues ---    0.41756   0.45163   0.48647   0.50411   0.56725
     Eigenvalues ---    0.693971000.000001000.000001000.000001000.00000
     Eigenvalues --- 1000.000001000.000001000.000001000.000001000.00000
     Eigenvalues --- 1000.000001000.000001000.000001000.000001000.00000
     Eigenvalues --- 1000.000001000.000001000.00000
 RFO step:  Lambda=-2.09024894D-06.
 Quartic linear search produced a step of  0.07242.
 Iteration  1 RMS(Cart)=  0.00042286 RMS(Int)=  0.00000004
 Iteration  2 RMS(Cart)=  0.00000004 RMS(Int)=  0.00000001
 Variable       Old X    -DE/DX   Delta X   Delta X   Delta X     New X
                                 (Linear)    (Quad)   (Total)
    R1        2.59883  -0.00057  -0.00015  -0.00122  -0.00137   2.59747
    R2        2.46160   0.00048   0.00006   0.00085   0.00091   2.46251
    R3        1.89421  -0.00005  -0.00008  -0.00008  -0.00016   1.89405
    R4        2.02935  -0.00007  -0.00008  -0.00021  -0.00029   2.02906
    R5        2.56860   0.00026  -0.00016   0.00050   0.00034   2.56894
    R6        2.59531  -0.00022  -0.00017  -0.00055  -0.00073   2.59458
    R7        2.03213   0.00000  -0.00007  -0.00001  -0.00008   2.03205
    R8        2.03396  -0.00011  -0.00013  -0.00033  -0.00045   2.03351
    R9        2.56291  -0.00039  -0.00017  -0.00080  -0.00096   2.56195
    A1        1.83416  -0.00010   0.00002  -0.00033  -0.00031   1.83385
    A2        2.31290  -0.00004   0.00004  -0.00011  -0.00007   2.31283
    A3        2.13544  -0.00008   0.00006  -0.00036  -0.00030   2.13514
    A4        1.83485   0.00012  -0.00011   0.00048   0.00037   1.83522
    A5        1.93234  -0.00004   0.00007  -0.00013  -0.00006   1.93228
    A6        2.11586   0.00001  -0.00002   0.00000  -0.00002   2.11584
    A7        2.23498   0.00003  -0.00005   0.00013   0.00009   2.23507
    A8        2.19389  -0.00011   0.00005  -0.00063  -0.00059   2.19330
    A9        1.95477   0.00012  -0.00019   0.00055   0.00036   1.95512
   A10        2.13453  -0.00001   0.00014   0.00009   0.00023   2.13476
   A11        2.20753   0.00007  -0.00008   0.00035   0.00026   2.20780
   A12        2.20699   0.00005  -0.00012   0.00021   0.00009   2.20708
   A13        1.86866  -0.00012   0.00020  -0.00056  -0.00035   1.86831
    D1        0.00000   0.00000   0.00000   0.00000   0.00000   0.00000
    D2        3.14159   0.00000   0.00000   0.00000   0.00000   3.14159
    D3        3.14159   0.00000   0.00000   0.00000   0.00000   3.14159
    D4        0.00000   0.00000   0.00000   0.00000   0.00000   0.00000
    D5        3.14159   0.00000   0.00000   0.00000   0.00000   3.14159
    D6        0.00000   0.00000   0.00000   0.00000   0.00000   0.00000
    D7        0.00000   0.00000   0.00000   0.00000   0.00000   0.00000
    D8        3.14159   0.00000   0.00000   0.00000   0.00000   3.14159
    D9        0.00000   0.00000   0.00000   0.00000   0.00000   0.00000
   D10        3.14159   0.00000   0.00000   0.00000   0.00000   3.14159
   D11        3.14159   0.00000   0.00000   0.00000   0.00000   3.14159
   D12        0.00000   0.00000   0.00000   0.00000   0.00000   0.00000
   D13        3.14159   0.00000   0.00000   0.00000   0.00000   3.14159
   D14        0.00000   0.00000   0.00000   0.00000   0.00000   0.00000
   D15        0.00000   0.00000   0.00000   0.00000   0.00000   0.00000
   D16        3.14159   0.00000   0.00000   0.00000   0.00000   3.14159
         Item               Value     Threshold  Converged?
 Maximum Force            0.000568     0.000450     NO 
 RMS     Force            0.000156     0.000300     YES
 Maximum Displacement     0.001267     0.001800     YES
 RMS     Displacement     0.000423     0.001200     YES
 Predicted change in Energy=-1.098467D-06
 GradGradGradGradGradGradGradGradGradGradGradGradGradGradGradGradGradGrad

                          Input orientation:                          
 ---------------------------------------------------------------------
 Center     Atomic     Atomic              Coordinates (Angstroms)
 Number     Number      Type              X           Y           Z
 ---------------------------------------------------------------------
    1          7             0        0.498296    0.000000    1.121160
    2          1             0        0.491790    0.000000   -2.042685
    3          6             0       -1.016183    0.000000   -0.541779
    4          1             0       -1.895159    0.000000   -1.158466
    5          6             0       -0.839637    0.000000    0.806132
    6          1             0       -1.593037    0.000000    1.573390
    7          1             0        2.183756    0.000000   -0.163555
    8          6             0        1.116504    0.000000   -0.025966
    9          7             0        0.251266    0.000000   -1.069686
 ---------------------------------------------------------------------
                    Distance matrix (angstroms):
                    1          2          3          4          5
     1  N    0.000000
     2  H    3.163852   0.000000
     3  C    2.249224   2.127605   0.000000
     4  H    3.305347   2.545461   1.073734   0.000000
     5  C    1.374520   3.144592   1.359424   2.230197   0.000000
     6  H    2.139669   4.174028   2.192419   2.748512   1.075312
     7  H    2.119262   2.528612   3.222214   4.198500   3.175090
     8  C    1.303103   2.111262   2.194178   3.217557   2.125764
     9  N    2.204729   1.002287   1.372994   2.148261   2.169969
                    6          7          8          9
     6  H    0.000000
     7  H    4.157060   0.000000
     8  C    3.146355   1.076085   0.000000
     9  N    3.222934   2.134383   1.355724   0.000000
 Stoichiometry    C3H4N2
 Framework group  CS[SG(C3H4N2)]
 Deg. of freedom   15
 Full point group                 CS      NOp   2
 Largest Abelian subgroup         CS      NOp   2
 Largest concise Abelian subgroup C1      NOp   1
                         Standard orientation:                         
 ---------------------------------------------------------------------
 Center     Atomic     Atomic              Coordinates (Angstroms)
 Number     Number      Type              X           Y           Z
 ---------------------------------------------------------------------
    1          7             0       -0.741562   -0.977481    0.000000
    2          1             0       -0.011608    2.101013    0.000000
    3          6             0        1.113112    0.294993    0.000000
    4          1             0        2.109836    0.694299    0.000000
    5          6             0        0.632958   -0.976810    0.000000
    6          1             0        1.190904   -1.896045    0.000000
    7          1             0       -2.088512    0.658671    0.000000
    8          6             0       -1.081018    0.280631    0.000000
    9          7             0        0.000000    1.098793    0.000000
 ---------------------------------------------------------------------
 Rotational constants (GHZ):      9.8608008      9.5131636      4.8419316
 Isotopes: N-14,H-1,C-12,H-1,C-12,H-1,H-1,C-12,N-14
 Standard basis: 6-31G(d) (6D, 7F)
 There are    63 symmetry adapted basis functions of A'  symmetry.
 There are    20 symmetry adapted basis functions of A"  symmetry.
 Crude estimate of integral set expansion from redundant integrals=1.000.
 Integral buffers will be    131072 words long.
 Raffenetti 1 integral format.
 Two-electron integral symmetry is turned on.
    83 basis functions      156 primitive gaussians
    18 alpha electrons       18 beta electrons
       nuclear repulsion energy       164.1334804539 Hartrees.
 One-electron integrals computed using PRISM.
 NBasis=    83 RedAO= T  NBF=    63    20
 NBsUse=    83 1.00D-04 NBFU=    63    20
 Initial guess read from the read-write file:
 Initial guess orbital symmetries:
       Occupied  (A') (A') (A') (A') (A') (A') (A') (A') (A') (A')
                 (A') (A') (A') (A") (A') (A') (A") (A")
       Virtual   (A") (A') (A") (A') (A') (A') (A') (A') (A') (A')
                 (A') (A') (A") (A') (A") (A') (A") (A') (A') (A')
                 (A") (A') (A') (A') (A") (A') (A') (A') (A') (A')
                 (A') (A') (A') (A") (A") (A") (A') (A') (A") (A")
                 (A') (A') (A') (A') (A') (A') (A") (A") (A') (A')
                 (A") (A") (A') (A") (A') (A') (A') (A') (A') (A')
                 (A') (A') (A') (A') (A')
 Requested convergence on RMS density matrix=1.00D-08 within  64 cycles.
 Requested convergence on MAX density matrix=1.00D-06.
 Keep R1 integrals in memory in canonical form, NReq=     6927115.
 SCF Done:  E(RHF) =  -224.813881272     A.U. after    9 cycles
             Convg  =    0.4210D-08             -V/T =  2.0020
             S**2   =   0.0000
 Range of M.O.s used for correlation:     6    83
 NBasis=    83 NAE=    18 NBE=    18 NFC=     5 NFV=     0
 NROrb=     78 NOA=    13 NOB=    13 NVA=    65 NVB=    65
 Estimate disk for full transformation    52910860 words.
 Spin components of T(2) and E(2):
     alpha-alpha T2 =       0.3282894819D-01 E2=     -0.9531589814D-01
     alpha-beta  T2 =       0.1728865280D+00 E2=     -0.5135962916D+00
     beta-beta   T2 =       0.3282894819D-01 E2=     -0.9531589814D-01
 ANorm=    0.1112899108D+01
 E2=       -0.7042280879D+00 EUMP2=       -0.22551810936002D+03
 Iterations=  50 Convergence= 0.100D-07
 Iteration Nr.   1
 **********************
 E3=       -0.14483315D-01        EUMP3=      -0.22553259268D+03
 DE(CI)=   -0.58532531D+00        E(CI)=      -0.22539920658D+03
 NORM(A)=   0.10815896D+01
 Iteration Nr.   2
 **********************
 DE(CI)=   -0.61509426D+00        E(CI)=      -0.22542897553D+03
 NORM(A)=   0.10841224D+01
 Iteration Nr.   3
 **********************
 DE(CI)=   -0.61272576D+00        E(CI)=      -0.22542660703D+03
 NORM(A)=   0.10837963D+01
 Iteration Nr.   4
 **********************
 DE(CI)=   -0.61330925D+00        E(CI)=      -0.22542719052D+03
 NORM(A)=   0.10839317D+01
 Iteration Nr.   5
 **********************
 DE(CI)=   -0.61330074D+00        E(CI)=      -0.22542718201D+03
 NORM(A)=   0.10839560D+01
 Iteration Nr.   6
 **********************
 DE(CI)=   -0.61331259D+00        E(CI)=      -0.22542719386D+03
 NORM(A)=   0.10839576D+01
 Iteration Nr.   7
 **********************
 DE(CI)=   -0.61330852D+00        E(CI)=      -0.22542718980D+03
 NORM(A)=   0.10839567D+01
 Iteration Nr.   8
 **********************
 DE(CI)=   -0.61330935D+00        E(CI)=      -0.22542719062D+03
 NORM(A)=   0.10839567D+01
 Iteration Nr.   9
 **********************
 DE(CI)=   -0.61330934D+00        E(CI)=      -0.22542719061D+03
 NORM(A)=   0.10839567D+01
 Iteration Nr.  10
 **********************
 DE(CI)=   -0.61330935D+00        E(CI)=      -0.22542719062D+03
 NORM(A)=   0.10839567D+01
 Iteration Nr.  11
 **********************
 DE(CI)=   -0.61330935D+00        E(CI)=      -0.22542719063D+03
 NORM(A)=   0.10839567D+01
 Iteration Nr.  12
 **********************
 DE(CI)=   -0.61330935D+00        E(CI)=      -0.22542719062D+03
 NORM(A)=   0.10839567D+01
 ***************************************************************
 Largest amplitude= 4.73D-02
 Discarding MO integrals.
          Differentiating once with respect to electric field.
                with respect to dipole field.
          Differentiating once with respect to nuclear coordinates.
          Store integrals in memory, NReq=     6918543.
          There are   1 degrees of freedom in the 1st order CPHF.
   1 vectors were produced by pass  0.
 AX will form   1 AO Fock derivatives at one time.
   1 vectors were produced by pass  1.
   1 vectors were produced by pass  2.
   1 vectors were produced by pass  3.
   1 vectors were produced by pass  4.
   1 vectors were produced by pass  5.
   1 vectors were produced by pass  6.
   1 vectors were produced by pass  7.
   1 vectors were produced by pass  8.
   1 vectors were produced by pass  9.
   1 vectors were produced by pass 10.
   1 vectors were produced by pass 11.
   1 vectors were produced by pass 12.
   1 vectors were produced by pass 13.
   1 vectors were produced by pass 14.
 Inv2:  IOpt= 1 Iter= 1 AM= 5.30D-16 Conv= 1.00D-12.
 Inverted reduced A of dimension  15 with in-core refinement.
 ***** Axes restored to original set *****
 -------------------------------------------------------------------
 Center     Atomic                   Forces (Hartrees/Bohr)
 Number     Number              X              Y              Z
 -------------------------------------------------------------------
    1          7          -0.000018641    0.000000000   -0.000016922
    2          1           0.000010235    0.000000000   -0.000026725
    3          6          -0.000192672    0.000000000   -0.000142182
    4          1          -0.000051961    0.000000000   -0.000021749
    5          6           0.000088078    0.000000000    0.000126413
    6          1          -0.000052372    0.000000000    0.000004407
    7          1           0.000080279    0.000000000    0.000020815
    8          6           0.000097642    0.000000000   -0.000065794
    9          7           0.000039412    0.000000000    0.000121737
 -------------------------------------------------------------------
 Cartesian Forces:  Max     0.000192672 RMS     0.000068199

 GradGradGradGradGradGradGradGradGradGradGradGradGradGradGradGradGradGrad
 Berny optimization.
 Internal  Forces:  Max     0.000126252 RMS     0.000048550
 Search for a local minimum.
 Step number   4 out of a maximum of  48
 All quantities printed in internal units (Hartrees-Bohrs-Radians)
 Update second derivatives using information from points  1  2  3  4
 Trust test= 8.55D-01 RLast= 2.38D-03 DXMaxT set to 3.00D-01
     Eigenvalues ---    0.02199   0.02341   0.02380   0.02552   0.02603
     Eigenvalues ---    0.02705   0.15120   0.16000   0.16002   0.16079
     Eigenvalues ---    0.22676   0.24593   0.37230   0.37362   0.38264
     Eigenvalues ---    0.45152   0.47972   0.48875   0.50652   0.57391
     Eigenvalues ---    0.653221000.000001000.000001000.000001000.00000
     Eigenvalues --- 1000.000001000.000001000.000001000.000001000.00000
     Eigenvalues --- 1000.000001000.000001000.000001000.000001000.00000
     Eigenvalues --- 1000.000001000.000001000.00000
 RFO step:  Lambda=-1.94372687D-07.
 Quartic linear search produced a step of -0.12600.
 Iteration  1 RMS(Cart)=  0.00015341 RMS(Int)=  0.00000001
 Iteration  2 RMS(Cart)=  0.00000001 RMS(Int)=  0.00000001
 Variable       Old X    -DE/DX   Delta X   Delta X   Delta X     New X
                                 (Linear)    (Quad)   (Total)
    R1        2.59747   0.00004   0.00017  -0.00021  -0.00004   2.59743
    R2        2.46251   0.00004  -0.00011   0.00023   0.00012   2.46263
    R3        1.89405   0.00003   0.00002   0.00002   0.00004   1.89409
    R4        2.02906   0.00006   0.00004   0.00007   0.00011   2.02917
    R5        2.56894   0.00012  -0.00004   0.00029   0.00024   2.56918
    R6        2.59458   0.00013   0.00009   0.00008   0.00017   2.59476
    R7        2.03205   0.00004   0.00001   0.00008   0.00009   2.03214
    R8        2.03351   0.00008   0.00006   0.00009   0.00015   2.03366
    R9        2.56195   0.00004   0.00012  -0.00014  -0.00002   2.56193
    A1        1.83385   0.00006   0.00004   0.00014   0.00018   1.83402
    A2        2.31283   0.00004   0.00001   0.00008   0.00009   2.31292
    A3        2.13514   0.00006   0.00004   0.00017   0.00020   2.13534
    A4        1.83522  -0.00009  -0.00005  -0.00025  -0.00030   1.83492
    A5        1.93228   0.00001   0.00001   0.00005   0.00006   1.93234
    A6        2.11584   0.00003   0.00000   0.00016   0.00016   2.11599
    A7        2.23507  -0.00004  -0.00001  -0.00021  -0.00022   2.23485
    A8        2.19330   0.00001   0.00007  -0.00014  -0.00007   2.19324
    A9        1.95512  -0.00007  -0.00005  -0.00023  -0.00028   1.95485
   A10        2.13476   0.00007  -0.00003   0.00038   0.00035   2.13510
   A11        2.20780  -0.00004  -0.00003  -0.00011  -0.00014   2.20765
   A12        2.20708  -0.00005  -0.00001  -0.00018  -0.00019   2.20689
   A13        1.86831   0.00009   0.00004   0.00029   0.00034   1.86865
    D1        0.00000   0.00000   0.00000   0.00000   0.00000   0.00000
    D2        3.14159   0.00000   0.00000   0.00000   0.00000   3.14159
    D3        3.14159   0.00000   0.00000   0.00000   0.00000   3.14159
    D4        0.00000   0.00000   0.00000   0.00000   0.00000   0.00000
    D5        3.14159   0.00000   0.00000   0.00000   0.00000   3.14159
    D6        0.00000   0.00000   0.00000   0.00000   0.00000   0.00000
    D7        0.00000   0.00000   0.00000   0.00000   0.00000   0.00000
    D8        3.14159   0.00000   0.00000   0.00000   0.00000   3.14159
    D9        0.00000   0.00000   0.00000   0.00000   0.00000   0.00000
   D10        3.14159   0.00000   0.00000   0.00000   0.00000   3.14159
   D11        3.14159   0.00000   0.00000   0.00000   0.00000   3.14159
   D12        0.00000   0.00000   0.00000   0.00000   0.00000   0.00000
   D13        3.14159   0.00000   0.00000   0.00000   0.00000   3.14159
   D14        0.00000   0.00000   0.00000   0.00000   0.00000   0.00000
   D15        0.00000   0.00000   0.00000   0.00000   0.00000   0.00000
   D16        3.14159   0.00000   0.00000   0.00000   0.00000   3.14159
         Item               Value     Threshold  Converged?
 Maximum Force            0.000126     0.000450     YES
 RMS     Force            0.000049     0.000300     YES
 Maximum Displacement     0.000516     0.001800     YES
 RMS     Displacement     0.000153     0.001200     YES
 Predicted change in Energy=-1.171323D-07
 Optimization completed.
    -- Stationary point found.
                         ----------------------------
                         !   Optimized Parameters   !
                         ! (Angstroms and Degrees)  !
 ------------------------                            -------------------------
 ! Name  Definition              Value          Derivative Info.             !
 -----------------------------------------------------------------------------
 ! R1    R(1,5)                  1.3745         -DE/DX =    0.               !
 ! R2    R(1,8)                  1.3031         -DE/DX =    0.               !
 ! R3    R(2,9)                  1.0023         -DE/DX =    0.               !
 ! R4    R(3,4)                  1.0737         -DE/DX =    0.0001           !
 ! R5    R(3,5)                  1.3594         -DE/DX =    0.0001           !
 ! R6    R(3,9)                  1.373          -DE/DX =    0.0001           !
 ! R7    R(5,6)                  1.0753         -DE/DX =    0.               !
 ! R8    R(7,8)                  1.0761         -DE/DX =    0.0001           !
 ! R9    R(8,9)                  1.3557         -DE/DX =    0.               !
 ! A1    A(5,1,8)              105.0717         -DE/DX =    0.0001           !
 ! A2    A(4,3,5)              132.5154         -DE/DX =    0.               !
 ! A3    A(4,3,9)              122.3343         -DE/DX =    0.0001           !
 ! A4    A(5,3,9)              105.1503         -DE/DX =   -0.0001           !
 ! A5    A(1,5,3)              110.7114         -DE/DX =    0.               !
 ! A6    A(1,5,6)              121.2285         -DE/DX =    0.               !
 ! A7    A(3,5,6)              128.0601         -DE/DX =    0.               !
 ! A8    A(1,8,7)              125.6671         -DE/DX =    0.               !
 ! A9    A(1,8,9)              112.0204         -DE/DX =   -0.0001           !
 ! A10   A(7,8,9)              122.3125         -DE/DX =    0.0001           !
 ! A11   A(2,9,3)              126.4974         -DE/DX =    0.               !
 ! A12   A(2,9,8)              126.4564         -DE/DX =    0.               !
 ! A13   A(3,9,8)              107.0462         -DE/DX =    0.0001           !
 ! D1    D(8,1,5,3)              0.             -DE/DX =    0.               !
 ! D2    D(8,1,5,6)            180.             -DE/DX =    0.               !
 ! D3    D(5,1,8,7)            180.             -DE/DX =    0.               !
 ! D4    D(5,1,8,9)              0.             -DE/DX =    0.               !
 ! D5    D(4,3,5,1)            180.             -DE/DX =    0.               !
 ! D6    D(4,3,5,6)              0.             -DE/DX =    0.               !
 ! D7    D(9,3,5,1)              0.             -DE/DX =    0.               !
 ! D8    D(9,3,5,6)            180.             -DE/DX =    0.               !
 ! D9    D(4,3,9,2)              0.             -DE/DX =    0.               !
 ! D10   D(4,3,9,8)            180.             -DE/DX =    0.               !
 ! D11   D(5,3,9,2)            180.             -DE/DX =    0.               !
 ! D12   D(5,3,9,8)              0.             -DE/DX =    0.               !
 ! D13   D(1,8,9,2)            180.             -DE/DX =    0.               !
 ! D14   D(1,8,9,3)              0.             -DE/DX =    0.               !
 ! D15   D(7,8,9,2)              0.             -DE/DX =    0.               !
 ! D16   D(7,8,9,3)            180.             -DE/DX =    0.               !
 -----------------------------------------------------------------------------
 GradGradGradGradGradGradGradGradGradGradGradGradGradGradGradGradGradGrad

                          Input orientation:                          
 ---------------------------------------------------------------------
 Center     Atomic     Atomic              Coordinates (Angstroms)
 Number     Number      Type              X           Y           Z
 ---------------------------------------------------------------------
    1          7             0        0.498340    0.000000    1.121178
    2          1             0        0.491835    0.000000   -2.042667
    3          6             0       -1.016138    0.000000   -0.541760
    4          1             0       -1.895115    0.000000   -1.158448
    5          6             0       -0.839592    0.000000    0.806151
    6          1             0       -1.592992    0.000000    1.573409
    7          1             0        2.183801    0.000000   -0.163536
    8          6             0        1.116549    0.000000   -0.025947
    9          7             0        0.251311    0.000000   -1.069667
 ---------------------------------------------------------------------
                    Distance matrix (angstroms):
                    1          2          3          4          5
     1  N    0.000000
     2  H    3.163852   0.000000
     3  C    2.249224   2.127605   0.000000
     4  H    3.305347   2.545461   1.073734   0.000000
     5  C    1.374520   3.144592   1.359424   2.230197   0.000000
     6  H    2.139669   4.174028   2.192419   2.748512   1.075312
     7  H    2.119262   2.528612   3.222214   4.198500   3.175090
     8  C    1.303103   2.111262   2.194178   3.217557   2.125764
     9  N    2.204729   1.002287   1.372994   2.148261   2.169969
                    6          7          8          9
     6  H    0.000000
     7  H    4.157060   0.000000
     8  C    3.146355   1.076085   0.000000
     9  N    3.222934   2.134383   1.355724   0.000000
 Stoichiometry    C3H4N2
 Framework group  CS[SG(C3H4N2)]
 Deg. of freedom   15
 Full point group                 CS      NOp   2
 Largest Abelian subgroup         CS      NOp   2
 Largest concise Abelian subgroup C1      NOp   1
                         Standard orientation:                         
 ---------------------------------------------------------------------
 Center     Atomic     Atomic              Coordinates (Angstroms)
 Number     Number      Type              X           Y           Z
 ---------------------------------------------------------------------
    1          7             0       -0.741562   -0.977481    0.000000
    2          1             0       -0.011608    2.101013    0.000000
    3          6             0        1.113112    0.294993    0.000000
    4          1             0        2.109836    0.694299    0.000000
    5          6             0        0.632958   -0.976810    0.000000
    6          1             0        1.190904   -1.896045    0.000000
    7          1             0       -2.088512    0.658671    0.000000
    8          6             0       -1.081018    0.280631    0.000000
    9          7             0        0.000000    1.098793    0.000000
 ---------------------------------------------------------------------
 Rotational constants (GHZ):      9.8608008      9.5131636      4.8419316
 Isotopes: N-14,H-1,C-12,H-1,C-12,H-1,H-1,C-12,N-14

 **********************************************************************

            Population analysis using the SCF density.

 **********************************************************************

 Orbital Symmetries:
       Occupied  (A') (A') (A') (A') (A') (A') (A') (A') (A') (A')
                 (A') (A') (A') (A") (A') (A') (A") (A")
       Virtual   (A") (A') (A") (A') (A') (A') (A') (A') (A') (A')
                 (A') (A') (A") (A') (A") (A') (A") (A') (A') (A')
                 (A") (A') (A') (A') (A") (A') (A') (A') (A') (A')
                 (A') (A') (A') (A") (A") (A") (A') (A') (A") (A")
                 (A') (A') (A') (A') (A') (A') (A") (A") (A') (A')
                 (A") (A") (A') (A") (A') (A') (A') (A') (A') (A')
                 (A') (A') (A') (A') (A')
  The electronic state is 1-A'.
 Alpha  occ. eigenvalues --  -15.62254 -15.53992 -11.29064 -11.25674 -11.23607
 Alpha  occ. eigenvalues --   -1.34137  -1.16356  -1.00553  -0.82506  -0.79592
 Alpha  occ. eigenvalues --   -0.75648  -0.60580  -0.59876  -0.59458  -0.56467
 Alpha  occ. eigenvalues --   -0.42890  -0.39228  -0.31699
 Alpha virt. eigenvalues --    0.19335   0.21849   0.24739   0.28357   0.29859
 Alpha virt. eigenvalues --    0.31911   0.39787   0.41626   0.48954   0.51672
 Alpha virt. eigenvalues --    0.68213   0.71460   0.76691   0.80458   0.80831
 Alpha virt. eigenvalues --    0.83888   0.87624   0.88319   0.89558   0.94384
 Alpha virt. eigenvalues --    1.01878   1.04774   1.05439   1.09706   1.11534
 Alpha virt. eigenvalues --    1.12942   1.16013   1.17780   1.25064   1.27756
 Alpha virt. eigenvalues --    1.44655   1.49434   1.55958   1.58729   1.63040
 Alpha virt. eigenvalues --    1.65958   1.71909   1.78174   1.84689   1.86125
 Alpha virt. eigenvalues --    2.04889   2.19006   2.33200   2.37261   2.42535
 Alpha virt. eigenvalues --    2.46082   2.53806   2.57990   2.61944   2.63118
 Alpha virt. eigenvalues --    2.67040   2.75377   2.91391   2.95613   2.95718
 Alpha virt. eigenvalues --    3.06539   3.10812   3.34415   3.38624   3.45448
 Alpha virt. eigenvalues --    4.30879   4.43570   4.56367   4.64925   4.80309
          Condensed to atoms (all electrons):
              1          2          3          4          5          6
  1  N    6.729542   0.003764  -0.086662   0.002983   0.449642  -0.032531
  2  H    0.003764   0.305222  -0.016577  -0.000254   0.003647  -0.000059
  3  C   -0.086662  -0.016577   4.911560   0.381381   0.649045  -0.041120
  4  H    0.002983  -0.000254   0.381381   0.443053  -0.015963   0.001001
  5  C    0.449642   0.003647   0.649045  -0.015963   4.784450   0.399100
  6  H   -0.032531  -0.000059  -0.041120   0.001001   0.399100   0.465601
  7  H   -0.029982   0.000483   0.002457  -0.000030   0.005114  -0.000051
  8  C    0.575268  -0.016184  -0.115039   0.003569  -0.129877   0.005916
  9  N   -0.096326   0.318899   0.330159  -0.035430  -0.090752   0.002508
              7          8          9
  1  N   -0.029982   0.575268  -0.096326
  2  H    0.000483  -0.016184   0.318899
  3  C    0.002457  -0.115039   0.330159
  4  H   -0.000030   0.003569  -0.035430
  5  C    0.005114  -0.129877  -0.090752
  6  H   -0.000051   0.005916   0.002508
  7  H    0.452457   0.406418  -0.049803
  8  C    0.406418   4.639719   0.365214
  9  N   -0.049803   0.365214   6.968541
 Total atomic charges:
              1
  1  N   -0.515698
  2  H    0.401060
  3  C   -0.015205
  4  H    0.219690
  5  C   -0.054406
  6  H    0.199634
  7  H    0.212938
  8  C    0.264997
  9  N   -0.713010
 Sum of Mulliken charges=   0.00000
 Atomic charges with hydrogens summed into heavy atoms:
              1
  1  N   -0.515698
  2  H    0.000000
  3  C    0.204486
  4  H    0.000000
  5  C    0.145228
  6  H    0.000000
  7  H    0.000000
  8  C    0.477935
  9  N   -0.311950
 Sum of Mulliken charges=   0.00000
 Electronic spatial extent (au):  <R**2>=   282.2886
 Charge=     0.0000 electrons
[...]
                    A'                     A'                     A'
 Frequencies --  1611.2522              1672.9137              3378.7049
 Red. masses --     3.4141                 3.7087                 1.0929
 Frc consts  --     5.2221                 6.1153                 7.3505
 IR Inten    --    23.1381                17.2841                 7.2514
 Raman Activ --     0.0000                 0.0000                 0.0000
 Depolar     --     0.0000                 0.0000                 0.0000
 Atom AN      X      Y      Z        X      Y      Z        X      Y      Z
   1   7    -0.02  -0.12   0.00    -0.02   0.20   0.00     0.00   0.00   0.00
   2   1     0.18  -0.13   0.00     0.49   0.02   0.00     0.00  -0.01   0.00
   3   6     0.00   0.27   0.00     0.10   0.20   0.00    -0.03  -0.01   0.00
   4   1     0.34  -0.51   0.00     0.29  -0.12   0.00     0.33   0.13   0.00
   5   6     0.00  -0.16   0.00    -0.15  -0.22   0.00     0.04  -0.07   0.00
   6   1     0.06  -0.17   0.00     0.49   0.12   0.00    -0.44   0.74   0.00
   7   1    -0.24  -0.52   0.00     0.28   0.29   0.00    -0.34   0.12   0.00
   8   6     0.06   0.28   0.00     0.04  -0.25   0.00     0.03  -0.01   0.00
   9   7    -0.06  -0.12   0.00    -0.10   0.01   0.00     0.00   0.00   0.00
                    19                     20                     21
                    A'                     A'                     A'
 Frequencies --  3381.1724              3408.6862              3804.6262
 Red. masses --     1.0979                 1.1068                 1.0824
 Frc consts  --     7.3950                 7.5767                 9.2311
 IR Inten    --     0.9452                 2.0354                80.9790
 Raman Activ --     0.0000                 0.0000                 0.0000
 Depolar     --     0.0000                 0.0000                 0.0000
 Atom AN      X      Y      Z        X      Y      Z        X      Y      Z
   1   7     0.00   0.00   0.00     0.00   0.00   0.00     0.00   0.00   0.00
   2   1    -0.01   0.01   0.00    -0.01  -0.02   0.00    -0.01   1.00   0.00
   3   6    -0.02  -0.01   0.00    -0.08  -0.03   0.00     0.00   0.00   0.00
   4   1     0.19   0.08   0.00     0.84   0.34   0.00     0.01   0.00   0.00
   5   6     0.02  -0.02   0.00    -0.02   0.04   0.00     0.00   0.00   0.00
   6   1    -0.16   0.26   0.00     0.20  -0.35   0.00     0.00   0.00   0.00
   7   1     0.87  -0.32   0.00    -0.06   0.02   0.00    -0.01   0.00   0.00
   8   6    -0.08   0.03   0.00     0.01   0.00   0.00     0.00   0.00   0.00
   9   7     0.00   0.00   0.00     0.00   0.00   0.00     0.00  -0.08   0.00

 -------------------
 - Thermochemistry -
 -------------------
 Temperature   298.150 Kelvin.  Pressure   1.00000 Atm.
 Atom  1 has atomic number  7 and mass  14.00307
 Atom  2 has atomic number  1 and mass   1.00783
 Atom  3 has atomic number  6 and mass  12.00000
 Atom  4 has atomic number  1 and mass   1.00783
 Atom  5 has atomic number  6 and mass  12.00000
 Atom  6 has atomic number  1 and mass   1.00783
 Atom  7 has atomic number  1 and mass   1.00783
 Atom  8 has atomic number  6 and mass  12.00000
 Atom  9 has atomic number  7 and mass  14.00307
 Molecular mass:    68.03745 amu.
 Principal axes and moments of inertia in atomic units:
                           1         2         3
     EIGENVALUES --   183.02177 189.70988 372.73165
           X            0.48417   0.87497   0.00000
           Y            0.87497  -0.48417   0.00000
           Z            0.00000   0.00000   1.00000
 THIS MOLECULE IS AN ASYMMETRIC TOP.
 ROTATIONAL SYMMETRY NUMBER  1.
 ROTATIONAL TEMPERATURES (KELVIN)      0.47324     0.45656     0.23237
 ROTATIONAL CONSTANTS (GHZ)            9.86080     9.51316     4.84193
 Zero-point vibrational energy     195944.0 (Joules/Mol)
                                   46.83175 (Kcal/Mol)
 WARNING-- EXPLICIT CONSIDERATION OF   1 DEGREES OF FREEDOM AS
           VIBRATIONS MAY CAUSE SIGNIFICANT ERROR
 VIBRATIONAL TEMPERATURES:    758.40   959.60  1018.76  1114.99  1267.23
          (KELVIN)           1307.07  1362.23  1416.35  1636.22  1676.11
                             1750.49  1762.68  1954.17  2102.99  2216.39
                             2318.22  2406.94  4861.17  4864.72  4904.31
                             5473.98
 
 Zero-point correction=                           0.074631 (Hartree/Particle)
 Thermal correction to Energy=                    0.078281
 Thermal correction to Enthalpy=                  0.079225
 Thermal correction to Gibbs Free Energy=         0.048414
 Sum of electronic and zero-point Energies=           -225.352559
 Sum of electronic and thermal Energies=              -225.348910
 Sum of electronic and thermal Enthalpies=            -225.347965
 Sum of electronic and thermal Free Energies=         -225.378777
 
                     E (Thermal)             CV                S
                      KCAL/MOL        CAL/MOL-KELVIN    CAL/MOL-KELVIN
 TOTAL                   49.122             12.627             64.848
 ELECTRONIC               0.000              0.000              0.000
 TRANSLATIONAL            0.889              2.981             38.570
 ROTATIONAL               0.889              2.981             24.074
 VIBRATIONAL             47.345              6.665              2.203
 VIBRATION  1             0.882              1.190              0.594
                       Q            LOG10(Q)             LN(Q)
 TOTAL BOT       0.538597D-22        -22.268736        -51.275659
 TOTAL V=0       0.114544D+13         12.058971         27.766807
 VIB (BOT)       0.599567D-34        -34.222162        -78.799440
 VIB (BOT)  1    0.304219D+00         -0.516813         -1.190006
 VIB (V=0)       0.127510D+01          0.105545          0.243026
 VIB (V=0)  1    0.108528D+01          0.035541          0.081835
 ELECTRONIC      0.100000D+01          0.000000          0.000000
 TRANSLATIONAL   0.220588D+08          7.343582         16.909224
 ROTATIONAL      0.407234D+05          4.609844         10.614558
 ***** Axes restored to original set *****
 -------------------------------------------------------------------
 Center     Atomic                   Forces (Hartrees/Bohr)
 Number     Number              X              Y              Z
 -------------------------------------------------------------------
    1          7          -0.000018642    0.000000000   -0.000016913
    2          1           0.000010235    0.000000000   -0.000026725
    3          6          -0.000192685    0.000000000   -0.000142173
    4          1          -0.000051963    0.000000000   -0.000021751
    5          6           0.000088074    0.000000000    0.000126416
    6          1          -0.000052370    0.000000000    0.000004404
    7          1           0.000080277    0.000000000    0.000020816
    8          6           0.000097640    0.000000000   -0.000065806
    9          7           0.000039433    0.000000000    0.000121733
 -------------------------------------------------------------------
 Cartesian Forces:  Max     0.000192685 RMS     0.000068200

 GradGradGradGradGradGradGradGradGradGradGradGradGradGradGradGradGradGrad
 Berny optimization.
 Internal  Forces:  Max     0.000126268 RMS     0.000048551
 Search for a local minimum.
 Step number   1 out of a maximum of  48
 All quantities printed in internal units (Hartrees-Bohrs-Radians)
 Second derivative matrix not updated -- analytic derivatives used.
     Eigenvalues ---    0.00525   0.01211   0.02300   0.03032   0.06263
     Eigenvalues ---    0.06612   0.10848   0.11492   0.12051   0.13050
     Eigenvalues ---    0.25195   0.26957   0.38739   0.40145   0.40477
     Eigenvalues ---    0.40685   0.45998   0.48732   0.51560   0.53802
     Eigenvalues ---    0.651241000.000001000.000001000.000001000.00000
     Eigenvalues --- 1000.000001000.000001000.000001000.000001000.00000
     Eigenvalues --- 1000.000001000.000001000.000001000.000001000.00000
     Eigenvalues --- 1000.000001000.000001000.00000
 Angle between quadratic step and forces=  28.60 degrees.
 Linear search not attempted -- first point.
 Iteration  1 RMS(Cart)=  0.00015834 RMS(Int)=  0.00000002
 Iteration  2 RMS(Cart)=  0.00000002 RMS(Int)=  0.00000000
 Variable       Old X    -DE/DX   Delta X   Delta X   Delta X     New X
                                 (Linear)    (Quad)   (Total)
    R1        2.59747   0.00004   0.00000  -0.00007  -0.00007   2.59740
    R2        2.46251   0.00004   0.00000   0.00011   0.00011   2.46262
    R3        1.89405   0.00003   0.00000   0.00007   0.00007   1.89412
    R4        2.02906   0.00006   0.00000   0.00012   0.00012   2.02918
    R5        2.56894   0.00012   0.00000   0.00029   0.00029   2.56922
    R6        2.59458   0.00013   0.00000   0.00023   0.00023   2.59482
    R7        2.03205   0.00004   0.00000   0.00011   0.00011   2.03215
    R8        2.03351   0.00008   0.00000   0.00017   0.00017   2.03368
    R9        2.56195   0.00004   0.00000  -0.00001  -0.00001   2.56194
    A1        1.83385   0.00006   0.00000   0.00014   0.00014   1.83399
    A2        2.31283   0.00004   0.00000   0.00014   0.00014   2.31297
    A3        2.13514   0.00006   0.00000   0.00018   0.00018   2.13532
    A4        1.83522  -0.00009   0.00000  -0.00032  -0.00032   1.83490
    A5        1.93228   0.00001   0.00000   0.00010   0.00010   1.93238
    A6        2.11584   0.00003   0.00000   0.00024   0.00024   2.11607
    A7        2.23507  -0.00004   0.00000  -0.00034  -0.00034   2.23473
    A8        2.19330   0.00001   0.00000  -0.00012  -0.00012   2.19318
    A9        1.95512  -0.00007   0.00000  -0.00022  -0.00022   1.95490
   A10        2.13476   0.00007   0.00000   0.00035   0.00035   2.13510
   A11        2.20780  -0.00004   0.00000  -0.00013  -0.00013   2.20766
   A12        2.20708  -0.00005   0.00000  -0.00017  -0.00017   2.20691
   A13        1.86831   0.00009   0.00000   0.00030   0.00030   1.86861
    D1        0.00000   0.00000   0.00000   0.00000   0.00000   0.00000
    D2        3.14159   0.00000   0.00000   0.00000   0.00000   3.14159
    D3        3.14159   0.00000   0.00000   0.00000   0.00000   3.14159
    D4        0.00000   0.00000   0.00000   0.00000   0.00000   0.00000
    D5        3.14159   0.00000   0.00000   0.00000   0.00000   3.14159
    D6        0.00000   0.00000   0.00000   0.00000   0.00000   0.00000
    D7        0.00000   0.00000   0.00000   0.00000   0.00000   0.00000
    D8        3.14159   0.00000   0.00000   0.00000   0.00000   3.14159
    D9        0.00000   0.00000   0.00000   0.00000   0.00000   0.00000
   D10        3.14159   0.00000   0.00000   0.00000   0.00000   3.14159
   D11        3.14159   0.00000   0.00000   0.00000   0.00000   3.14159
   D12        0.00000   0.00000   0.00000   0.00000   0.00000   0.00000
   D13        3.14159   0.00000   0.00000   0.00000   0.00000   3.14159
   D14        0.00000   0.00000   0.00000   0.00000   0.00000   0.00000
   D15        0.00000   0.00000   0.00000   0.00000   0.00000   0.00000
   D16        3.14159   0.00000   0.00000   0.00000   0.00000   3.14159
         Item               Value     Threshold  Converged?
 Maximum Force            0.000126     0.000450     YES
 RMS     Force            0.000049     0.000300     YES
 Maximum Displacement     0.000516     0.001800     YES
 RMS     Displacement     0.000158     0.001200     YES
 Predicted change in Energy=-1.241523D-07
 Optimization completed.
    -- Stationary point found.
                         ----------------------------
                         !   Optimized Parameters   !
                         ! (Angstroms and Degrees)  !
 ------------------------                            -------------------------
 ! Name  Definition              Value          Derivative Info.             !
 -----------------------------------------------------------------------------
 ! R1    R(1,5)                  1.3745         -DE/DX =    0.               !
 ! R2    R(1,8)                  1.3031         -DE/DX =    0.               !
 ! R3    R(2,9)                  1.0023         -DE/DX =    0.               !
 ! R4    R(3,4)                  1.0737         -DE/DX =    0.0001           !
 ! R5    R(3,5)                  1.3594         -DE/DX =    0.0001           !
 ! R6    R(3,9)                  1.373          -DE/DX =    0.0001           !
 ! R7    R(5,6)                  1.0753         -DE/DX =    0.               !
 ! R8    R(7,8)                  1.0761         -DE/DX =    0.0001           !
 ! R9    R(8,9)                  1.3557         -DE/DX =    0.               !
 ! A1    A(5,1,8)              105.0717         -DE/DX =    0.0001           !
 ! A2    A(4,3,5)              132.5154         -DE/DX =    0.               !
 ! A3    A(4,3,9)              122.3343         -DE/DX =    0.0001           !
 ! A4    A(5,3,9)              105.1503         -DE/DX =   -0.0001           !
 ! A5    A(1,5,3)              110.7114         -DE/DX =    0.               !
 ! A6    A(1,5,6)              121.2285         -DE/DX =    0.               !
 ! A7    A(3,5,6)              128.0601         -DE/DX =    0.               !
 ! A8    A(1,8,7)              125.6671         -DE/DX =    0.               !
 ! A9    A(1,8,9)              112.0204         -DE/DX =   -0.0001           !
 ! A10   A(7,8,9)              122.3125         -DE/DX =    0.0001           !
 ! A11   A(2,9,3)              126.4974         -DE/DX =    0.               !
 ! A12   A(2,9,8)              126.4564         -DE/DX =    0.               !
 ! A13   A(3,9,8)              107.0462         -DE/DX =    0.0001           !
 ! D1    D(8,1,5,3)              0.             -DE/DX =    0.               !
 ! D2    D(8,1,5,6)            180.             -DE/DX =    0.               !
 ! D3    D(5,1,8,7)            180.             -DE/DX =    0.               !
 ! D4    D(5,1,8,9)              0.             -DE/DX =    0.               !
 ! D5    D(4,3,5,1)            180.             -DE/DX =    0.               !
 ! D6    D(4,3,5,6)              0.             -DE/DX =    0.               !
 ! D7    D(9,3,5,1)              0.             -DE/DX =    0.               !
 ! D8    D(9,3,5,6)            180.             -DE/DX =    0.               !
 ! D9    D(4,3,9,2)              0.             -DE/DX =    0.               !
 ! D10   D(4,3,9,8)            180.             -DE/DX =    0.               !
 ! D11   D(5,3,9,2)            180.             -DE/DX =    0.               !
 ! D12   D(5,3,9,8)              0.             -DE/DX =    0.               !
 ! D13   D(1,8,9,2)            180.             -DE/DX =    0.               !
 ! D14   D(1,8,9,3)              0.             -DE/DX =    0.               !
 ! D15   D(7,8,9,2)              0.             -DE/DX =    0.               !
 ! D16   D(7,8,9,3)            180.             -DE/DX =    0.               !
 -----------------------------------------------------------------------------
 GradGradGradGradGradGradGradGradGradGradGradGradGradGradGradGradGradGrad

 1\1\ NATIONAL INSTITUTE OF STANDARDS AND TECHNOLOGY-TAY\Freq\RCISD-FC\
 6-31G(d)\C3H4N2\RDJ3\06-Aug-1999\0\\#N GEOM=ALLCHECK GUESS=TCHECK RCIS
 D(FC)/6-31G(D) FREQ\\1H imidazole C3H4N2 casno=288324\\0,1\N,0.4983401
 555,0.,1.1211783549\H,0.4918350084,0.,-2.0426666489\C,-1.0161380233,0.
 ,-0.5417599818\H,-1.8951146883,0.,-1.1584476293\C,-0.8395919421,0.,0.8
 061511852\H,-1.5929923726,0.,1.5734087966\H,2.1838010725,0.,-0.1635362
 709\C,1.1165488062,0.,-0.0259469926\N,0.2513109781,0.,-1.0696674281\\V
 ersion=SGI64-G98RevA.7\State=1-A'\HF=-224.8138813\MP2=-225.5181094\MP3
 =-225.5325927\CISD=-225.4271906\RMSD=1.126e-09\RMSF=6.820e-05\Dipole=-
 0.119416,0.,-1.5234901\DipoleDeriv=-0.4476598,0.,0.0178573,0.,-0.34877
 56,0.,0.0266629,0.,-0.6052298,0.1996756,0.,-0.0056615,0.,0.3686979,0.,
 -0.007003,0.,0.2448396,0.0333056,0.,-0.2452219,0.,-0.1118187,0.,-0.036
 3591,0.,0.1947516,0.0209873,0.,-0.0404718,0.,0.1836578,0.,-0.060261,0.
 ,0.0479156,0.2158771,0.,-0.0608128,0.,-0.110002,0.,-0.1062625,0.,0.115
 3045,-0.0066139,0.,0.0659071,0.,0.1491766,0.,0.0763398,0.,0.0291984,-0
 .0279373,0.,0.0316594,0.,0.1462776,0.,0.0328658,0.,0.0698195,0.2083035
 ,0.,0.0923241,0.,0.0684588,0.,0.0102378,0.,0.6076437,-0.1967619,0.,0.1
 441398,0.,-0.3458026,0.,0.0640429,0.,-0.7040436\PG=CS [SG(C3H4N2)]\NIm
 ag=0\\0.54745776,0.,0.11257058,-0.07300754,0.,0.65687401,-0.00304955,0
 .,-0.00907919,0.09031645,0.,0.00758942,0.,0.,0.01180007,-0.00414400,0.
 ,-0.00314999,-0.10486312,0.,0.48825644,-0.03291821,0.,-0.01385720,0.00
 827634,0.,-0.00263327,0.81587171,0.,0.01644648,0.,0.,-0.00885894,0.,0.
 ,0.11567790,-0.09665959,0.,-0.02022178,0.03035541,0.,-0.00072582,0.170
 95389,0.,0.83454977,0.00207680,0.,0.00088418,0.00004796,0.,0.00013361,
 -0.27715144,0.,-0.14918343,0.29176370,0.,0.00826198,0.,0.,-0.00103088,
 0.,0.,-0.02303126,0.,0.,0.02046308,-0.00412921,0.,-0.00599909,-0.00099
 306,0.,0.00025012,-0.15989919,0.,-0.17902528,0.16403845,0.,0.17058410,
 -0.28571461,0.,-0.04519148,-0.00954993,0.,0.00012191,-0.11493207,0.,-0
 .02457763,0.00592341,0.,-0.02388329,0.72438910,0.,-0.07479309,0.,0.,0.
 00259005,0.,0.,-0.06661029,0.,0.,-0.00220070,0.,0.,0.14193532,-0.05265
 109,0.,-0.12670132,0.00367757,0.,0.00108515,-0.04343146,0.,-0.45161182
 ,0.00136903,0.,0.00223673,-0.15921947,0.,0.89117328,-0.01950594,0.,0.0
 2309643,0.00086823,0.,0.00003101,0.01000452,0.,-0.00609077,-0.00022953
 ,0.,0.00069194,-0.21086059,0.,0.15712360,0.22626456,0.,-0.00539473,0.,
 0.,0.00229485,0.,0.,-0.00114192,0.,0.,-0.00225729,0.,0.,-0.03167186,0.
 ,0.,0.02540470,-0.00815090,0.,0.01383797,0.00136524,0.,0.00018664,0.02
 230579,0.,-0.00805299,-0.00049014,0.,-0.00025504,0.16088278,0.,-0.2360
 3354,-0.17087833,0.,0.23556666,-0.00823417,0.,0.00328694,-0.00062574,0
 .,-0.00057143,0.00087139,0.,-0.00358472,-0.00040985,0.,0.00039822,0.00
 094349,0.,0.00285643,-0.00037446,0.,-0.00018595,0.39638215,0.,-0.00493
 407,0.,0.,-0.00134325,0.,0.,0.00319609,0.,0.,0.00193425,0.,0.,0.008089
 23,0.,0.,0.00106125,0.,0.,0.02435328,0.03233339,0.,0.00148645,0.000503
 61,0.,0.00032279,-0.00107834,0.,-0.00630446,-0.00113086,0.,0.00107270,
 0.00325346,0.,-0.00489050,0.00152980,0.,0.00072321,-0.04117982,0.,0.06
 870253,-0.19444372,0.,0.14228504,0.02015827,0.,0.01430467,-0.09756322,
 0.,0.00464711,-0.00357012,0.,0.00437248,-0.09038839,0.,0.01684313,-0.0
 0703131,0.,-0.00370547,-0.37511041,0.,0.03833930,0.98495619,0.,-0.0844
 3657,0.,0.,-0.00983554,0.,0.,0.01664412,0.,0.,0.00308662,0.,0.,0.01092
 455,0.,0.,0.00552701,0.,0.,-0.03071801,0.,0.,0.15297633,0.16124930,0.,
 -0.40015263,-0.01845006,0.,-0.01141244,-0.04832131,0.,-0.01722852,0.00
 492112,0.,-0.00520665,0.08746420,0.,0.00512578,-0.00241609,0.,0.000128
 62,0.03414910,0.,-0.06960068,-0.09559003,0.,0.74305355,-0.00565189,0.,
 -0.02844763,-0.10644954,0.,0.09762020,-0.31246762,0.,0.07412212,-0.018
 46230,0.,0.01939545,-0.01979627,0.,0.07346319,0.00085709,0.,-0.0011418
 0,-0.01345492,0.,-0.03256877,-0.23702039,0.,-0.12298314,0.71247576,0.,
 0.02467523,0.,0.,-0.00320375,0.,0.,-0.05232005,0.,0.,-0.00522363,0.,0.
 ,0.01174027,0.,0.,0.00617648,0.,0.,-0.00163864,0.,0.,-0.06416218,0.,0.
 ,0.08395619,0.04515574,0.,-0.11597897,0.09748020,0.,-0.47481086,0.0759
 9739,0.,-0.15139468,-0.02054636,0.,0.01634021,0.00112765,0.,-0.0803693
 4,-0.00308296,0.,-0.00610157,0.00482799,0.,0.00849088,-0.12147592,0.,-
 0.24472082,-0.07948403,0.,1.04856276\\0.00001864,0.,0.00001691,-0.0000
 1023,0.,0.00002673,0.00019269,0.,0.00014217,0.00005196,0.,0.00002175,-
 0.00008807,0.,-0.00012642,0.00005237,0.,-0.00000440,-0.00008028,0.,-0.
 00002082,-0.00009764,0.,0.00006581,-0.00003943,0.,-0.00012173\\\@


 ERWIN WITH HIS PSI CAN DO
 CALCULATIONS QUITE A FEW.
 BUT ONE THING HAS NOT BEEN SEEN
 JUST WHAT DOES PSI REALLY MEAN.
 -- WALTER HUCKEL, TRANS. BY FELIX BLOCH
 Job cpu time:  0 days 10 hours  3 minutes 33.1 seconds.
 File lengths (MBytes):  RWF=  404 Int=    0 D2E=    0 Chk=    6 Scr=    1
 Normal termination of Gaussian 98.
