 Entering Link 1 = C:\G03W\l1.exe PID=      2664.
  
 Copyright (c) 1988,1990,1992,1993,1995,1998,2003, Gaussian, Inc.
                  All Rights Reserved.
  
 This is the Gaussian(R) 03 program.  It is based on the
 the Gaussian(R) 98 system (copyright 1998, Gaussian, Inc.),
 the Gaussian(R) 94 system (copyright 1995, Gaussian, Inc.),
 the Gaussian 92(TM) system (copyright 1992, Gaussian, Inc.),
 the Gaussian 90(TM) system (copyright 1990, Gaussian, Inc.),
 the Gaussian 88(TM) system (copyright 1988, Gaussian, Inc.),
 the Gaussian 86(TM) system (copyright 1986, Carnegie Mellon
 University), and the Gaussian 82(TM) system (copyright 1983,
 Carnegie Mellon University). Gaussian is a federally registered
 trademark of Gaussian, Inc.
  
 This software contains proprietary and confidential information,
 including trade secrets, belonging to Gaussian, Inc.
  
 This software is provided under written license and may be
 used, copied, transmitted, or stored only in accord with that
 written license.
  
 The following legend is applicable only to US Government
 contracts under DFARS:
  
                    RESTRICTED RIGHTS LEGEND
  
 Use, duplication or disclosure by the US Government is subject
 to restrictions as set forth in subparagraph (c)(1)(ii) of the
 Rights in Technical Data and Computer Software clause at DFARS
 252.227-7013.
  
 Gaussian, Inc.
 Carnegie Office Park, Building 6, Pittsburgh, PA 15106 USA
  
 The following legend is applicable only to US Government
 contracts under FAR:
  
                    RESTRICTED RIGHTS LEGEND
  
 Use, reproduction and disclosure by the US Government is subject
 to restrictions as set forth in subparagraph (c) of the
 Commercial Computer Software - Restricted Rights clause at FAR
 52.227-19.
  
 Gaussian, Inc.
 Carnegie Office Park, Building 6, Pittsburgh, PA 15106 USA
  
  
 ---------------------------------------------------------------
 Warning -- This program may not be used in any manner that
 competes with the business of Gaussian, Inc. or will provide
 assistance to any competitor of Gaussian, Inc.  The licensee
 of this program is prohibited from giving any competitor of
 Gaussian, Inc. access to this program.  By using this program,
 the user acknowledges that Gaussian, Inc. is engaged in the
 business of creating and licensing software in the field of
 computational chemistry and represents and warrants to the
 licensee that it is not a competitor of Gaussian, Inc. and that
 it will not use this program in any manner prohibited above.
 ---------------------------------------------------------------
  

 Cite this work as:
 Gaussian 03, Revision B.05,
 M. J. Frisch, G. W. Trucks, H. B. Schlegel, G. E. Scuseria, 
 M. A. Robb, J. R. Cheeseman, J. A. Montgomery, Jr., T. Vreven, 
 K. N. Kudin, J. C. Burant, J. M. Millam, S. S. Iyengar, J. Tomasi, 
 V. Barone, B. Mennucci, M. Cossi, G. Scalmani, N. Rega, 
 G. A. Petersson, H. Nakatsuji, M. Hada, M. Ehara, K. Toyota, 
 R. Fukuda, J. Hasegawa, M. Ishida, T. Nakajima, Y. Honda, O. Kitao, 
 H. Nakai, M. Klene, X. Li, J. E. Knox, H. P. Hratchian, J. B. Cross, 
 C. Adamo, J. Jaramillo, R. Gomperts, R. E. Stratmann, O. Yazyev, 
 A. J. Austin, R. Cammi, C. Pomelli, J. W. Ochterski, P. Y. Ayala, 
 K. Morokuma, G. A. Voth, P. Salvador, J. J. Dannenberg, 
 V. G. Zakrzewski, S. Dapprich, A. D. Daniels, M. C. Strain, 
 O. Farkas, D. K. Malick, A. D. Rabuck, K. Raghavachari, 
 J. B. Foresman, J. V. Ortiz, Q. Cui, A. G. Baboul, S. Clifford, 
 J. Cioslowski, B. B. Stefanov, G. Liu, A. Liashenko, P. Piskorz, 
 I. Komaromi, R. L. Martin, D. J. Fox, T. Keith, M. A. Al-Laham, 
 C. Y. Peng, A. Nanayakkara, M. Challacombe, P. M. W. Gill, 
 B. Johnson, W. Chen, M. W. Wong, C. Gonzalez, and J. A. Pople, 
 Gaussian, Inc., Pittsburgh PA, 2003.
 
 **********************************************
 Gaussian 03:  x86-Win32-G03RevB.05  8-Nov-2003
                  09-Dec-2004 
 **********************************************
 %mem=24000000
 Default route:  MaxDisk=70000MB
 ----------------------------
 #B3PW91/aug-cc-pVDZ opt freq
 ----------------------------
 1/14=-1,18=20,26=3,38=1/1,3;
 2/9=110,17=6,18=5,40=1/2;
 3/5=16,7=10,11=2,16=1,25=1,30=1,74=-6/1,2,3;
 4//1;
 5/5=2,38=5/2;
 6/7=2,8=2,9=2,10=2,28=1/1;
 7//1,2,3,16;
 1/14=-1,18=20/3(1);
 99//99;
 2/9=110/2;
 3/5=16,7=10,11=2,16=1,25=1,30=1,74=-6/1,2,3;
 4/5=5,16=3/1;
 5/5=2,38=5/2;
 7//1,2,3,16;
 1/14=-1,18=20/3(-5);
 2/9=110/2;
 6/7=2,8=2,9=2,10=2,19=2,28=1/1;
 99/9=1/99;
 ---------------------------------------------------
 1H imidazole C3H4N2 casno=288324 method=16 basis=17
 ---------------------------------------------------
 Symbolic Z-matrix:
 Charge =  0 Multiplicity = 1
 N                     0.30938   0.        1.30938 
 H                     0.3125    0.       -1.6875 
 C                    -1.06875   0.       -0.28438 
 H                    -1.91875   0.       -0.79063 
 C                    -0.93438   0.        1.02813 
 H                    -1.675     0.        1.6875 
 H                     1.91875   0.        0.09063 
 C                     0.93438   0.        0.19063 
 N                     0.09688   0.       -0.775 
 

 GradGradGradGradGradGradGradGradGradGradGradGradGradGradGradGradGradGrad
 Berny optimization.
 Initialization pass.
                           ----------------------------
                           !    Initial Parameters    !
                           ! (Angstroms and Degrees)  !
 --------------------------                            --------------------------
 ! Name  Definition              Value          Derivative Info.                !
 --------------------------------------------------------------------------------
 ! R1    R(1,5)                  1.2752         estimate D2E/DX2                !
 ! R2    R(1,8)                  1.2815         estimate D2E/DX2                !
 ! R3    R(2,9)                  0.9376         estimate D2E/DX2                !
 ! R4    R(3,4)                  0.9893         estimate D2E/DX2                !
 ! R5    R(3,5)                  1.3194         estimate D2E/DX2                !
 ! R6    R(3,9)                  1.2647         estimate D2E/DX2                !
 ! R7    R(5,6)                  0.9916         estimate D2E/DX2                !
 ! R8    R(7,8)                  0.9894         estimate D2E/DX2                !
 ! R9    R(8,9)                  1.2782         estimate D2E/DX2                !
 ! A1    A(5,1,8)              106.4483         estimate D2E/DX2                !
 ! A2    A(4,3,5)              126.6232         estimate D2E/DX2                !
 ! A3    A(4,3,9)              126.3957         estimate D2E/DX2                !
 ! A4    A(5,3,9)              106.9812         estimate D2E/DX2                !
 ! A5    A(1,5,3)              108.5877         estimate D2E/DX2                !
 ! A6    A(1,5,6)              125.5794         estimate D2E/DX2                !
 ! A7    A(3,5,6)              125.8329         estimate D2E/DX2                !
 ! A8    A(1,8,7)              124.9909         estimate D2E/DX2                !
 ! A9    A(1,8,9)              109.8741         estimate D2E/DX2                !
 ! A10   A(7,8,9)              125.1349         estimate D2E/DX2                !
 ! A11   A(2,9,3)              126.122          estimate D2E/DX2                !
 ! A12   A(2,9,8)              125.7693         estimate D2E/DX2                !
 ! A13   A(3,9,8)              108.1088         estimate D2E/DX2                !
 ! D1    D(8,1,5,3)              0.0            estimate D2E/DX2                !
 ! D2    D(8,1,5,6)            180.0            estimate D2E/DX2                !
 ! D3    D(5,1,8,7)            180.0            estimate D2E/DX2                !
 ! D4    D(5,1,8,9)              0.0            estimate D2E/DX2                !
 ! D5    D(4,3,5,1)            180.0            estimate D2E/DX2                !
 ! D6    D(4,3,5,6)              0.0            estimate D2E/DX2                !
 ! D7    D(9,3,5,1)              0.0            estimate D2E/DX2                !
 ! D8    D(9,3,5,6)            180.0            estimate D2E/DX2                !
 ! D9    D(4,3,9,2)              0.0            estimate D2E/DX2                !
 ! D10   D(4,3,9,8)            180.0            estimate D2E/DX2                !
 ! D11   D(5,3,9,2)            180.0            estimate D2E/DX2                !
 ! D12   D(5,3,9,8)              0.0            estimate D2E/DX2                !
 ! D13   D(1,8,9,2)            180.0            estimate D2E/DX2                !
 ! D14   D(1,8,9,3)              0.0            estimate D2E/DX2                !
 ! D15   D(7,8,9,2)              0.0            estimate D2E/DX2                !
 ! D16   D(7,8,9,3)            180.0            estimate D2E/DX2                !
 --------------------------------------------------------------------------------
 Trust Radius=3.00D-01 FncErr=1.00D-07 GrdErr=1.00D-06
 Number of steps in this run=  48 maximum allowed number of steps= 100.
 GradGradGradGradGradGradGradGradGradGradGradGradGradGradGradGradGradGrad

                          Input orientation:                          
 ---------------------------------------------------------------------
 Center     Atomic     Atomic              Coordinates (Angstroms)
 Number     Number      Type              X           Y           Z
 ---------------------------------------------------------------------
    1          7             0        0.309375    0.000000    1.309375
    2          1             0        0.312500    0.000000   -1.687500
    3          6             0       -1.068750    0.000000   -0.284375
    4          1             0       -1.918750    0.000000   -0.790625
    5          6             0       -0.934375    0.000000    1.028125
    6          1             0       -1.675000    0.000000    1.687500
    7          1             0        1.918750    0.000000    0.090625
    8          6             0        0.934375    0.000000    0.190625
    9          7             0        0.096875    0.000000   -0.775000
 ---------------------------------------------------------------------
                    Distance matrix (angstroms):
                    1          2          3          4          5
     1  N    0.000000
     2  H    2.996877   0.000000
     3  C    2.106957   1.968911   0.000000
     4  H    3.061787   2.404758   0.989338   0.000000
     5  C    1.275153   2.988196   1.319361   2.068054   0.000000
     6  H    2.020080   3.916731   2.062966   2.490084   0.991615
     7  H    2.018772   2.396199   3.010944   3.937386   3.003203
     8  C    1.281494   1.978404   2.058673   3.017147   2.047836
     9  N    2.095179   0.937630   1.264672   2.015686   2.077194
                    6          7          8          9
     6  H    0.000000
     7  H    3.932563   0.000000
     8  C    3.008234   0.989441   0.000000
     9  N    3.033718   2.017061   1.278217   0.000000
 Stoichiometry    C3H4N2
 Framework group  CS[SG(C3H4N2)]
 Deg. of freedom    15
 Full point group                 CS      NOp   2
 Largest Abelian subgroup         CS      NOp   2
 Largest concise Abelian subgroup C1      NOp   1
                         Standard orientation:                         
 ---------------------------------------------------------------------
 Center     Atomic     Atomic              Coordinates (Angstroms)
 Number     Number      Type              X           Y           Z
 ---------------------------------------------------------------------
    1          7             0       -0.674969   -0.941702    0.000000
    2          1             0       -0.005288    1.979393    0.000000
    3          6             0        1.025744    0.302019    0.000000
    4          1             0        1.967693    0.604544    0.000000
    5          6             0        0.600174   -0.946822    0.000000
    6          1             0        1.173884   -1.755622    0.000000
    7          1             0       -1.969692    0.607211    0.000000
    8          6             0       -1.032886    0.288794    0.000000
    9          7             0        0.000000    1.041778    0.000000
 ---------------------------------------------------------------------
 Rotational constants (GHZ):     11.1543378     10.4769589      5.4025212
 Standard basis: Aug-CC-pVDZ (5D, 7F)
 There are   108 symmetry adapted basis functions of A'  symmetry.
 There are    43 symmetry adapted basis functions of A"  symmetry.
 Integral buffers will be    262144 words long.
 Raffenetti 2 integral format.
 Two-electron integral symmetry is turned on.
   151 basis functions,   259 primitive gaussians,   161 cartesian basis functions
    18 alpha electrons       18 beta electrons
       nuclear repulsion energy       173.5664703841 Hartrees.
 NAtoms=    9 NActive=    9 NUniq=    9 SFac= 1.00D+00 NAtFMM=   60 Big=F
 One-electron integrals computed using PRISM.
 NBasis=   151 RedAO= T  NBF=   108    43
 NBsUse=   151 1.00D-06 NBFU=   108    43
 Harris functional with IExCor=  408 diagonalized for initial guess.
 ExpMin= 2.97D-02 ExpMax= 9.05D+03 ExpMxC= 3.09D+02 IAcc=3 IRadAn=         5 AccDes= 0.00D+00
 HarFok:  IExCor= 408 AccDes= 0.00D+00 IRadAn=         5 IDoV=1
 ScaDFX=  1.000000  1.000000  1.000000  1.000000
 Initial guess orbital symmetries:
       Occupied  (A') (A') (A') (A') (A') (A') (A') (A') (A') (A')
                 (A') (A') (A') (A") (A') (A") (A') (A")
       Virtual   (A") (A") (A') (A') (A') (A') (A') (A") (A') (A')
                 (A") (A') (A") (A') (A') (A') (A') (A') (A') (A')
                 (A') (A") (A') (A") (A') (A') (A') (A") (A') (A')
                 (A') (A') (A') (A') (A") (A") (A') (A") (A') (A')
                 (A') (A") (A') (A") (A') (A') (A") (A') (A') (A')
                 (A') (A") (A") (A') (A') (A") (A') (A') (A') (A')
                 (A') (A') (A") (A") (A") (A') (A") (A') (A') (A')
                 (A") (A') (A") (A') (A') (A") (A') (A') (A') (A')
                 (A') (A") (A") (A') (A') (A') (A") (A') (A') (A")
                 (A") (A") (A') (A') (A') (A") (A') (A') (A') (A")
                 (A") (A') (A') (A") (A') (A') (A') (A") (A') (A")
                 (A') (A') (A') (A') (A") (A') (A") (A') (A') (A")
                 (A') (A") (A') (A') (A') (A') (A') (A') (A') (A')
                 (A') (A') (A')
 The electronic state of the initial guess is 1-A'.
 Requested convergence on RMS density matrix=1.00D-08 within 128 cycles.
 Requested convergence on MAX density matrix=1.00D-06.
 Requested convergence on             energy=1.00D-06.
 No special actions if energy rises.
 SCF Done:  E(RB+HF-PW91) =  -226.099913035     A.U. after   12 cycles
             Convg  =    0.4562D-08             -V/T =  1.9981
             S**2   =   0.0000

 **********************************************************************

            Population analysis using the SCF density.

 **********************************************************************

 Orbital symmetries:
       Occupied  (A') (A') (A') (A') (A') (A') (A') (A') (A') (A')
                 (A') (A") (A') (A') (A') (A") (A') (A")
       Virtual   (A') (A') (A') (A") (A') (A") (A') (A") (A') (A')
                 (A") (A') (A") (A') (A') (A') (A') (A') (A") (A')
                 (A') (A") (A') (A') (A') (A') (A') (A") (A') (A')
                 (A') (A') (A') (A") (A") (A') (A") (A') (A') (A')
                 (A") (A') (A') (A") (A') (A') (A") (A') (A') (A")
                 (A') (A') (A') (A') (A") (A') (A") (A') (A') (A')
                 (A') (A") (A') (A") (A') (A") (A') (A") (A') (A")
                 (A') (A') (A') (A") (A') (A") (A') (A') (A') (A')
                 (A') (A") (A') (A") (A') (A') (A") (A') (A') (A")
                 (A") (A") (A') (A') (A') (A") (A') (A') (A") (A')
                 (A') (A") (A') (A") (A') (A') (A") (A') (A') (A")
                 (A') (A') (A') (A') (A") (A') (A') (A") (A') (A")
                 (A') (A') (A") (A') (A') (A') (A') (A') (A') (A')
                 (A') (A') (A')
 The electronic state is 1-A'.
 Alpha  occ. eigenvalues --  -14.37598 -14.28317 -10.19711 -10.16947 -10.15243
 Alpha  occ. eigenvalues --   -1.08939  -0.91425  -0.77620  -0.65789  -0.62313
 Alpha  occ. eigenvalues --   -0.59977  -0.47836  -0.47176  -0.44860  -0.42837
 Alpha  occ. eigenvalues --   -0.30714  -0.26302  -0.23726
 Alpha virt. eigenvalues --   -0.00949   0.01587   0.02387   0.02792   0.04148
 Alpha virt. eigenvalues --    0.05778   0.06410   0.06953   0.07500   0.09117
 Alpha virt. eigenvalues --    0.09607   0.10308   0.11173   0.11207   0.11553
 Alpha virt. eigenvalues --    0.12934   0.13593   0.16860   0.17278   0.17967
 Alpha virt. eigenvalues --    0.20258   0.20628   0.21325   0.21616   0.23749
 Alpha virt. eigenvalues --    0.25647   0.26318   0.28006   0.30317   0.30660
 Alpha virt. eigenvalues --    0.31784   0.32738   0.34702   0.36251   0.37454
 Alpha virt. eigenvalues --    0.37935   0.39162   0.40965   0.44190   0.44764
 Alpha virt. eigenvalues --    0.46734   0.46835   0.47443   0.48668   0.50187
 Alpha virt. eigenvalues --    0.52450   0.53655   0.54818   0.56446   0.57925
 Alpha virt. eigenvalues --    0.58735   0.60017   0.60453   0.61600   0.61770
 Alpha virt. eigenvalues --    0.63694   0.63745   0.65231   0.68421   0.72557
 Alpha virt. eigenvalues --    0.74301   0.75578   0.76083   0.79619   0.83071
 Alpha virt. eigenvalues --    0.83086   0.85085   0.85200   0.89064   0.92391
 Alpha virt. eigenvalues --    0.92495   0.95436   0.97214   0.97313   1.00454
 Alpha virt. eigenvalues --    1.03307   1.09553   1.13258   1.17915   1.20089
 Alpha virt. eigenvalues --    1.24278   1.28815   1.30832   1.34780   1.35485
 Alpha virt. eigenvalues --    1.36777   1.42095   1.45827   1.47098   1.50798
 Alpha virt. eigenvalues --    1.54875   1.57741   1.60269   1.66092   1.68366
 Alpha virt. eigenvalues --    1.69860   1.73691   1.80351   1.81516   1.83144
 Alpha virt. eigenvalues --    1.91176   1.91660   1.92925   1.98170   1.98765
 Alpha virt. eigenvalues --    2.05437   2.06062   2.07918   2.12626   2.12966
 Alpha virt. eigenvalues --    2.22514   2.27319   2.31278   2.38113   2.45473
 Alpha virt. eigenvalues --    2.50063   2.51587   2.53587   2.55053   2.63264
 Alpha virt. eigenvalues --    2.64919   2.70129   2.71858   2.78157   2.91808
 Alpha virt. eigenvalues --    2.97440   3.05916   3.09139   3.13538   3.29543
 Alpha virt. eigenvalues --    3.36983   3.66786   4.07065
          Condensed to atoms (all electrons):
              1          2          3          4          5          6
     1  N    7.023241   0.013260  -0.091553  -0.028025   0.302822  -0.053075
     2  H    0.013260   1.533673  -0.222070  -0.092486  -0.053877  -0.000772
     3  C   -0.091553  -0.222070   7.201982  -0.250273  -0.956994  -0.203242
     4  H   -0.028025  -0.092486  -0.250273   1.692012   0.026694   0.060576
     5  C    0.302822  -0.053877  -0.956994   0.026694   7.374566  -0.014554
     6  H   -0.053075  -0.000772  -0.203242   0.060576  -0.014554   1.602990
     7  H   -0.044393  -0.005788   0.108663   0.007569   0.182895  -0.004902
     8  C    0.390344  -0.299782  -0.731045  -0.002612  -1.031379   0.045631
     9  N   -0.126327   0.363712   0.419199   0.094038  -0.376719   0.046518
              7          8          9
     1  N   -0.044393   0.390344  -0.126327
     2  H   -0.005788  -0.299782   0.363712
     3  C    0.108663  -0.731045   0.419199
     4  H    0.007569  -0.002612   0.094038
     5  C    0.182895  -1.031379  -0.376719
     6  H   -0.004902   0.045631   0.046518
     7  H    1.471227  -0.160048  -0.116404
     8  C   -0.160048   6.786111   0.361175
     9  N   -0.116404   0.361175   6.200648
 Mulliken atomic charges:
              1
     1  N   -0.386295
     2  H   -0.235870
     3  C    0.725334
     4  H   -0.507492
     5  C    0.546546
     6  H   -0.479171
     7  H   -0.438819
     8  C    0.641606
     9  N    0.134160
 Sum of Mulliken charges=   0.00000
 Atomic charges with hydrogens summed into heavy atoms:
              1
     1  N   -0.386295
     2  H    0.000000
     3  C    0.217842
     4  H    0.000000
     5  C    0.067375
     6  H    0.000000
     7  H    0.000000
     8  C    0.202788
     9  N   -0.101709
 Sum of Mulliken charges=   0.00000
 Electronic spatial extent (au):  <R**2>=   259.3003
 Charge=     0.0000 electrons
 Dipole moment (field-independent basis, Debye):
    X=     1.1587    Y=     3.6598    Z=     0.0000  Tot=     3.8389
 Quadrupole moment (field-independent basis, Debye-Ang):
   XX=   -27.1577   YY=   -25.9231   ZZ=   -30.7444
   XY=    -3.3063   XZ=     0.0000   YZ=     0.0000
 Traceless Quadrupole moment (field-independent basis, Debye-Ang):
   XX=     0.7841   YY=     2.0186   ZZ=    -2.8027
   XY=    -3.3063   XZ=     0.0000   YZ=     0.0000
 Octapole moment (field-independent basis, Debye-Ang**2):
  XXX=     0.6038  YYY=    15.8101  ZZZ=     0.0000  XYY=     5.2329
  XXY=     5.3716  XXZ=     0.0000  XZZ=    -0.6231  YZZ=     1.4493
  YYZ=     0.0000  XYZ=     0.0000
 Hexadecapole moment (field-independent basis, Debye-Ang**3):
 XXXX=  -144.0418 YYYY=  -133.3792 ZZZZ=   -33.2281 XXXY=    -3.7497
 XXXZ=     0.0000 YYYX=    -8.4862 YYYZ=     0.0000 ZZZX=     0.0000
 ZZZY=     0.0000 XXYY=   -53.7202 XXZZ=   -35.5924 YYZZ=   -33.3079
 XXYZ=     0.0000 YYXZ=     0.0000 ZZXY=     0.4443
 N-N= 1.735664703841D+02 E-N=-8.744716837305D+02  KE= 2.265233231861D+02
 Symmetry A'   KE= 2.183400549494D+02
 Symmetry A"   KE= 8.183268236715D+00
 ***** Axes restored to original set *****
 -------------------------------------------------------------------
 Center     Atomic                   Forces (Hartrees/Bohr)
 Number     Number              X              Y              Z
 -------------------------------------------------------------------
    1          7           0.081179900    0.000000000    0.085765015
    2          1           0.018893080    0.000000000   -0.079964937
    3          6          -0.073407047    0.000000000    0.016149419
    4          1          -0.072844302    0.000000000   -0.052917250
    5          6          -0.026506643    0.000000000   -0.012028378
    6          1          -0.063022033    0.000000000    0.062188747
    7          1           0.088687177    0.000000000   -0.011476358
    8          6           0.015184239    0.000000000    0.042390226
    9          7           0.031835629    0.000000000   -0.050106484
 -------------------------------------------------------------------
 Cartesian Forces:  Max     0.088687177 RMS     0.045821054

 GradGradGradGradGradGradGradGradGradGradGradGradGradGradGradGradGradGrad
 Berny optimization.
 Internal  Forces:  Max     0.129787100 RMS     0.047394097
 Search for a local minimum.
 Step number   1 out of a maximum of  48
 All quantities printed in internal units (Hartrees-Bohrs-Radians)
 Second derivative matrix not updated -- first step.
     Eigenvalues ---    0.03211   0.03261   0.03288   0.03318   0.03352
     Eigenvalues ---    0.03407   0.16000   0.16000   0.16000   0.16000
     Eigenvalues ---    0.22000   0.22917   0.49193   0.49594   0.49613
     Eigenvalues ---    0.54578   0.60577   0.63413   0.68379   0.73836
     Eigenvalues ---    0.765081000.000001000.000001000.000001000.00000
     Eigenvalues --- 1000.000001000.000001000.000001000.000001000.00000
     Eigenvalues --- 1000.000001000.000001000.000001000.000001000.00000
     Eigenvalues --- 1000.000001000.000001000.00000
 RFO step:  Lambda=-1.14178969D-01.
 Linear search not attempted -- first point.
 Maximum step size (   0.300) exceeded in Quadratic search.
    -- Step size scaled by   0.754
 Iteration  1 RMS(Cart)=  0.06591283 RMS(Int)=  0.00040933
 Iteration  2 RMS(Cart)=  0.00047921 RMS(Int)=  0.00009730
 Iteration  3 RMS(Cart)=  0.00000026 RMS(Int)=  0.00009730
 Variable       Old X    -DE/DX   Delta X   Delta X   Delta X     New X
                                 (Linear)    (Quad)   (Total)
    R1        2.40969   0.11788   0.00000   0.10122   0.10116   2.51085
    R2        2.42167   0.06344   0.00000   0.05511   0.05493   2.47660
    R3        1.77186   0.08217   0.00000   0.08607   0.08607   1.85794
    R4        1.86958   0.08966   0.00000   0.11080   0.11080   1.98038
    R5        2.49323   0.08351   0.00000   0.08626   0.08640   2.57963
    R6        2.38988   0.12979   0.00000   0.11178   0.11193   2.50181
    R7        1.87388   0.08842   0.00000   0.11002   0.11002   1.98390
    R8        1.86977   0.08939   0.00000   0.11050   0.11050   1.98028
    R9        2.41548   0.11119   0.00000   0.09961   0.09955   2.51503
    A1        1.85787   0.00468   0.00000  -0.00141  -0.00170   1.85617
    A2        2.20999   0.01518   0.00000   0.03431   0.03417   2.24416
    A3        2.20602  -0.00012   0.00000  -0.00777  -0.00791   2.19811
    A4        1.86717  -0.01506   0.00000  -0.02654  -0.02626   1.84091
    A5        1.89521   0.00900   0.00000   0.01739   0.01748   1.91270
    A6        2.19177  -0.00876   0.00000  -0.02042  -0.02047   2.17131
    A7        2.19620  -0.00024   0.00000   0.00303   0.00298   2.19918
    A8        2.18150   0.00150   0.00000   0.00502   0.00511   2.18662
    A9        1.91767   0.00160   0.00000   0.00262   0.00244   1.92011
   A10        2.18402  -0.00310   0.00000  -0.00765  -0.00755   2.17646
   A11        2.20124   0.00010   0.00000  -0.00399  -0.00404   2.19720
   A12        2.19509   0.00012   0.00000  -0.00394  -0.00399   2.19110
   A13        1.88685  -0.00022   0.00000   0.00793   0.00803   1.89489
    D1        0.00000   0.00000   0.00000   0.00000   0.00000   0.00000
    D2        3.14159   0.00000   0.00000   0.00000   0.00000   3.14159
    D3        3.14159   0.00000   0.00000   0.00000   0.00000   3.14159
    D4        0.00000   0.00000   0.00000   0.00000   0.00000   0.00000
    D5        3.14159   0.00000   0.00000   0.00000   0.00000   3.14159
    D6        0.00000   0.00000   0.00000   0.00000   0.00000   0.00000
    D7        0.00000   0.00000   0.00000   0.00000   0.00000   0.00000
    D8        3.14159   0.00000   0.00000   0.00000   0.00000   3.14159
    D9        0.00000   0.00000   0.00000   0.00000   0.00000   0.00000
   D10        3.14159   0.00000   0.00000   0.00000   0.00000   3.14159
   D11        3.14159   0.00000   0.00000   0.00000   0.00000   3.14159
   D12        0.00000   0.00000   0.00000   0.00000   0.00000   0.00000
   D13        3.14159   0.00000   0.00000   0.00000   0.00000   3.14159
   D14        0.00000   0.00000   0.00000   0.00000   0.00000   0.00000
   D15        0.00000   0.00000   0.00000   0.00000   0.00000   0.00000
   D16        3.14159   0.00000   0.00000   0.00000   0.00000   3.14159
         Item               Value     Threshold  Converged?
 Maximum Force            0.129787     0.000450     NO 
 RMS     Force            0.047394     0.000300     NO 
 Maximum Displacement     0.190866     0.001800     NO 
 RMS     Displacement     0.065867     0.001200     NO 
 Predicted change in Energy=-5.877435D-02
 GradGradGradGradGradGradGradGradGradGradGradGradGradGradGradGradGradGrad

                          Input orientation:                          
 ---------------------------------------------------------------------
 Center     Atomic     Atomic              Coordinates (Angstroms)
 Number     Number      Type              X           Y           Z
 ---------------------------------------------------------------------
    1          7             0        0.339442    0.000000    1.350641
    2          1             0        0.339177    0.000000   -1.756388
    3          6             0       -1.117604    0.000000   -0.299240
    4          1             0       -2.008348    0.000000   -0.851343
    5          6             0       -0.956225    0.000000    1.056271
    6          1             0       -1.726607    0.000000    1.769482
    7          1             0        2.019752    0.000000    0.094125
    8          6             0        0.977832    0.000000    0.206078
    9          7             0        0.107581    0.000000   -0.800876
 ---------------------------------------------------------------------
                    Distance matrix (angstroms):
                    1          2          3          4          5
     1  N    0.000000
     2  H    3.107029   0.000000
     3  C    2.201156   2.060458   0.000000
     4  H    3.218827   2.515945   1.047971   0.000000
     5  C    1.328686   3.096630   1.365084   2.178520   0.000000
     6  H    2.108076   4.086468   2.156501   2.635925   1.049837
     7  H    2.098160   2.499746   3.161920   4.137571   3.127645
     8  C    1.310560   2.063771   2.155504   3.167872   2.112678
     9  N    2.163974   0.983179   1.323902   2.116531   2.140252
                    6          7          8          9
     6  H    0.000000
     7  H    4.103904   0.000000
     8  C    3.123816   1.047917   0.000000
     9  N    3.157687   2.111261   1.330899   0.000000
 Stoichiometry    C3H4N2
 Framework group  CS[SG(C3H4N2)]
 Deg. of freedom    15
 Full point group                 CS      NOp   2
 Largest Abelian subgroup         CS      NOp   2
 Largest concise Abelian subgroup C1      NOp   1
                         Standard orientation:                         
 ---------------------------------------------------------------------
 Center     Atomic     Atomic              Coordinates (Angstroms)
 Number     Number      Type              X           Y           Z
 ---------------------------------------------------------------------
    1          7             0       -0.709323   -0.969309    0.000000
    2          1             0       -0.010995    2.058226    0.000000
    3          6             0        1.081157    0.311031    0.000000
    4          1             0        2.073172    0.648891    0.000000
    5          6             0        0.619356   -0.973568    0.000000
    6          1             0        1.209802   -1.841630    0.000000
    7          1             0       -2.064367    0.632605    0.000000
    8          6             0       -1.074239    0.289422    0.000000
    9          7             0        0.000000    1.075109    0.000000
 ---------------------------------------------------------------------
 Rotational constants (GHZ):     10.2097737      9.8189635      5.0052779
 Standard basis: Aug-CC-pVDZ (5D, 7F)
 There are   108 symmetry adapted basis functions of A'  symmetry.
 There are    43 symmetry adapted basis functions of A"  symmetry.
 Integral buffers will be    262144 words long.
 Raffenetti 2 integral format.
 Two-electron integral symmetry is turned on.
   151 basis functions,   259 primitive gaussians,   161 cartesian basis functions
    18 alpha electrons       18 beta electrons
       nuclear repulsion energy       166.9248780175 Hartrees.
 NAtoms=    9 NActive=    9 NUniq=    9 SFac= 1.00D+00 NAtFMM=   60 Big=F
 One-electron integrals computed using PRISM.
 NBasis=   151 RedAO= T  NBF=   108    43
 NBsUse=   151 1.00D-06 NBFU=   108    43
 Initial guess read from the read-write file:
 Initial guess orbital symmetries:
       Occupied  (A') (A') (A') (A') (A') (A') (A') (A') (A') (A')
                 (A') (A") (A') (A') (A') (A") (A') (A")
       Virtual   (A') (A') (A') (A") (A') (A") (A') (A") (A') (A')
                 (A") (A') (A") (A') (A') (A') (A') (A') (A") (A')
                 (A') (A") (A') (A') (A') (A') (A') (A") (A') (A')
                 (A') (A') (A') (A") (A") (A') (A") (A') (A') (A')
                 (A") (A') (A') (A") (A') (A') (A") (A') (A') (A")
                 (A') (A') (A') (A') (A") (A') (A") (A') (A') (A')
                 (A') (A") (A') (A") (A') (A") (A') (A") (A') (A")
                 (A') (A') (A') (A") (A') (A") (A') (A') (A') (A')
                 (A') (A") (A') (A") (A') (A') (A") (A') (A') (A")
                 (A") (A") (A') (A') (A') (A") (A') (A') (A") (A')
                 (A') (A") (A') (A") (A') (A') (A") (A') (A') (A")
                 (A') (A') (A') (A') (A") (A') (A') (A") (A') (A")
                 (A') (A') (A") (A') (A') (A') (A') (A') (A') (A')
                 (A') (A') (A')
 Harris functional with IExCor=  408 diagonalized for initial guess.
 ExpMin= 2.97D-02 ExpMax= 9.05D+03 ExpMxC= 3.09D+02 IAcc=3 IRadAn=         5 AccDes= 0.00D+00
 HarFok:  IExCor= 408 AccDes= 0.00D+00 IRadAn=         5 IDoV=1
 ScaDFX=  1.000000  1.000000  1.000000  1.000000
 Requested convergence on RMS density matrix=1.00D-08 within 128 cycles.
 Requested convergence on MAX density matrix=1.00D-06.
 Requested convergence on             energy=1.00D-06.
 No special actions if energy rises.
 SCF Done:  E(RB+HF-PW91) =  -226.155522152     A.U. after   12 cycles
             Convg  =    0.2156D-08             -V/T =  2.0036
             S**2   =   0.0000
 ***** Axes restored to original set *****
 -------------------------------------------------------------------
 Center     Atomic                   Forces (Hartrees/Bohr)
 Number     Number              X              Y              Z
 -------------------------------------------------------------------
    1          7           0.033114129    0.000000000    0.028907575
    2          1           0.005935406    0.000000000   -0.025273356
    3          6          -0.029575478    0.000000000    0.019452026
    4          1          -0.021068774    0.000000000   -0.020341019
    5          6          -0.011886038    0.000000000   -0.015507856
    6          1          -0.018526153    0.000000000    0.022102932
    7          1           0.028429743    0.000000000   -0.005385930
    8          6          -0.003495755    0.000000000    0.021118360
    9          7           0.017072919    0.000000000   -0.025072732
 -------------------------------------------------------------------
 Cartesian Forces:  Max     0.033114129 RMS     0.017369647

 GradGradGradGradGradGradGradGradGradGradGradGradGradGradGradGradGradGrad
 Berny optimization.
 Internal  Forces:  Max     0.046288623 RMS     0.015549950
 Search for a local minimum.
 Step number   2 out of a maximum of  48
 All quantities printed in internal units (Hartrees-Bohrs-Radians)
 Update second derivatives using D2CorX and points  1  2
 Trust test= 9.46D-01 RLast= 3.00D-01 DXMaxT set to 4.24D-01
     Eigenvalues ---    0.03210   0.03262   0.03288   0.03314   0.03351
     Eigenvalues ---    0.03406   0.15923   0.16000   0.16000   0.16001
     Eigenvalues ---    0.22115   0.22832   0.49308   0.49603   0.51414
     Eigenvalues ---    0.55653   0.61064   0.63912   0.70418   0.73430
     Eigenvalues ---    0.756301000.000001000.000001000.000001000.00000
     Eigenvalues --- 1000.000001000.000001000.000001000.000001000.00000
     Eigenvalues --- 1000.000001000.000001000.000001000.000001000.00000
     Eigenvalues --- 1000.000001000.000001000.00000
 RFO step:  Lambda=-1.88827993D-03.
 Quartic linear search produced a step of  0.62453.
 Iteration  1 RMS(Cart)=  0.04305124 RMS(Int)=  0.00074824
 Iteration  2 RMS(Cart)=  0.00088600 RMS(Int)=  0.00008004
 Iteration  3 RMS(Cart)=  0.00000096 RMS(Int)=  0.00008003
 Variable       Old X    -DE/DX   Delta X   Delta X   Delta X     New X
                                 (Linear)    (Quad)   (Total)
    R1        2.51085   0.04110   0.06318   0.00425   0.06733   2.57819
    R2        2.47660   0.01609   0.03430  -0.01109   0.02309   2.49969
    R3        1.85794   0.02596   0.05376  -0.00075   0.05301   1.91095
    R4        1.98038   0.02862   0.06920   0.00304   0.07224   2.05261
    R5        2.57963   0.02125   0.05396  -0.01430   0.03973   2.61936
    R6        2.50181   0.04629   0.06990   0.00780   0.07784   2.57966
    R7        1.98390   0.02861   0.06871   0.00442   0.07313   2.05703
    R8        1.98028   0.02884   0.06901   0.00403   0.07304   2.05332
    R9        2.51503   0.03580   0.06217  -0.00112   0.06107   2.57610
    A1        1.85617  -0.00128  -0.00106  -0.02427  -0.02561   1.83056
    A2        2.24416   0.00819   0.02134   0.04320   0.06443   2.30859
    A3        2.19811  -0.00406  -0.00494  -0.04526  -0.05031   2.14780
    A4        1.84091  -0.00413  -0.01640   0.00207  -0.01412   1.82679
    A5        1.91270   0.00475   0.01092   0.01508   0.02599   1.93869
    A6        2.17131  -0.00599  -0.01278  -0.03417  -0.04694   2.12436
    A7        2.19918   0.00123   0.00186   0.01908   0.02095   2.22013
    A8        2.18662   0.00013   0.00319   0.00392   0.00715   2.19377
    A9        1.92011   0.00435   0.00153   0.02796   0.02940   1.94951
   A10        2.17646  -0.00447  -0.00472  -0.03188  -0.03656   2.13991
   A11        2.19720   0.00167  -0.00252   0.00867   0.00607   2.20327
   A12        2.19110   0.00202  -0.00249   0.01217   0.00959   2.20069
   A13        1.89489  -0.00368   0.00502  -0.02084  -0.01566   1.87922
    D1        0.00000   0.00000   0.00000   0.00000   0.00000   0.00000
    D2        3.14159   0.00000   0.00000   0.00000   0.00000   3.14159
    D3        3.14159   0.00000   0.00000   0.00000   0.00000   3.14159
    D4        0.00000   0.00000   0.00000   0.00000   0.00000   0.00000
    D5        3.14159   0.00000   0.00000   0.00000   0.00000   3.14159
    D6        0.00000   0.00000   0.00000   0.00000   0.00000   0.00000
    D7        0.00000   0.00000   0.00000   0.00000   0.00000   0.00000
    D8        3.14159   0.00000   0.00000   0.00000   0.00000   3.14159
    D9        0.00000   0.00000   0.00000   0.00000   0.00000   0.00000
   D10        3.14159   0.00000   0.00000   0.00000   0.00000   3.14159
   D11        3.14159   0.00000   0.00000   0.00000   0.00000   3.14159
   D12        0.00000   0.00000   0.00000   0.00000   0.00000   0.00000
   D13        3.14159   0.00000   0.00000   0.00000   0.00000   3.14159
   D14        0.00000   0.00000   0.00000   0.00000   0.00000   0.00000
   D15        0.00000   0.00000   0.00000   0.00000   0.00000   0.00000
   D16        3.14159   0.00000   0.00000   0.00000   0.00000   3.14159
         Item               Value     Threshold  Converged?
 Maximum Force            0.046289     0.000450     NO 
 RMS     Force            0.015550     0.000300     NO 
 Maximum Displacement     0.131247     0.001800     NO 
 RMS     Displacement     0.042960     0.001200     NO 
 Predicted change in Energy=-6.782325D-03
 GradGradGradGradGradGradGradGradGradGradGradGradGradGradGradGradGradGrad

                          Input orientation:                          
 ---------------------------------------------------------------------
 Center     Atomic     Atomic              Coordinates (Angstroms)
 Number     Number      Type              X           Y           Z
 ---------------------------------------------------------------------
    1          7             0        0.359077    0.000000    1.389412
    2          1             0        0.355767    0.000000   -1.801112
    3          6             0       -1.151343    0.000000   -0.302196
    4          1             0       -2.044780    0.000000   -0.919927
    5          6             0       -0.967730    0.000000    1.071694
    6          1             0       -1.739904    0.000000    1.838935
    7          1             0        2.064865    0.000000    0.086400
    8          6             0        0.987208    0.000000    0.225285
    9          7             0        0.111839    0.000000   -0.819743
 ---------------------------------------------------------------------
                    Distance matrix (angstroms):
                    1          2          3          4          5
     1  N    0.000000
     2  H    3.190526   0.000000
     3  C    2.267798   2.125589   0.000000
     4  H    3.333404   2.557170   1.086196   0.000000
     5  C    1.364318   3.163015   1.386106   2.264198   0.000000
     6  H    2.146577   4.200212   2.220552   2.775657   1.088536
     7  H    2.146521   2.546315   3.239599   4.231062   3.188642
     8  C    1.322777   2.122499   2.202643   3.241059   2.130303
     9  N    2.222947   1.011230   1.365095   2.158946   2.177844
                    6          7          8          9
     6  H    0.000000
     7  H    4.188991   0.000000
     8  C    3.168755   1.086570   0.000000
     9  N    3.239988   2.152999   1.363214   0.000000
 Stoichiometry    C3H4N2
 Framework group  CS[SG(C3H4N2)]
 Deg. of freedom    15
 Full point group                 CS      NOp   2
 Largest Abelian subgroup         CS      NOp   2
 Largest concise Abelian subgroup C1      NOp   1
                         Standard orientation:                         
 ---------------------------------------------------------------------
 Center     Atomic     Atomic              Coordinates (Angstroms)
 Number     Number      Type              X           Y           Z
 ---------------------------------------------------------------------
    1          7             0       -0.735641   -0.995501    0.000000
    2          1             0       -0.017982    2.113265    0.000000
    3          6             0        1.115215    0.314935    0.000000
    4          1             0        2.124290    0.716917    0.000000
    5          6             0        0.628620   -0.982954    0.000000
    6          1             0        1.209382   -1.903620    0.000000
    7          1             0       -2.106339    0.656389    0.000000
    8          6             0       -1.087146    0.279718    0.000000
    9          7             0        0.000000    1.102194    0.000000
 ---------------------------------------------------------------------
 Rotational constants (GHZ):      9.8462326      9.3151402      4.7866631
 Standard basis: Aug-CC-pVDZ (5D, 7F)
 There are   108 symmetry adapted basis functions of A'  symmetry.
 There are    43 symmetry adapted basis functions of A"  symmetry.
 Integral buffers will be    262144 words long.
 Raffenetti 2 integral format.
 Two-electron integral symmetry is turned on.
   151 basis functions,   259 primitive gaussians,   161 cartesian basis functions
    18 alpha electrons       18 beta electrons
       nuclear repulsion energy       163.1771960503 Hartrees.
 NAtoms=    9 NActive=    9 NUniq=    9 SFac= 1.00D+00 NAtFMM=   60 Big=F
 One-electron integrals computed using PRISM.
 NBasis=   151 RedAO= T  NBF=   108    43
 NBsUse=   151 1.00D-06 NBFU=   108    43
 Initial guess read from the read-write file:
 Initial guess orbital symmetries:
       Occupied  (A') (A') (A') (A') (A') (A') (A') (A') (A') (A')
                 (A') (A') (A") (A') (A') (A") (A') (A")
       Virtual   (A') (A') (A") (A') (A') (A") (A') (A") (A') (A')
                 (A") (A') (A") (A') (A') (A') (A') (A') (A") (A')
                 (A') (A') (A") (A') (A') (A') (A') (A") (A') (A')
                 (A') (A') (A') (A") (A") (A') (A") (A') (A') (A')
                 (A') (A") (A') (A") (A') (A') (A") (A') (A') (A')
                 (A') (A") (A') (A') (A") (A') (A") (A') (A') (A')
                 (A') (A') (A") (A") (A') (A") (A') (A") (A') (A")
                 (A') (A') (A") (A') (A') (A") (A') (A') (A') (A')
                 (A') (A") (A') (A") (A') (A') (A") (A') (A') (A")
                 (A") (A") (A') (A') (A') (A") (A') (A') (A") (A')
                 (A') (A") (A') (A") (A') (A') (A') (A") (A') (A")
                 (A') (A') (A') (A') (A') (A") (A') (A') (A") (A')
                 (A") (A') (A") (A') (A') (A') (A') (A') (A') (A')
                 (A') (A') (A')
 Harris functional with IExCor=  408 diagonalized for initial guess.
 ExpMin= 2.97D-02 ExpMax= 9.05D+03 ExpMxC= 3.09D+02 IAcc=3 IRadAn=         5 AccDes= 0.00D+00
 HarFok:  IExCor= 408 AccDes= 0.00D+00 IRadAn=         5 IDoV=1
 ScaDFX=  1.000000  1.000000  1.000000  1.000000
 Requested convergence on RMS density matrix=1.00D-08 within 128 cycles.
 Requested convergence on MAX density matrix=1.00D-06.
 Requested convergence on             energy=1.00D-06.
 No special actions if energy rises.
 SCF Done:  E(RB+HF-PW91) =  -226.164722674     A.U. after   11 cycles
             Convg  =    0.6730D-08             -V/T =  2.0064
             S**2   =   0.0000
 ***** Axes restored to original set *****
 -------------------------------------------------------------------
 Center     Atomic                   Forces (Hartrees/Bohr)
 Number     Number              X              Y              Z
 -------------------------------------------------------------------
    1          7           0.006622209    0.000000000   -0.006798042
    2          1          -0.000290832    0.000000000    0.002066878
    3          6          -0.006952540    0.000000000    0.011131708
    4          1           0.001734907    0.000000000    0.000662771
    5          6          -0.011322244    0.000000000   -0.005669406
    6          1           0.001204137    0.000000000   -0.001079307
    7          1          -0.000964807    0.000000000   -0.000243118
    8          6           0.002410656    0.000000000    0.004168867
    9          7           0.007558513    0.000000000   -0.004240353
 -------------------------------------------------------------------
 Cartesian Forces:  Max     0.011322244 RMS     0.004440421

 GradGradGradGradGradGradGradGradGradGradGradGradGradGradGradGradGradGrad
 Berny optimization.
 Internal  Forces:  Max     0.008758575 RMS     0.002626484
 Search for a local minimum.
 Step number   3 out of a maximum of  48
 All quantities printed in internal units (Hartrees-Bohrs-Radians)
 Update second derivatives using D2CorX and points  1  2  3
 Trust test= 1.36D+00 RLast= 2.21D-01 DXMaxT set to 6.00D-01
     Eigenvalues ---    0.03206   0.03261   0.03287   0.03304   0.03349
     Eigenvalues ---    0.03405   0.15440   0.16000   0.16000   0.16002
     Eigenvalues ---    0.22132   0.23425   0.44965   0.49332   0.49618
     Eigenvalues ---    0.55867   0.59252   0.63882   0.66266   0.73194
     Eigenvalues ---    0.747421000.000001000.000001000.000001000.00000
     Eigenvalues --- 1000.000001000.000001000.000001000.000001000.00000
     Eigenvalues --- 1000.000001000.000001000.000001000.000001000.00000
     Eigenvalues --- 1000.000001000.000001000.00000
 RFO step:  Lambda=-4.77451094D-04.
 Quartic linear search produced a step of -0.00105.
 Iteration  1 RMS(Cart)=  0.00557978 RMS(Int)=  0.00001857
 Iteration  2 RMS(Cart)=  0.00001805 RMS(Int)=  0.00000403
 Iteration  3 RMS(Cart)=  0.00000000 RMS(Int)=  0.00000403
 Variable       Old X    -DE/DX   Delta X   Delta X   Delta X     New X
                                 (Linear)    (Quad)   (Total)
    R1        2.57819   0.00691  -0.00007   0.01080   0.01073   2.58892
    R2        2.49969  -0.00448  -0.00002  -0.00566  -0.00568   2.49401
    R3        1.91095  -0.00208  -0.00006  -0.00197  -0.00203   1.90892
    R4        2.05261  -0.00180  -0.00008  -0.00169  -0.00177   2.05085
    R5        2.61936  -0.00832  -0.00004  -0.01204  -0.01208   2.60729
    R6        2.57966   0.00876  -0.00008   0.01351   0.01342   2.59308
    R7        2.05703  -0.00162  -0.00008  -0.00133  -0.00140   2.05563
    R8        2.05332  -0.00093  -0.00008   0.00009   0.00001   2.05333
    R9        2.57610  -0.00080  -0.00006   0.00066   0.00059   2.57669
    A1        1.83056   0.00411   0.00003   0.01467   0.01471   1.84527
    A2        2.30859   0.00014  -0.00007   0.00184   0.00178   2.31037
    A3        2.14780  -0.00076   0.00005  -0.00598  -0.00593   2.14188
    A4        1.82679   0.00062   0.00001   0.00413   0.00415   1.83094
    A5        1.93869  -0.00243  -0.00003  -0.01038  -0.01040   1.92829
    A6        2.12436   0.00113   0.00005   0.00397   0.00402   2.12838
    A7        2.22013   0.00131  -0.00002   0.00641   0.00638   2.22652
    A8        2.19377   0.00164  -0.00001   0.00821   0.00821   2.20198
    A9        1.94951  -0.00252  -0.00003  -0.01088  -0.01092   1.93859
   A10        2.13991   0.00088   0.00004   0.00267   0.00271   2.14262
   A11        2.20327   0.00009  -0.00001   0.00001   0.00000   2.20328
   A12        2.20069  -0.00031  -0.00001  -0.00246  -0.00246   2.19823
   A13        1.87922   0.00022   0.00002   0.00245   0.00246   1.88168
    D1        0.00000   0.00000   0.00000   0.00000   0.00000   0.00000
    D2        3.14159   0.00000   0.00000   0.00000   0.00000   3.14159
    D3        3.14159   0.00000   0.00000   0.00000   0.00000   3.14159
    D4        0.00000   0.00000   0.00000   0.00000   0.00000   0.00000
    D5        3.14159   0.00000   0.00000   0.00000   0.00000   3.14159
    D6        0.00000   0.00000   0.00000   0.00000   0.00000   0.00000
    D7        0.00000   0.00000   0.00000   0.00000   0.00000   0.00000
    D8        3.14159   0.00000   0.00000   0.00000   0.00000   3.14159
    D9        0.00000   0.00000   0.00000   0.00000   0.00000   0.00000
   D10        3.14159   0.00000   0.00000   0.00000   0.00000   3.14159
   D11        3.14159   0.00000   0.00000   0.00000   0.00000   3.14159
   D12        0.00000   0.00000   0.00000   0.00000   0.00000   0.00000
   D13        3.14159   0.00000   0.00000   0.00000   0.00000   3.14159
   D14        0.00000   0.00000   0.00000   0.00000   0.00000   0.00000
   D15        0.00000   0.00000   0.00000   0.00000   0.00000   0.00000
   D16        3.14159   0.00000   0.00000   0.00000   0.00000   3.14159
         Item               Value     Threshold  Converged?
 Maximum Force            0.008759     0.000450     NO 
 RMS     Force            0.002626     0.000300     NO 
 Maximum Displacement     0.016486     0.001800     NO 
 RMS     Displacement     0.005576     0.001200     NO 
 Predicted change in Energy=-2.390182D-04
 GradGradGradGradGradGradGradGradGradGradGradGradGradGradGradGradGradGrad

                          Input orientation:                          
 ---------------------------------------------------------------------
 Center     Atomic     Atomic              Coordinates (Angstroms)
 Number     Number      Type              X           Y           Z
 ---------------------------------------------------------------------
    1          7             0        0.358555    0.000000    1.380688
    2          1             0        0.357104    0.000000   -1.798891
    3          6             0       -1.154677    0.000000   -0.296663
    4          1             0       -2.044356    0.000000   -0.918164
    5          6             0       -0.976084    0.000000    1.071445
    6          1             0       -1.745173    0.000000    1.840729
    7          1             0        2.071335    0.000000    0.084051
    8          6             0        0.993789    0.000000    0.223850
    9          7             0        0.114507    0.000000   -0.818296
 ---------------------------------------------------------------------
                    Distance matrix (angstroms):
                    1          2          3          4          5
     1  N    0.000000
     2  H    3.179580   0.000000
     3  C    2.259066   2.131237   0.000000
     4  H    3.325464   2.557868   1.085262   0.000000
     5  C    1.369998   3.164841   1.379716   2.258263   0.000000
     6  H    2.153441   4.203142   2.217461   2.775068   1.087794
     7  H    2.148228   2.546382   3.248399   4.235960   3.203391
     8  C    1.319771   2.120578   2.210620   3.245694   2.144486
     9  N    2.212485   1.010158   1.372198   2.161172   2.181859
                    6          7          8          9
     6  H    0.000000
     7  H    4.201387   0.000000
     8  C    3.180599   1.086577   0.000000
     9  N    3.244815   2.154857   1.363527   0.000000
 Stoichiometry    C3H4N2
 Framework group  CS[SG(C3H4N2)]
 Deg. of freedom    15
 Full point group                 CS      NOp   2
 Largest Abelian subgroup         CS      NOp   2
 Largest concise Abelian subgroup C1      NOp   1
                         Standard orientation:                         
 ---------------------------------------------------------------------
 Center     Atomic     Atomic              Coordinates (Angstroms)
 Number     Number      Type              X           Y           Z
 ---------------------------------------------------------------------
    1          7             0       -0.736736   -0.985415    0.000000
    2          1             0       -0.013722    2.110870    0.000000
    3          6             0        1.117683    0.304744    0.000000
    4          1             0        2.125197    0.708117    0.000000
    5          6             0        0.633260   -0.987135    0.000000
    6          1             0        1.207693   -1.910889    0.000000
    7          1             0       -2.110555    0.666102    0.000000
    8          6             0       -1.092853    0.285403    0.000000
    9          7             0        0.000000    1.100805    0.000000
 ---------------------------------------------------------------------
 Rotational constants (GHZ):      9.7402632      9.3974416      4.7828909
 Standard basis: Aug-CC-pVDZ (5D, 7F)
 There are   108 symmetry adapted basis functions of A'  symmetry.
 There are    43 symmetry adapted basis functions of A"  symmetry.
 Integral buffers will be    262144 words long.
 Raffenetti 2 integral format.
 Two-electron integral symmetry is turned on.
   151 basis functions,   259 primitive gaussians,   161 cartesian basis functions
    18 alpha electrons       18 beta electrons
       nuclear repulsion energy       163.1001591610 Hartrees.
 NAtoms=    9 NActive=    9 NUniq=    9 SFac= 1.00D+00 NAtFMM=   60 Big=F
 One-electron integrals computed using PRISM.
 NBasis=   151 RedAO= T  NBF=   108    43
 NBsUse=   151 1.00D-06 NBFU=   108    43
 Initial guess read from the read-write file:
 Initial guess orbital symmetries:
       Occupied  (A') (A') (A') (A') (A') (A') (A') (A') (A') (A')
                 (A') (A') (A') (A") (A') (A") (A') (A")
       Virtual   (A') (A") (A') (A') (A') (A") (A") (A') (A') (A')
                 (A") (A') (A') (A") (A') (A') (A') (A') (A") (A')
                 (A') (A') (A") (A') (A') (A') (A') (A') (A") (A')
                 (A') (A') (A') (A") (A") (A') (A") (A') (A') (A')
                 (A') (A") (A') (A") (A') (A') (A') (A") (A') (A')
                 (A') (A') (A") (A') (A") (A') (A") (A') (A') (A')
                 (A') (A') (A") (A") (A') (A') (A") (A') (A") (A")
                 (A') (A') (A") (A') (A') (A") (A') (A') (A') (A')
                 (A') (A") (A') (A") (A') (A") (A') (A') (A") (A')
                 (A") (A') (A") (A') (A') (A") (A') (A') (A") (A')
                 (A') (A") (A') (A") (A') (A') (A') (A") (A') (A")
                 (A') (A') (A') (A') (A') (A') (A") (A') (A') (A")
                 (A') (A") (A") (A') (A') (A') (A') (A') (A') (A')
                 (A') (A') (A')
 Requested convergence on RMS density matrix=1.00D-08 within 128 cycles.
 Requested convergence on MAX density matrix=1.00D-06.
 Requested convergence on             energy=1.00D-06.
 No special actions if energy rises.
 SCF Done:  E(RB+HF-PW91) =  -226.164974941     A.U. after   10 cycles
             Convg  =    0.5894D-08             -V/T =  2.0065
             S**2   =   0.0000
 ***** Axes restored to original set *****
 -------------------------------------------------------------------
 Center     Atomic                   Forces (Hartrees/Bohr)
 Number     Number              X              Y              Z
 -------------------------------------------------------------------
    1          7           0.004965295    0.000000000    0.000112200
    2          1          -0.000619388    0.000000000    0.000894142
    3          6          -0.002434387    0.000000000    0.004215777
    4          1           0.001116681    0.000000000    0.000166195
    5          6          -0.002958950    0.000000000   -0.004170215
    6          1           0.001342551    0.000000000   -0.000678978
    7          1          -0.001070931    0.000000000    0.000160634
    8          6          -0.003655143    0.000000000    0.003078499
    9          7           0.003314273    0.000000000   -0.003778254
 -------------------------------------------------------------------
 Cartesian Forces:  Max     0.004965295 RMS     0.002181594

 GradGradGradGradGradGradGradGradGradGradGradGradGradGradGradGradGradGrad
 Berny optimization.
 Internal  Forces:  Max     0.003023034 RMS     0.001092431
 Search for a local minimum.
 Step number   4 out of a maximum of  48
 All quantities printed in internal units (Hartrees-Bohrs-Radians)
 Update second derivatives using D2CorX and points  1  2  3  4
 Trust test= 1.06D+00 RLast= 3.36D-02 DXMaxT set to 6.00D-01
     Eigenvalues ---    0.03205   0.03261   0.03287   0.03304   0.03350
     Eigenvalues ---    0.03405   0.14625   0.15999   0.16000   0.16065
     Eigenvalues ---    0.21591   0.32443   0.44739   0.48154   0.49527
     Eigenvalues ---    0.49682   0.56648   0.60168   0.64447   0.69550
     Eigenvalues ---    0.767301000.000001000.000001000.000001000.00000
     Eigenvalues --- 1000.000001000.000001000.000001000.000001000.00000
     Eigenvalues --- 1000.000001000.000001000.000001000.000001000.00000
     Eigenvalues --- 1000.000001000.000001000.00000
 RFO step:  Lambda=-1.22900170D-04.
 Quartic linear search produced a step of  0.06326.
 Iteration  1 RMS(Cart)=  0.00226915 RMS(Int)=  0.00000483
 Iteration  2 RMS(Cart)=  0.00000525 RMS(Int)=  0.00000243
 Iteration  3 RMS(Cart)=  0.00000000 RMS(Int)=  0.00000243
 Variable       Old X    -DE/DX   Delta X   Delta X   Delta X     New X
                                 (Linear)    (Quad)   (Total)
    R1        2.58892   0.00223   0.00068   0.00590   0.00658   2.59550
    R2        2.49401  -0.00302  -0.00036  -0.00530  -0.00565   2.48835
    R3        1.90892  -0.00102  -0.00013  -0.00148  -0.00161   1.90731
    R4        2.05085  -0.00101  -0.00011  -0.00155  -0.00166   2.04919
    R5        2.60729  -0.00294  -0.00076  -0.00655  -0.00731   2.59997
    R6        2.59308   0.00152   0.00085   0.00572   0.00657   2.59965
    R7        2.05563  -0.00143  -0.00009  -0.00241  -0.00249   2.05314
    R8        2.05333  -0.00108   0.00000  -0.00136  -0.00136   2.05198
    R9        2.57669   0.00010   0.00004   0.00103   0.00107   2.57777
    A1        1.84527  -0.00157   0.00093  -0.00529  -0.00436   1.84091
    A2        2.31037   0.00054   0.00011   0.00387   0.00398   2.31435
    A3        2.14188  -0.00049  -0.00037  -0.00498  -0.00535   2.13653
    A4        1.83094  -0.00005   0.00026   0.00111   0.00137   1.83231
    A5        1.92829   0.00102  -0.00066   0.00290   0.00223   1.93052
    A6        2.12838  -0.00099   0.00025  -0.00503  -0.00477   2.12361
    A7        2.22652  -0.00003   0.00040   0.00213   0.00254   2.22906
    A8        2.20198  -0.00106   0.00052  -0.00312  -0.00261   2.19937
    A9        1.93859   0.00208  -0.00069   0.00719   0.00650   1.94509
   A10        2.14262  -0.00102   0.00017  -0.00406  -0.00390   2.13872
   A11        2.20328   0.00036   0.00000   0.00074   0.00074   2.20401
   A12        2.19823   0.00111  -0.00016   0.00516   0.00501   2.20323
   A13        1.88168  -0.00147   0.00016  -0.00590  -0.00574   1.87594
    D1        0.00000   0.00000   0.00000   0.00000   0.00000   0.00000
    D2        3.14159   0.00000   0.00000   0.00000   0.00000   3.14159
    D3        3.14159   0.00000   0.00000   0.00000   0.00000   3.14159
    D4        0.00000   0.00000   0.00000   0.00000   0.00000   0.00000
    D5        3.14159   0.00000   0.00000   0.00000   0.00000   3.14159
    D6        0.00000   0.00000   0.00000   0.00000   0.00000   0.00000
    D7        0.00000   0.00000   0.00000   0.00000   0.00000   0.00000
    D8        3.14159   0.00000   0.00000   0.00000   0.00000   3.14159
    D9        0.00000   0.00000   0.00000   0.00000   0.00000   0.00000
   D10        3.14159   0.00000   0.00000   0.00000   0.00000   3.14159
   D11        3.14159   0.00000   0.00000   0.00000   0.00000   3.14159
   D12        0.00000   0.00000   0.00000   0.00000   0.00000   0.00000
   D13        3.14159   0.00000   0.00000   0.00000   0.00000   3.14159
   D14        0.00000   0.00000   0.00000   0.00000   0.00000   0.00000
   D15        0.00000   0.00000   0.00000   0.00000   0.00000   0.00000
   D16        3.14159   0.00000   0.00000   0.00000   0.00000   3.14159
         Item               Value     Threshold  Converged?
 Maximum Force            0.003023     0.000450     NO 
 RMS     Force            0.001092     0.000300     NO 
 Maximum Displacement     0.005990     0.001800     NO 
 RMS     Displacement     0.002270     0.001200     NO 
 Predicted change in Energy=-6.235226D-05
 GradGradGradGradGradGradGradGradGradGradGradGradGradGradGradGradGradGrad

                          Input orientation:                          
 ---------------------------------------------------------------------
 Center     Atomic     Atomic              Coordinates (Angstroms)
 Number     Number      Type              X           Y           Z
 ---------------------------------------------------------------------
    1          7             0        0.360839    0.000000    1.381563
    2          1             0        0.356631    0.000000   -1.800335
    3          6             0       -1.155768    0.000000   -0.294655
    4          1             0       -2.042687    0.000000   -0.918564
    5          6             0       -0.976716    0.000000    1.069489
    6          1             0       -1.742374    0.000000    1.840328
    7          1             0        2.068165    0.000000    0.085609
    8          6             0        0.991363    0.000000    0.225558
    9          7             0        0.115547    0.000000   -0.820244
 ---------------------------------------------------------------------
                    Distance matrix (angstroms):
                    1          2          3          4          5
     1  N    0.000000
     2  H    3.181902   0.000000
     3  C    2.260488   2.134110   0.000000
     4  H    3.326789   2.556218   1.084384   0.000000
     5  C    1.373479   3.164445   1.375845   2.255804   0.000000
     6  H    2.152666   4.202411   2.214105   2.775190   1.086474
     7  H    2.143469   2.546789   3.246282   4.231722   3.199894
     8  C    1.316779   2.123000   2.209251   3.242603   2.141391
     9  N    2.215428   1.009307   1.375677   2.160473   2.182689
                    6          7          8          9
     6  H    0.000000
     7  H    4.195146   0.000000
     8  C    3.175028   1.085859   0.000000
     9  N    3.245076   2.152507   1.364095   0.000000
 Stoichiometry    C3H4N2
 Framework group  CS[SG(C3H4N2)]
 Deg. of freedom    15
 Full point group                 CS      NOp   2
 Largest Abelian subgroup         CS      NOp   2
 Largest concise Abelian subgroup C1      NOp   1
                         Standard orientation:                         
 ---------------------------------------------------------------------
 Center     Atomic     Atomic              Coordinates (Angstroms)
 Number     Number      Type              X           Y           Z
 ---------------------------------------------------------------------
    1          7             0       -0.739683   -0.985292    0.000000
    2          1             0       -0.011834    2.112245    0.000000
    3          6             0        1.118441    0.302023    0.000000
    4          1             0        2.124026    0.707841    0.000000
    5          6             0        0.633796   -0.985637    0.000000
    6          1             0        1.204051   -1.910426    0.000000
    7          1             0       -2.107480    0.665039    0.000000
    8          6             0       -1.090735    0.283830    0.000000
    9          7             0        0.000000    1.103007    0.000000
 ---------------------------------------------------------------------
 Rotational constants (GHZ):      9.7469338      9.3898935      4.7825415
 Standard basis: Aug-CC-pVDZ (5D, 7F)
 There are   108 symmetry adapted basis functions of A'  symmetry.
 There are    43 symmetry adapted basis functions of A"  symmetry.
 Integral buffers will be    262144 words long.
 Raffenetti 2 integral format.
 Two-electron integral symmetry is turned on.
   151 basis functions,   259 primitive gaussians,   161 cartesian basis functions
    18 alpha electrons       18 beta electrons
       nuclear repulsion energy       163.1023459838 Hartrees.
 NAtoms=    9 NActive=    9 NUniq=    9 SFac= 1.00D+00 NAtFMM=   60 Big=F
 One-electron integrals computed using PRISM.
 NBasis=   151 RedAO= T  NBF=   108    43
 NBsUse=   151 1.00D-06 NBFU=   108    43
 Initial guess read from the read-write file:
 Initial guess orbital symmetries:
       Occupied  (A') (A') (A') (A') (A') (A') (A') (A') (A') (A')
                 (A') (A') (A') (A") (A') (A") (A') (A")
       Virtual   (A') (A") (A') (A') (A') (A") (A") (A') (A') (A')
                 (A") (A') (A') (A") (A') (A') (A') (A') (A") (A')
                 (A') (A') (A') (A") (A') (A') (A') (A') (A") (A')
                 (A') (A') (A') (A") (A") (A') (A") (A') (A') (A')
                 (A') (A") (A') (A") (A') (A') (A') (A") (A') (A')
                 (A') (A') (A") (A') (A") (A') (A") (A') (A') (A')
                 (A') (A') (A") (A") (A') (A') (A") (A') (A") (A")
                 (A') (A') (A") (A') (A') (A") (A') (A') (A') (A')
                 (A') (A") (A') (A") (A') (A') (A") (A') (A") (A')
                 (A") (A') (A") (A') (A') (A") (A') (A') (A") (A')
                 (A') (A") (A') (A") (A') (A') (A') (A") (A') (A")
                 (A') (A') (A') (A') (A') (A') (A") (A') (A') (A")
                 (A') (A") (A") (A') (A') (A') (A') (A') (A') (A')
                 (A') (A') (A')
 Requested convergence on RMS density matrix=1.00D-08 within 128 cycles.
 Requested convergence on MAX density matrix=1.00D-06.
 Requested convergence on             energy=1.00D-06.
 No special actions if energy rises.
 SCF Done:  E(RB+HF-PW91) =  -226.165051478     A.U. after    9 cycles
             Convg  =    0.5457D-08             -V/T =  2.0064
             S**2   =   0.0000
 ***** Axes restored to original set *****
 -------------------------------------------------------------------
 Center     Atomic                   Forces (Hartrees/Bohr)
 Number     Number              X              Y              Z
 -------------------------------------------------------------------
    1          7           0.001462042    0.000000000    0.000168333
    2          1          -0.000230294    0.000000000    0.000352241
    3          6          -0.000299908    0.000000000    0.000499764
    4          1           0.000325149    0.000000000    0.000166360
    5          6          -0.001076657    0.000000000   -0.000894630
    6          1           0.000473484    0.000000000   -0.000248715
    7          1          -0.000358485    0.000000000    0.000076474
    8          6          -0.001083694    0.000000000    0.000359794
    9          7           0.000788362    0.000000000   -0.000479622
 -------------------------------------------------------------------
 Cartesian Forces:  Max     0.001462042 RMS     0.000521801

 GradGradGradGradGradGradGradGradGradGradGradGradGradGradGradGradGradGrad
 Berny optimization.
 Internal  Forces:  Max     0.000726899 RMS     0.000290013
 Search for a local minimum.
 Step number   5 out of a maximum of  48
 All quantities printed in internal units (Hartrees-Bohrs-Radians)
 Update second derivatives using D2CorX and points  1  2  3  4  5

 Trust test= 1.23D+00 RLast= 2.02D-02 DXMaxT set to 6.00D-01
     Eigenvalues ---    0.03205   0.03261   0.03287   0.03303   0.03349
     Eigenvalues ---    0.03404   0.14225   0.15983   0.16007   0.16017
     Eigenvalues ---    0.21348   0.28780   0.43368   0.47644   0.49646
     Eigenvalues ---    0.49759   0.56398   0.59797   0.64636   0.68517
     Eigenvalues ---    0.764121000.000001000.000001000.000001000.00000
     Eigenvalues --- 1000.000001000.000001000.000001000.000001000.00000
     Eigenvalues --- 1000.000001000.000001000.000001000.000001000.00000
     Eigenvalues --- 1000.000001000.000001000.00000
 RFO step:  Lambda=-1.60959565D-06.
 Quartic linear search produced a step of  0.29416.
 Iteration  1 RMS(Cart)=  0.00079087 RMS(Int)=  0.00000111
 Iteration  2 RMS(Cart)=  0.00000051 RMS(Int)=  0.00000103
 Variable       Old X    -DE/DX   Delta X   Delta X   Delta X     New X
                                 (Linear)    (Quad)   (Total)
    R1        2.59550   0.00071   0.00194   0.00034   0.00227   2.59777
    R2        2.48835  -0.00073  -0.00166  -0.00005  -0.00171   2.48664
    R3        1.90731  -0.00040  -0.00047  -0.00040  -0.00088   1.90644
    R4        2.04919  -0.00036  -0.00049  -0.00041  -0.00090   2.04829
    R5        2.59997  -0.00061  -0.00215   0.00018  -0.00198   2.59799
    R6        2.59965   0.00000   0.00193  -0.00074   0.00119   2.60084
    R7        2.05314  -0.00051  -0.00073  -0.00055  -0.00128   2.05186
    R8        2.05198  -0.00037  -0.00040  -0.00038  -0.00078   2.05120
    R9        2.57777  -0.00032   0.00032  -0.00076  -0.00044   2.57732
    A1        1.84091  -0.00054  -0.00128  -0.00042  -0.00170   1.83921
    A2        2.31435   0.00007   0.00117  -0.00056   0.00061   2.31496
    A3        2.13653  -0.00003  -0.00157   0.00076  -0.00082   2.13571
    A4        1.83231  -0.00004   0.00040  -0.00020   0.00020   1.83251
    A5        1.93052   0.00018   0.00066   0.00001   0.00067   1.93119
    A6        2.12361  -0.00026  -0.00140  -0.00036  -0.00176   2.12184
    A7        2.22906   0.00008   0.00075   0.00035   0.00110   2.23015
    A8        2.19937  -0.00032  -0.00077  -0.00033  -0.00110   2.19827
    A9        1.94509   0.00059   0.00191   0.00021   0.00212   1.94722
   A10        2.13872  -0.00026  -0.00115   0.00013  -0.00102   2.13770
   A11        2.20401  -0.00004   0.00022  -0.00057  -0.00035   2.20366
   A12        2.20323   0.00023   0.00147   0.00017   0.00164   2.20487
   A13        1.87594  -0.00019  -0.00169   0.00040  -0.00129   1.87466
    D1        0.00000   0.00000   0.00000   0.00000   0.00000   0.00000
    D2        3.14159   0.00000   0.00000   0.00000   0.00000   3.14159
    D3        3.14159   0.00000   0.00000   0.00000   0.00000   3.14159
    D4        0.00000   0.00000   0.00000   0.00000   0.00000   0.00000
    D5        3.14159   0.00000   0.00000   0.00000   0.00000   3.14159
    D6        0.00000   0.00000   0.00000   0.00000   0.00000   0.00000
    D7        0.00000   0.00000   0.00000   0.00000   0.00000   0.00000
    D8        3.14159   0.00000   0.00000   0.00000   0.00000   3.14159
    D9        0.00000   0.00000   0.00000   0.00000   0.00000   0.00000
   D10        3.14159   0.00000   0.00000   0.00000   0.00000   3.14159
   D11        3.14159   0.00000   0.00000   0.00000   0.00000   3.14159
   D12        0.00000   0.00000   0.00000   0.00000   0.00000   0.00000
   D13        3.14159   0.00000   0.00000   0.00000   0.00000   3.14159
   D14        0.00000   0.00000   0.00000   0.00000   0.00000   0.00000
   D15        0.00000   0.00000   0.00000   0.00000   0.00000   0.00000
   D16        3.14159   0.00000   0.00000   0.00000   0.00000   3.14159
         Item               Value     Threshold  Converged?
 Maximum Force            0.000727     0.000450     NO 
 RMS     Force            0.000290     0.000300     YES
 Maximum Displacement     0.002477     0.001800     NO 
 RMS     Displacement     0.000791     0.001200     YES
 Predicted change in Energy=-4.983352D-06
 GradGradGradGradGradGradGradGradGradGradGradGradGradGradGradGradGradGrad

                          Input orientation:                          
 ---------------------------------------------------------------------
 Center     Atomic     Atomic              Coordinates (Angstroms)
 Number     Number      Type              X           Y           Z
 ---------------------------------------------------------------------
    1          7             0        0.361627    0.000000    1.381869
    2          1             0        0.356255    0.000000   -1.800338
    3          6             0       -1.155891    0.000000   -0.294400
    4          1             0       -2.042068    0.000000   -0.918535
    5          6             0       -0.976908    0.000000    1.068698
    6          1             0       -1.741203    0.000000    1.839934
    7          1             0        2.066855    0.000000    0.086095
    8          6             0        0.990459    0.000000    0.225976
    9          7             0        0.115874    0.000000   -0.820551
 ---------------------------------------------------------------------
                    Distance matrix (angstroms):
                    1          2          3          4          5
     1  N    0.000000
     2  H    3.182212   0.000000
     3  C    2.261137   2.134112   0.000000
     4  H    3.327102   2.555295   1.083907   0.000000
     5  C    1.374682   3.163652   1.374799   2.254698   0.000000
     6  H    2.152142   4.201298   2.213136   2.774828   1.085795
     7  H    2.141689   2.546523   3.245130   4.229956   3.198437
     8  C    1.315872   2.123243   2.208531   3.241315   2.140260
     9  N    2.216089   1.008844   1.376308   2.160166   2.182529
                    6          7          8          9
     6  H    0.000000
     7  H    4.192523   0.000000
     8  C    3.172827   1.085447   0.000000
     9  N    3.244520   2.151356   1.363861   0.000000
 Stoichiometry    C3H4N2
 Framework group  CS[SG(C3H4N2)]
 Deg. of freedom    15
 Full point group                 CS      NOp   2
 Largest Abelian subgroup         CS      NOp   2
 Largest concise Abelian subgroup C1      NOp   1
                         Standard orientation:                         
 ---------------------------------------------------------------------
 Center     Atomic     Atomic              Coordinates (Angstroms)
 Number     Number      Type              X           Y           Z
 ---------------------------------------------------------------------
    1          7             0       -0.740718   -0.985272    0.000000
    2          1             0       -0.011003    2.112144    0.000000
    3          6             0        1.118580    0.301487    0.000000
    4          1             0        2.123580    0.707478    0.000000
    5          6             0        0.633964   -0.985066    0.000000
    6          1             0        1.202603   -1.910053    0.000000
    7          1             0       -2.106159    0.664699    0.000000
    8          6             0       -1.089877    0.283431    0.000000
    9          7             0        0.000000    1.103360    0.000000
 ---------------------------------------------------------------------
 Rotational constants (GHZ):      9.7517758      9.3885996      4.7833711
 Standard basis: Aug-CC-pVDZ (5D, 7F)
 There are   108 symmetry adapted basis functions of A'  symmetry.
 There are    43 symmetry adapted basis functions of A"  symmetry.
 Integral buffers will be    262144 words long.
 Raffenetti 2 integral format.
 Two-electron integral symmetry is turned on.
   151 basis functions,   259 primitive gaussians,   161 cartesian basis functions
    18 alpha electrons       18 beta electrons
       nuclear repulsion energy       163.1201779491 Hartrees.
 NAtoms=    9 NActive=    9 NUniq=    9 SFac= 1.00D+00 NAtFMM=   60 Big=F
 One-electron integrals computed using PRISM.
 NBasis=   151 RedAO= T  NBF=   108    43
 NBsUse=   151 1.00D-06 NBFU=   108    43
 Initial guess read from the read-write file:
 Initial guess orbital symmetries:
       Occupied  (A') (A') (A') (A') (A') (A') (A') (A') (A') (A')
                 (A') (A') (A') (A") (A') (A") (A') (A")
       Virtual   (A') (A") (A') (A') (A') (A") (A") (A') (A') (A')
                 (A") (A') (A') (A") (A') (A') (A') (A') (A") (A')
                 (A') (A') (A') (A") (A') (A') (A') (A') (A") (A')
                 (A') (A') (A') (A") (A") (A') (A") (A') (A') (A')
                 (A') (A") (A') (A") (A') (A') (A') (A") (A') (A')
                 (A') (A') (A") (A') (A") (A') (A") (A') (A') (A')
                 (A') (A') (A") (A") (A') (A') (A") (A') (A") (A")
                 (A') (A') (A") (A') (A') (A") (A') (A') (A') (A')
                 (A') (A") (A') (A") (A') (A") (A') (A') (A") (A')
                 (A") (A') (A") (A') (A') (A") (A') (A') (A") (A')
                 (A') (A") (A') (A") (A') (A') (A') (A") (A') (A")
                 (A') (A') (A') (A') (A') (A') (A") (A') (A') (A")
                 (A') (A") (A") (A') (A') (A') (A') (A') (A') (A')
                 (A') (A') (A')
 Requested convergence on RMS density matrix=1.00D-08 within 128 cycles.
 Requested convergence on MAX density matrix=1.00D-06.
 Requested convergence on             energy=1.00D-06.
 No special actions if energy rises.
 SCF Done:  E(RB+HF-PW91) =  -226.165056682     A.U. after    9 cycles
             Convg  =    0.2790D-08             -V/T =  2.0064
             S**2   =   0.0000
 ***** Axes restored to original set *****
 -------------------------------------------------------------------
 Center     Atomic                   Forces (Hartrees/Bohr)
 Number     Number              X              Y              Z
 -------------------------------------------------------------------
    1          7           0.000213074    0.000000000    0.000142345
    2          1          -0.000021629    0.000000000    0.000008283
    3          6           0.000178790    0.000000000   -0.000178134
    4          1           0.000001123    0.000000000    0.000032438
    5          6          -0.000312006    0.000000000    0.000020072
    6          1           0.000048863    0.000000000    0.000000975
    7          1          -0.000005223    0.000000000    0.000009893
    8          6          -0.000134105    0.000000000   -0.000226721
    9          7           0.000031112    0.000000000    0.000190850
 -------------------------------------------------------------------
 Cartesian Forces:  Max     0.000312006 RMS     0.000111885

 GradGradGradGradGradGradGradGradGradGradGradGradGradGradGradGradGradGrad
 Berny optimization.
 Internal  Forces:  Max     0.000189420 RMS     0.000056088
 Search for a local minimum.
 Step number   6 out of a maximum of  48
 All quantities printed in internal units (Hartrees-Bohrs-Radians)
 Update second derivatives using D2CorX and points  1  2  3  4  5
                                                        6
 Trust test= 1.04D+00 RLast= 6.12D-03 DXMaxT set to 6.00D-01
     Eigenvalues ---    0.03205   0.03261   0.03287   0.03303   0.03349
     Eigenvalues ---    0.03404   0.14065   0.15708   0.16001   0.16034
     Eigenvalues ---    0.21037   0.29135   0.43045   0.46116   0.49615
     Eigenvalues ---    0.49672   0.56348   0.59428   0.63885   0.69592
     Eigenvalues ---    0.763331000.000001000.000001000.000001000.00000
     Eigenvalues --- 1000.000001000.000001000.000001000.000001000.00000
     Eigenvalues --- 1000.000001000.000001000.000001000.000001000.00000
     Eigenvalues --- 1000.000001000.000001000.00000
 RFO step:  Lambda=-2.15606257D-07.
 Quartic linear search produced a step of  0.04869.
 Iteration  1 RMS(Cart)=  0.00009251 RMS(Int)=  0.00000002
 Iteration  2 RMS(Cart)=  0.00000001 RMS(Int)=  0.00000001
 Variable       Old X    -DE/DX   Delta X   Delta X   Delta X     New X
                                 (Linear)    (Quad)   (Total)
    R1        2.59777   0.00019   0.00011   0.00025   0.00036   2.59813
    R2        2.48664   0.00007  -0.00008   0.00014   0.00006   2.48669
    R3        1.90644  -0.00001  -0.00004  -0.00001  -0.00005   1.90639
    R4        2.04829  -0.00002  -0.00004  -0.00003  -0.00008   2.04821
    R5        2.59799   0.00006  -0.00010   0.00016   0.00006   2.59806
    R6        2.60084  -0.00012   0.00006  -0.00022  -0.00017   2.60068
    R7        2.05186  -0.00003  -0.00006  -0.00005  -0.00011   2.05174
    R8        2.05120  -0.00001  -0.00004  -0.00001  -0.00004   2.05115
[...]
                    16                     17                     18
                    A'                     A'                     A'
 Frequencies --  1508.7248              1562.0203              3258.2200
 Red. masses --     3.4983                 3.4550                 1.0927
 Frc consts  --     4.6917                 4.9667                 6.8343
 IR Inten    --    19.7580                10.1576                 4.1209
 Atom AN      X      Y      Z        X      Y      Z        X      Y      Z
   1   7    -0.01  -0.14   0.00    -0.02   0.17   0.00     0.00   0.00   0.00
   2   1     0.10  -0.14   0.00     0.56   0.01   0.00     0.00  -0.01   0.00
   3   6    -0.02   0.26   0.00     0.11   0.21   0.00    -0.03  -0.01   0.00
   4   1     0.30  -0.50   0.00     0.31  -0.17   0.00     0.31   0.12   0.00
   5   6     0.02  -0.14   0.00    -0.14  -0.22   0.00     0.04  -0.07   0.00
   6   1     0.01  -0.19   0.00     0.47   0.11   0.00    -0.48   0.79   0.00
   7   1    -0.27  -0.54   0.00     0.26   0.23   0.00    -0.18   0.07   0.00
   8   6     0.04   0.30   0.00     0.06  -0.20   0.00     0.02   0.00   0.00
   9   7    -0.03  -0.13   0.00    -0.12   0.00   0.00     0.00   0.00   0.00
                    19                     20                     21
                    A'                     A'                     A'
 Frequencies --  3263.5670              3291.2590              3670.1192
 Red. masses --     1.0979                 1.1057                 1.0820
 Frc consts  --     6.8899                 7.0568                 8.5868
 IR Inten    --     0.9225                 0.9881                56.1252
 Atom AN      X      Y      Z        X      Y      Z        X      Y      Z
   1   7     0.00   0.00   0.00     0.00   0.00   0.00     0.00   0.00   0.00
   2   1    -0.01   0.02   0.00    -0.01  -0.02   0.00    -0.01   1.00   0.00
   3   6    -0.01  -0.01   0.00    -0.08  -0.03   0.00     0.00   0.00   0.00
   4   1     0.12   0.05   0.00     0.86   0.35   0.00     0.01   0.00   0.00
   5   6     0.01  -0.01   0.00    -0.01   0.03   0.00     0.00   0.00   0.00
   6   1    -0.08   0.13   0.00     0.18  -0.30   0.00     0.00   0.00   0.00
   7   1     0.91  -0.34   0.00    -0.06   0.02   0.00    -0.01   0.00   0.00
   8   6    -0.08   0.03   0.00     0.01   0.00   0.00     0.00   0.00   0.00
   9   7     0.00   0.00   0.00     0.00   0.00   0.00     0.00  -0.08   0.00

 -------------------
 - Thermochemistry -
 -------------------
 Temperature   298.150 Kelvin.  Pressure   1.00000 Atm.
 Atom  1 has atomic number  7 and mass  14.00307
 Atom  2 has atomic number  1 and mass   1.00783
 Atom  3 has atomic number  6 and mass  12.00000
 Atom  4 has atomic number  1 and mass   1.00783
 Atom  5 has atomic number  6 and mass  12.00000
 Atom  6 has atomic number  1 and mass   1.00783
 Atom  7 has atomic number  1 and mass   1.00783
 Atom  8 has atomic number  6 and mass  12.00000
 Atom  9 has atomic number  7 and mass  14.00307
 Molecular mass:    68.03745 amu.
 Principal axes and moments of inertia in atomic units:
                           1         2         3
     EIGENVALUES --   185.06796 192.22688 377.29483
           X            0.44791   0.89408   0.00000
           Y            0.89408  -0.44791   0.00000
           Z            0.00000   0.00000   1.00000
 This molecule is an asymmetric top.
 Rotational symmetry number  1.
 Rotational temperatures (Kelvin)      0.46801     0.45058     0.22957
 Rotational constants (GHZ):           9.75178     9.38860     4.78337
 Zero-point vibrational energy     187290.2 (Joules/Mol)
                                   44.76343 (Kcal/Mol)
 Warning -- explicit consideration of   1 degrees of freedom as
           vibrations may cause significant error
 Vibrational temperatures:    801.32   931.90   980.74  1057.82  1179.97
          (Kelvin)           1250.05  1294.78  1352.31  1549.31  1580.10
                             1645.93  1703.17  1833.38  1986.14  2087.35
                             2170.72  2247.40  4687.85  4695.54  4735.38
                             5280.48
 
 Zero-point correction=                           0.071335 (Hartree/Particle)
 Thermal correction to Energy=                    0.075068
 Thermal correction to Enthalpy=                  0.076012
 Thermal correction to Gibbs Free Energy=         0.045081
 Sum of electronic and zero-point Energies=           -226.093722
 Sum of electronic and thermal Energies=              -226.089988
 Sum of electronic and thermal Enthalpies=            -226.089044
 Sum of electronic and thermal Free Energies=         -226.119976
 
                     E (Thermal)             CV                S
                      KCal/Mol        Cal/Mol-Kelvin    Cal/Mol-Kelvin
 Total                   47.106             13.295             65.101
 Electronic               0.000              0.000              0.000
 Translational            0.889              2.981             38.570
 Rotational               0.889              2.981             24.110
 Vibrational             45.329              7.334              2.421
 Vibration  1             0.912              1.125              0.530
                       Q            Log10(Q)             Ln(Q)
 Total Bot       0.183811D-20        -20.735628        -47.745549
 Total V=0       0.119166D+13         12.076153         27.806370
 Vib (Bot)       0.200926D-32        -32.696965        -75.287544
 Vib (Bot)  1    0.279894D+00         -0.553007         -1.273345
 Vib (V=0)       0.130262D+01          0.114816          0.264375
 Vib (V=0)  1    0.107301D+01          0.030604          0.070468
 Electronic      0.100000D+01          0.000000          0.000000
 Translational   0.220586D+08          7.343577         16.909211
 Rotational      0.414724D+05          4.617759         10.632784
 ***** Axes restored to original set *****
 -------------------------------------------------------------------
 Center     Atomic                   Forces (Hartrees/Bohr)
 Number     Number              X              Y              Z
 -------------------------------------------------------------------
    1          7           0.000212996    0.000000000    0.000142358
    2          1          -0.000021625    0.000000000    0.000008269
    3          6           0.000178800    0.000000000   -0.000178128
    4          1           0.000001125    0.000000000    0.000032433
    5          6          -0.000311990    0.000000000    0.000020105
    6          1           0.000048893    0.000000000    0.000000954
    7          1          -0.000005205    0.000000000    0.000009892
    8          6          -0.000134083    0.000000000   -0.000226741
    9          7           0.000031089    0.000000000    0.000190859
 -------------------------------------------------------------------
 Cartesian Forces:  Max     0.000311990 RMS     0.000111880

 GradGradGradGradGradGradGradGradGradGradGradGradGradGradGradGradGradGrad
 Berny optimization.
 Internal  Forces:  Max     0.000189370 RMS     0.000056084
 Search for a local minimum.
 Step number   1 out of a maximum of   2
 All quantities printed in internal units (Hartrees-Bohrs-Radians)
 Second derivative matrix not updated -- analytic derivatives used.
     Eigenvalues ---    0.00592   0.01116   0.02040   0.02757   0.05993
     Eigenvalues ---    0.06219   0.09575   0.10300   0.10771   0.11583
     Eigenvalues ---    0.23158   0.24685   0.35322   0.37354   0.37590
     Eigenvalues ---    0.37910   0.41145   0.45209   0.47509   0.48209
     Eigenvalues ---    0.583501000.000001000.000001000.000001000.00000
     Eigenvalues --- 1000.000001000.000001000.000001000.000001000.00000
     Eigenvalues --- 1000.000001000.000001000.000001000.000001000.00000
     Eigenvalues --- 1000.000001000.000001000.00000
 Angle between quadratic step and forces=  27.89 degrees.
 Linear search not attempted -- first point.
 Iteration  1 RMS(Cart)=  0.00013343 RMS(Int)=  0.00000002
 Iteration  2 RMS(Cart)=  0.00000003 RMS(Int)=  0.00000000
 Variable       Old X    -DE/DX   Delta X   Delta X   Delta X     New X
                                 (Linear)    (Quad)   (Total)
    R1        2.59777   0.00019   0.00000   0.00063   0.00063   2.59840
    R2        2.48664   0.00007   0.00000   0.00015   0.00015   2.48678
    R3        1.90644  -0.00001   0.00000  -0.00002  -0.00002   1.90641
    R4        2.04829  -0.00002   0.00000  -0.00005  -0.00005   2.04824
    R5        2.59799   0.00006   0.00000   0.00010   0.00010   2.59810
    R6        2.60084  -0.00012   0.00000  -0.00035  -0.00035   2.60050
    R7        2.05186  -0.00003   0.00000  -0.00011  -0.00011   2.05174
    R8        2.05120  -0.00001   0.00000  -0.00001  -0.00001   2.05119
    R9        2.57732  -0.00016   0.00000  -0.00047  -0.00047   2.57686
    A1        1.83921  -0.00008   0.00000  -0.00024  -0.00024   1.83896
    A2        2.31496  -0.00005   0.00000  -0.00039  -0.00039   2.31457
    A3        2.13571   0.00001   0.00000   0.00025   0.00025   2.13596
    A4        1.83251   0.00004   0.00000   0.00014   0.00014   1.83265
    A5        1.93119  -0.00007   0.00000  -0.00023  -0.00023   1.93096
    A6        2.12184   0.00000   0.00000  -0.00031  -0.00031   2.12153
    A7        2.23015   0.00007   0.00000   0.00054   0.00054   2.23069
    A8        2.19827  -0.00004   0.00000  -0.00024  -0.00024   2.19803
    A9        1.94722   0.00006   0.00000   0.00019   0.00019   1.94741
   A10        2.13770  -0.00002   0.00000   0.00005   0.00005   2.13775
   A11        2.20366  -0.00005   0.00000  -0.00025  -0.00025   2.20341
   A12        2.20487  -0.00001   0.00000   0.00011   0.00011   2.20498
   A13        1.87466   0.00006   0.00000   0.00014   0.00014   1.87480
    D1        0.00000   0.00000   0.00000   0.00000   0.00000   0.00000
    D2        3.14159   0.00000   0.00000   0.00000   0.00000   3.14159
    D3        3.14159   0.00000   0.00000   0.00000   0.00000   3.14159
    D4        0.00000   0.00000   0.00000   0.00000   0.00000   0.00000
    D5        3.14159   0.00000   0.00000   0.00000   0.00000   3.14159
    D6        0.00000   0.00000   0.00000   0.00000   0.00000   0.00000
    D7        0.00000   0.00000   0.00000   0.00000   0.00000   0.00000
    D8        3.14159   0.00000   0.00000   0.00000   0.00000   3.14159
    D9        0.00000   0.00000   0.00000   0.00000   0.00000   0.00000
   D10        3.14159   0.00000   0.00000   0.00000   0.00000   3.14159
   D11        3.14159   0.00000   0.00000   0.00000   0.00000   3.14159
   D12        0.00000   0.00000   0.00000   0.00000   0.00000   0.00000
   D13        3.14159   0.00000   0.00000   0.00000   0.00000   3.14159
   D14        0.00000   0.00000   0.00000   0.00000   0.00000   0.00000
   D15        0.00000   0.00000   0.00000   0.00000   0.00000   0.00000
   D16        3.14159   0.00000   0.00000   0.00000   0.00000   3.14159
         Item               Value     Threshold  Converged?
 Maximum Force            0.000189     0.000450     YES
 RMS     Force            0.000056     0.000300     YES
 Maximum Displacement     0.000393     0.001800     YES
 RMS     Displacement     0.000133     0.001200     YES
 Predicted change in Energy=-1.994156D-07
 Optimization completed.
    -- Stationary point found.
                           ----------------------------
                           !   Optimized Parameters   !
                           ! (Angstroms and Degrees)  !
 --------------------------                            --------------------------
 ! Name  Definition              Value          Derivative Info.                !
 --------------------------------------------------------------------------------
 ! R1    R(1,5)                  1.3747         -DE/DX =    0.0002              !
 ! R2    R(1,8)                  1.3159         -DE/DX =    0.0001              !
 ! R3    R(2,9)                  1.0088         -DE/DX =    0.0                 !
 ! R4    R(3,4)                  1.0839         -DE/DX =    0.0                 !
 ! R5    R(3,5)                  1.3748         -DE/DX =    0.0001              !
 ! R6    R(3,9)                  1.3763         -DE/DX =   -0.0001              !
 ! R7    R(5,6)                  1.0858         -DE/DX =    0.0                 !
 ! R8    R(7,8)                  1.0854         -DE/DX =    0.0                 !
 ! R9    R(8,9)                  1.3639         -DE/DX =   -0.0002              !
 ! A1    A(5,1,8)              105.3788         -DE/DX =   -0.0001              !
 ! A2    A(4,3,5)              132.6376         -DE/DX =    0.0                 !
 ! A3    A(4,3,9)              122.3672         -DE/DX =    0.0                 !
 ! A4    A(5,3,9)              104.9952         -DE/DX =    0.0                 !
 ! A5    A(1,5,3)              110.6489         -DE/DX =   -0.0001              !
 ! A6    A(1,5,6)              121.5727         -DE/DX =    0.0                 !
 ! A7    A(3,5,6)              127.7784         -DE/DX =    0.0001              !
 ! A8    A(1,8,7)              125.9514         -DE/DX =    0.0                 !
 ! A9    A(1,8,9)              111.5673         -DE/DX =    0.0001              !
 ! A10   A(7,8,9)              122.4813         -DE/DX =    0.0                 !
 ! A11   A(2,9,3)              126.2604         -DE/DX =    0.0                 !
 ! A12   A(2,9,8)              126.3298         -DE/DX =    0.0                 !
 ! A13   A(3,9,8)              107.4099         -DE/DX =    0.0001              !
 ! D1    D(8,1,5,3)              0.0            -DE/DX =    0.0                 !
 ! D2    D(8,1,5,6)            180.0            -DE/DX =    0.0                 !
 ! D3    D(5,1,8,7)            180.0            -DE/DX =    0.0                 !
 ! D4    D(5,1,8,9)              0.0            -DE/DX =    0.0                 !
 ! D5    D(4,3,5,1)            180.0            -DE/DX =    0.0                 !
 ! D6    D(4,3,5,6)              0.0            -DE/DX =    0.0                 !
 ! D7    D(9,3,5,1)              0.0            -DE/DX =    0.0                 !
 ! D8    D(9,3,5,6)            180.0            -DE/DX =    0.0                 !
 ! D9    D(4,3,9,2)              0.0            -DE/DX =    0.0                 !
 ! D10   D(4,3,9,8)            180.0            -DE/DX =    0.0                 !
 ! D11   D(5,3,9,2)            180.0            -DE/DX =    0.0                 !
 ! D12   D(5,3,9,8)              0.0            -DE/DX =    0.0                 !
 ! D13   D(1,8,9,2)            180.0            -DE/DX =    0.0                 !
 ! D14   D(1,8,9,3)              0.0            -DE/DX =    0.0                 !
 ! D15   D(7,8,9,2)              0.0            -DE/DX =    0.0                 !
 ! D16   D(7,8,9,3)            180.0            -DE/DX =    0.0                 !
 --------------------------------------------------------------------------------
 GradGradGradGradGradGradGradGradGradGradGradGradGradGradGradGradGradGrad

 1|1|UNPC-UNK|Freq|RB3PW91|Aug-CC-pVDZ|C3H4N2|PCUSER|09-Dec-2004|0||#N 
 GEOM=ALLCHECK GUESS=READ SCRF=CHECK GENCHK RB3PW91/AUG-CC-PVDZ FREQ||1
 H imidazole C3H4N2 casno=288324 method=16 basis=17||0,1|N,0.4969516024
 ,0.,1.1280351386|H,0.4915801017,0.,-2.054172081|C,-1.020566388,0.,-0.5
 482341715|H,-1.9067429871,0.,-1.1723691286|C,-0.8415828402,0.,0.814863
 9401|H,-1.6058780863,0.,1.5860993092|H,2.2021796523,0.,-0.1677391027|C
 ,1.1257834677,0.,-0.0278582066|N,0.2511992379,0.,-1.0743849056||Versio
 n=x86-Win32-G03RevB.05|State=1-A'|HF=-226.1650567|RMSD=1.742e-009|RMSF
 =1.119e-004|Dipole=-0.1167752,0.,-1.4678699|DipoleDeriv=-0.3527673,0.,
 -0.0343315,0.,-0.3008776,0.,-0.0239031,0.,-0.5655849,0.1755326,0.,-0.0
 094851,0.,0.3118077,0.,-0.0116072,0.,0.1982928,-0.0212512,0.,-0.258053
 8,0.,-0.1617523,0.,-0.0584919,0.,0.1603628,0.0228039,0.,-0.0396473,0.,
 0.1994961,0.,-0.0595017,0.,0.0353101,0.168204,0.,0.0023023,0.,-0.14112
 03,0.,-0.0404562,0.,0.1322881,-0.0046307,0.,0.0544571,0.,0.162105,0.,0
 .0742202,0.,0.0411173,-0.0102219,0.,0.0382463,0.,0.1667161,0.,0.031798
 5,0.,0.0624143,0.0763582,0.,0.0820576,0.,-0.0195897,0.,0.0323423,0.,0.
 5491174,-0.0540276,0.,0.1644545,0.,-0.2167851,0.,0.0555991,0.,-0.61331
 78|Polar=57.8677471,0.,33.6497453,0.1535592,0.,55.008547|PG=CS [SG(C3H
 4N2)]|NImag=0||0.50412518,0.,0.10420396,-0.05901174,0.,0.57669121,-0.0
 0301248,0.,-0.00815894,0.08094162,0.,0.00685662,0.,0.,0.01242236,-0.00
 283486,0.,-0.00327082,-0.09814018,0.,0.45437300,-0.03280710,0.,-0.0139
 4761,0.00687188,0.,-0.00275469,0.75280862,0.,0.01756362,0.,0.,-0.00694
 758,0.,0.,0.11180783,-0.08613739,0.,-0.02041539,0.02759164,0.,-0.00070
 910,0.15934952,0.,0.74036128,0.00172978,0.,0.00118452,0.00031441,0.,0.
 00005283,-0.25793525,0.,-0.14138703,0.27094436,0.,0.00671913,0.,0.,-0.
 00121689,0.,0.,-0.02141544,0.,0.,0.01837926,-0.00420548,0.,-0.00540540
 ,-0.00106501,0.,0.00021405,-0.15205821,0.,-0.16418561,0.15457509,0.,0.
 15682368,-0.26997410,0.,-0.03971418,-0.00817162,0.,-0.00119535,-0.0979
 4970,0.,-0.01879119,0.00489305,0.,-0.02108051,0.67127229,0.,-0.0708080
 6,0.,0.,0.00263492,0.,0.,-0.06639513,0.,0.,-0.00123391,0.,0.,0.1343977
 6,-0.05020729,0.,-0.11003114,0.00360942,0.,0.00046632,-0.03690832,0.,-
 0.39377094,0.00240390,0.,0.00334341,-0.15516061,0.,0.79566123,-0.01854
 832,0.,0.02053855,0.00077563,0.,-0.00001619,0.00813703,0.,-0.00630520,
 -0.00031118,0.,0.00068707,-0.19511040,0.,0.14897269,0.21045610,0.,-0.0
 0481916,0.,0.,0.00190603,0.,0.,-0.00032385,0.,0.,-0.00199681,0.,0.,-0.
 02919151,0.,0.,0.02296229,-0.00721508,0.,0.01119125,0.00113673,0.,0.00
 023469,0.02014433,0.,-0.00666048,-0.00048782,0.,-0.00016390,0.15147746
 ,0.,-0.21656155,-0.16034264,0.,0.21590296,-0.00806979,0.,0.00231985,-0
 .00055971,0.,-0.00043075,0.00101977,0.,-0.00317239,-0.00028124,0.,0.00
 036160,0.00130658,0.,0.00255016,-0.00027982,0.,-0.00021307,0.36911890,
 0.,-0.00485929,0.,0.,-0.00131521,0.,0.,0.00282494,0.,0.,0.00177627,0.,
 0.,0.00691969,0.,0.,0.00107600,0.,0.,0.02097697,0.02846654,0.,0.000837
 22,0.00059446,0.,0.00045022,-0.00130580,0.,-0.00568015,-0.00098503,0.,
 0.00096692,0.00335536,0.,-0.00428139,0.00129932,0.,0.00066238,-0.03922
 268,0.,0.06050361,-0.16825994,0.,0.12260883,0.01799078,0.,0.01355814,-
 0.09263042,0.,0.00342693,-0.00308812,0.,0.00418067,-0.08874003,0.,0.01
 637034,-0.00592920,0.,-0.00349717,-0.35034798,0.,0.03702339,0.90265612
 ,0.,-0.07708402,0.,0.,-0.00810687,0.,0.,0.01663141,0.,0.,0.00290084,0.
 ,0.,0.01044033,0.,0.,0.00531557,0.,0.,-0.02566393,0.,0.,0.13672945,0.1
 4535845,0.,-0.34291848,-0.01605341,0.,-0.01007229,-0.04472794,0.,-0.01
 095768,0.00373907,0.,-0.00500475,0.07304697,0.,-0.00190170,-0.00171977
 ,0.,0.00075694,0.03230102,0.,-0.05993864,-0.08487186,0.,0.64502354,-0.
 00518324,0.,-0.02581928,-0.09515051,0.,0.09176104,-0.28751482,0.,0.065
 42513,-0.01626582,0.,0.01860477,-0.01752608,0.,0.06836970,0.00081016,0
 .,-0.00100275,-0.01190670,0.,-0.02922556,-0.21165122,0.,-0.10707254,0.
 64438823,0.,0.02222719,0.,0.,-0.00623338,0.,0.,-0.05374582,0.,0.,-0.00
 391245,0.,0.,0.01323588,0.,0.,0.00507143,0.,0.,-0.00173544,0.,0.,-0.06
 116279,0.,0.,0.08625537,0.03578686,0.,-0.10667846,0.09048527,0.,-0.441
 68608,0.07220872,0.,-0.13798194,-0.01909555,0.,0.01341159,0.00806205,0
 .,-0.07292424,-0.00311383,0.,-0.00536230,0.00550627,0.,0.00647982,-0.1
 0879927,0.,-0.21498694,-0.08104052,0.,0.95972855||-0.00021300,0.,-0.00
 014236,0.00002162,0.,-0.00000827,-0.00017880,0.,0.00017813,-0.00000113
 ,0.,-0.00003243,0.00031199,0.,-0.00002010,-0.00004889,0.,-0.00000095,0
 .00000520,0.,-0.00000989,0.00013408,0.,0.00022674,-0.00003109,0.,-0.00
 019086|||@


 I am not a vegetarian because I love animals;
 I am a vegetarian because I hate plants.
                               -- A. Whitney Brown
 Job cpu time:  0 days  0 hours 14 minutes 49.0 seconds.
 File lengths (MBytes):  RWF=     28 Int=      0 D2E=      0 Chk=      5 Scr=      1
 Normal termination of Gaussian 03 at Thu Dec 09 16:52:39 2004.
